# vtk DataFile Version 1.0
unstructured grid
ascii
DATASET UNSTRUCTURED_GRID
points 7812 float
-1 0 0
-1 1 0
2 0 0
2 1 0
0 0 0
1 0 0
-1 1 0.1
-1 0 0.1
0 0 0.1
1 0 0.1
2 0 0.1
2 1 0.1
-0.99 0 0
-0.98 0 0
-0.97 0 0
-0.96 0 0
-0.95 0 0
-0.94 0 0
-0.93 0 0
-0.92 0 0
-0.91 0 0
-0.9 0 0
-0.89 0 0
-0.88 0 0
-0.87 0 0
-0.86 0 0
-0.85 0 0
-0.84 0 0
-0.83 0 0
-0.82 0 0
-0.81 0 0
-0.8 0 0
-0.79 0 0
-0.78 0 0
-0.77 0 0
-0.76 0 0
-0.75 0 0
-0.74 0 0
-0.73 0 0
-0.72 0 0
-0.71 0 0
-0.7 0 0
-0.69 0 0
-0.68 0 0
-0.67 0 0
-0.66 0 0
-0.65 0 0
-0.64 0 0
-0.63 0 0
-0.62 0 0
-0.61 0 0
-0.6 0 0
-0.59 0 0
-0.58 0 0
-0.57 0 0
-0.56 0 0
-0.55 0 0
-0.54 0 0
-0.53 0 0
-0.52 0 0
-0.51 0 0
-0.5 0 0
-0.49 0 0
-0.48 0 0
-0.47 0 0
-0.46 0 0
-0.45 0 0
-0.44 0 0
-0.43 0 0
-0.42 0 0
-0.41 0 0
-0.4 0 0
-0.39 0 0
-0.38 0 0
-0.37 0 0
-0.36 0 0
-0.35 0 0
-0.34 0 0
-0.33 0 0
-0.32 0 0
-0.31 0 0
-0.3 0 0
-0.29 0 0
-0.28 0 0
-0.27 0 0
-0.26 0 0
-0.25 0 0
-0.24 0 0
-0.23 0 0
-0.22 0 0
-0.21 0 0
-0.2 0 0
-0.19 0 0
-0.18 0 0
-0.17 0 0
-0.16 0 0
-0.15 0 0
-0.14 0 0
-0.13 0 0
-0.12 0 0
-0.11 0 0
-0.1 0 0
-0.09 0 0
-0.08 0 0
-0.07 0 0
-0.06 0 0
-0.05 0 0
-0.04 0 0
-0.03 0 0
-0.02 0 0
-0.01 0 0
1.01 0 0
1.02 0 0
1.03 0 0
1.04 0 0
1.05 0 0
1.06 0 0
1.07 0 0
1.08 0 0
1.09 0 0
1.1 0 0
1.11 0 0
1.12 0 0
1.13 0 0
1.14 0 0
1.15 0 0
1.16 0 0
1.17 0 0
1.18 0 0
1.19 0 0
1.2 0 0
1.21 0 0
1.22 0 0
1.23 0 0
1.24 0 0
1.25 0 0
1.26 0 0
1.27 0 0
1.28 0 0
1.29 0 0
1.3 0 0
1.31 0 0
1.32 0 0
1.33 0 0
1.34 0 0
1.35 0 0
1.36 0 0
1.37 0 0
1.38 0 0
1.39 0 0
1.4 0 0
1.41 0 0
1.42 0 0
1.43 0 0
1.44 0 0
1.45 0 0
1.46 0 0
1.47 0 0
1.48 0 0
1.49 0 0
1.5 0 0
1.51 0 0
1.52 0 0
1.53 0 0
1.54 0 0
1.55 0 0
1.56 0 0
1.57 0 0
1.58 0 0
1.59 0 0
1.6 0 0
1.61 0 0
1.62 0 0
1.63 0 0
1.64 0 0
1.65 0 0
1.66 0 0
1.67 0 0
1.68 0 0
1.69 0 0
1.7 0 0
1.71 0 0
1.72 0 0
1.73 0 0
1.74 0 0
1.75 0 0
1.76 0 0
1.77 0 0
1.78 0 0
1.79 0 0
1.8 0 0
1.81 0 0
1.82 0 0
1.83 0 0
1.84 0 0
1.85 0 0
1.86 0 0
1.87 0 0
1.88 0 0
1.89 0 0
1.9 0 0
1.91 0 0
1.92 0 0
1.93 0 0
1.94 0 0
1.95 0 0
1.96 0 0
1.97 0 0
1.98 0 0
1.99 0 0
2 0.010289 0
2 0.0215307 0
2 0.0338135 0
2 0.0472336 0
2 0.0618965 0
2 0.0779171 0
2 0.0954213 0
2 0.114546 0
2 0.135442 0
2 0.158274 0
2 0.183219 0
2 0.210474 0
2 0.240253 0
2 0.27279 0
2 0.308339 0
2 0.347181 0
2 0.389619 0
2 0.435987 0
2 0.486649 0
2 0.542002 0
2 0.602481 0
2 0.66856 0
2 0.740758 0
2 0.819642 0
2 0.90583 0
1.9 1 0
1.8 1 0
1.7 1 0
1.6 1 0
1.5 1 0
1.4 1 0
1.3 1 0
1.2 1 0
1.1 1 0
1 1 0
0.9 1 0
0.8 1 0
0.7 1 0
0.6 1 0
0.5 1 0
0.4 1 0
0.3 1 0
0.2 1 0
0.1 1 0
3.69793e-12 1 0
-0.1 1 0
-0.2 1 0
-0.3 1 0
-0.4 1 0
-0.5 1 0
-0.6 1 0
-0.7 1 0
-0.8 1 0
-0.9 1 0
-1 0.90583 0
-1 0.819642 0
-1 0.740758 0
-1 0.66856 0
-1 0.602481 0
-1 0.542002 0
-1 0.486649 0
-1 0.435987 0
-1 0.389619 0
-1 0.347181 0
-1 0.308339 0
-1 0.27279 0
-1 0.240253 0
-1 0.210474 0
-1 0.183219 0
-1 0.158274 0
-1 0.135442 0
-1 0.114546 0
-1 0.0954213 0
-1 0.0779171 0
-1 0.0618965 0
-1 0.0472336 0
-1 0.0338135 0
-1 0.0215307 0
-1 0.010289 0
0.00921362 0.00379763 0
0.0184561 0.00752451 0
0.0277268 0.0111804 0
0.0370253 0.0147652 0
0.0463511 0.0182786 0
0.0557034 0.0217203 0
0.0650819 0.0250903 0
0.074486 0.0283883 0
0.083915 0.0316141 0
0.0933685 0.0347675 0
0.102846 0.0378484 0
0.112347 0.0408565 0
0.12187 0.0437917 0
0.131416 0.0466538 0
0.140983 0.0494427 0
0.150572 0.0521581 0
0.160181 0.0547999 0
0.16981 0.0573681 0
0.179458 0.0598623 0
0.189125 0.0622825 0
0.198811 0.0646285 0
0.208514 0.0669001 0
0.218234 0.0690974 0
0.227971 0.07122 0
0.237724 0.073268 0
0.247493 0.0752411 0
0.257276 0.0771393 0
0.267073 0.0789625 0
0.276884 0.0807105 0
0.286708 0.0823832 0
0.296545 0.0839806 0
0.306394 0.0855025 0
0.316254 0.0869488 0
0.326125 0.0883196 0
0.336006 0.0896146 0
0.345896 0.0908339 0
0.355796 0.0919773 0
0.365704 0.0930447 0
0.375621 0.0940362 0
0.385544 0.0949517 0
0.395474 0.095791 0
0.40541 0.0965542 0
0.415352 0.0972412 0
0.425299 0.097852 0
0.43525 0.0983865 0
0.445205 0.0988447 0
0.455164 0.0992266 0
0.465125 0.0995321 0
0.475088 0.0997613 0
0.485052 0.0999141 0
0.495017 0.0999904 0
0.504983 0.0999904 0
0.514948 0.0999141 0
0.524912 0.0997613 0
0.534875 0.0995321 0
0.544836 0.0992266 0
0.554795 0.0988447 0
0.56475 0.0983865 0
0.574701 0.097852 0
0.584648 0.0972412 0
0.59459 0.0965542 0
0.604526 0.095791 0
0.614456 0.0949517 0
0.624379 0.0940362 0
0.634296 0.0930447 0
0.644204 0.0919773 0
0.654104 0.0908339 0
0.663994 0.0896146 0
0.673875 0.0883196 0
0.683746 0.0869488 0
0.693606 0.0855025 0
0.703455 0.0839806 0
0.713292 0.0823832 0
0.723116 0.0807105 0
0.732927 0.0789625 0
0.742724 0.0771393 0
0.752508 0.0752411 0
0.762276 0.073268 0
0.772029 0.07122 0
0.781766 0.0690974 0
0.791486 0.0669001 0
0.801189 0.0646285 0
0.810875 0.0622825 0
0.820542 0.0598623 0
0.83019 0.0573681 0
0.839819 0.0547999 0
0.849428 0.0521581 0
0.859017 0.0494427 0
0.868584 0.0466538 0
0.87813 0.0437917 0
0.887653 0.0408565 0
0.897154 0.0378484 0
0.906631 0.0347675 0
0.916085 0.0316141 0
0.925514 0.0283883 0
0.934918 0.0250903 0
0.944297 0.0217203 0
0.953649 0.0182786 0
0.962975 0.0147652 0
0.972273 0.0111804 0
0.981544 0.00752451 0
0.990786 0.00379763 0
-1 0.90583 0.1
-1 0.819642 0.1
-1 0.740758 0.1
-1 0.66856 0.1
-1 0.602481 0.1
-1 0.542002 0.1
-1 0.486649 0.1
-1 0.435987 0.1
-1 0.389619 0.1
-1 0.347181 0.1
-1 0.308339 0.1
-1 0.27279 0.1
-1 0.240253 0.1
-1 0.210474 0.1
-1 0.183219 0.1
-1 0.158274 0.1
-1 0.135442 0.1
-1 0.114546 0.1
-1 0.0954213 0.1
-1 0.0779171 0.1
-1 0.0618965 0.1
-1 0.0472336 0.1
-1 0.0338135 0.1
-1 0.0215307 0.1
-1 0.010289 0.1
-0.99 0 0.1
-0.98 0 0.1
-0.97 0 0.1
-0.96 0 0.1
-0.95 0 0.1
-0.94 0 0.1
-0.93 0 0.1
-0.92 0 0.1
-0.91 0 0.1
-0.9 0 0.1
-0.89 0 0.1
-0.88 0 0.1
-0.87 0 0.1
-0.86 0 0.1
-0.85 0 0.1
-0.84 0 0.1
-0.83 0 0.1
-0.82 0 0.1
-0.81 0 0.1
-0.8 0 0.1
-0.79 0 0.1
-0.78 0 0.1
-0.77 0 0.1
-0.76 0 0.1
-0.75 0 0.1
-0.74 0 0.1
-0.73 0 0.1
-0.72 0 0.1
-0.71 0 0.1
-0.7 0 0.1
-0.69 0 0.1
-0.68 0 0.1
-0.67 0 0.1
-0.66 0 0.1
-0.65 0 0.1
-0.64 0 0.1
-0.63 0 0.1
-0.62 0 0.1
-0.61 0 0.1
-0.6 0 0.1
-0.59 0 0.1
-0.58 0 0.1
-0.57 0 0.1
-0.56 0 0.1
-0.55 0 0.1
-0.54 0 0.1
-0.53 0 0.1
-0.52 0 0.1
-0.51 0 0.1
-0.5 0 0.1
-0.49 0 0.1
-0.48 0 0.1
-0.47 0 0.1
-0.46 0 0.1
-0.45 0 0.1
-0.44 0 0.1
-0.43 0 0.1
-0.42 0 0.1
-0.41 0 0.1
-0.4 0 0.1
-0.39 0 0.1
-0.38 0 0.1
-0.37 0 0.1
-0.36 0 0.1
-0.35 0 0.1
-0.34 0 0.1
-0.33 0 0.1
-0.32 0 0.1
-0.31 0 0.1
-0.3 0 0.1
-0.29 0 0.1
-0.28 0 0.1
-0.27 0 0.1
-0.26 0 0.1
-0.25 0 0.1
-0.24 0 0.1
-0.23 0 0.1
-0.22 0 0.1
-0.21 0 0.1
-0.2 0 0.1
-0.19 0 0.1
-0.18 0 0.1
-0.17 0 0.1
-0.16 0 0.1
-0.15 0 0.1
-0.14 0 0.1
-0.13 0 0.1
-0.12 0 0.1
-0.11 0 0.1
-0.1 0 0.1
-0.09 0 0.1
-0.08 0 0.1
-0.07 0 0.1
-0.06 0 0.1
-0.05 0 0.1
-0.04 0 0.1
-0.03 0 0.1
-0.02 0 0.1
-0.01 0 0.1
0.00921362 0.00379763 0.1
0.0184561 0.00752451 0.1
0.0277268 0.0111804 0.1
0.0370253 0.0147652 0.1
0.0463511 0.0182786 0.1
0.0557034 0.0217203 0.1
0.0650819 0.0250903 0.1
0.074486 0.0283883 0.1
0.083915 0.0316141 0.1
0.0933685 0.0347675 0.1
0.102846 0.0378484 0.1
0.112347 0.0408565 0.1
0.12187 0.0437917 0.1
0.131416 0.0466538 0.1
0.140983 0.0494427 0.1
0.150572 0.0521581 0.1
0.160181 0.0547999 0.1
0.16981 0.0573681 0.1
0.179458 0.0598623 0.1
0.189125 0.0622825 0.1
0.198811 0.0646285 0.1
0.208514 0.0669001 0.1
0.218234 0.0690974 0.1
0.227971 0.07122 0.1
0.237724 0.073268 0.1
0.247493 0.0752411 0.1
0.257276 0.0771393 0.1
0.267073 0.0789625 0.1
0.276884 0.0807105 0.1
0.286708 0.0823832 0.1
0.296545 0.0839806 0.1
0.306394 0.0855025 0.1
0.316254 0.0869488 0.1
0.326125 0.0883196 0.1
0.336006 0.0896146 0.1
0.345896 0.0908339 0.1
0.355796 0.0919773 0.1
0.365704 0.0930447 0.1
0.375621 0.0940362 0.1
0.385544 0.0949517 0.1
0.395474 0.095791 0.1
0.40541 0.0965542 0.1
0.415352 0.0972412 0.1
0.425299 0.097852 0.1
0.43525 0.0983865 0.1
0.445205 0.0988447 0.1
0.455164 0.0992266 0.1
0.465125 0.0995321 0.1
0.475088 0.0997613 0.1
0.485052 0.0999141 0.1
0.495017 0.0999904 0.1
0.504983 0.0999904 0.1
0.514948 0.0999141 0.1
0.524912 0.0997613 0.1
0.534875 0.0995321 0.1
0.544836 0.0992266 0.1
0.554795 0.0988447 0.1
0.56475 0.0983865 0.1
0.574701 0.097852 0.1
0.584648 0.0972412 0.1
0.59459 0.0965542 0.1
0.604526 0.095791 0.1
0.614456 0.0949517 0.1
0.624379 0.0940362 0.1
0.634296 0.0930447 0.1
0.644204 0.0919773 0.1
0.654104 0.0908339 0.1
0.663994 0.0896146 0.1
0.673875 0.0883196 0.1
0.683746 0.0869488 0.1
0.693606 0.0855025 0.1
0.703455 0.0839806 0.1
0.713292 0.0823832 0.1
0.723116 0.0807105 0.1
0.732927 0.0789625 0.1
0.742724 0.0771393 0.1
0.752508 0.0752411 0.1
0.762276 0.073268 0.1
0.772029 0.07122 0.1
0.781766 0.0690974 0.1
0.791486 0.0669001 0.1
0.801189 0.0646285 0.1
0.810875 0.0622825 0.1
0.820542 0.0598623 0.1
0.83019 0.0573681 0.1
0.839819 0.0547999 0.1
0.849428 0.0521581 0.1
0.859017 0.0494427 0.1
0.868584 0.0466538 0.1
0.87813 0.0437917 0.1
0.887653 0.0408565 0.1
0.897154 0.0378484 0.1
0.906631 0.0347675 0.1
0.916085 0.0316141 0.1
0.925514 0.0283883 0.1
0.934918 0.0250903 0.1
0.944297 0.0217203 0.1
0.953649 0.0182786 0.1
0.962975 0.0147652 0.1
0.972273 0.0111804 0.1
0.981544 0.00752451 0.1
0.990786 0.00379763 0.1
1.01 0 0.1
1.02 0 0.1
1.03 0 0.1
1.04 0 0.1
1.05 0 0.1
1.06 0 0.1
1.07 0 0.1
1.08 0 0.1
1.09 0 0.1
1.1 0 0.1
1.11 0 0.1
1.12 0 0.1
1.13 0 0.1
1.14 0 0.1
1.15 0 0.1
1.16 0 0.1
1.17 0 0.1
1.18 0 0.1
1.19 0 0.1
1.2 0 0.1
1.21 0 0.1
1.22 0 0.1
1.23 0 0.1
1.24 0 0.1
1.25 0 0.1
1.26 0 0.1
1.27 0 0.1
1.28 0 0.1
1.29 0 0.1
1.3 0 0.1
1.31 0 0.1
1.32 0 0.1
1.33 0 0.1
1.34 0 0.1
1.35 0 0.1
1.36 0 0.1
1.37 0 0.1
1.38 0 0.1
1.39 0 0.1
1.4 0 0.1
1.41 0 0.1
1.42 0 0.1
1.43 0 0.1
1.44 0 0.1
1.45 0 0.1
1.46 0 0.1
1.47 0 0.1
1.48 0 0.1
1.49 0 0.1
1.5 0 0.1
1.51 0 0.1
1.52 0 0.1
1.53 0 0.1
1.54 0 0.1
1.55 0 0.1
1.56 0 0.1
1.57 0 0.1
1.58 0 0.1
1.59 0 0.1
1.6 0 0.1
1.61 0 0.1
1.62 0 0.1
1.63 0 0.1
1.64 0 0.1
1.65 0 0.1
1.66 0 0.1
1.67 0 0.1
1.68 0 0.1
1.69 0 0.1
1.7 0 0.1
1.71 0 0.1
1.72 0 0.1
1.73 0 0.1
1.74 0 0.1
1.75 0 0.1
1.76 0 0.1
1.77 0 0.1
1.78 0 0.1
1.79 0 0.1
1.8 0 0.1
1.81 0 0.1
1.82 0 0.1
1.83 0 0.1
1.84 0 0.1
1.85 0 0.1
1.86 0 0.1
1.87 0 0.1
1.88 0 0.1
[...]
CELL_DATA 7425
SCALARS rho float
LOOKUP_TABLE default
0.746252
0.808273
0.894662
0.884848
0.806543
0.890154
0.867019
0.912596
0.925113
0.812967
0.880485
0.809785
0.914636
0.884733
0.808444
0.899921
0.80376
0.921273
0.807361
0.78738
0.885008
0.813025
0.80564
0.886327
0.807457
0.794779
0.88326
0.828036
0.803284
0.809392
0.867096
0.764134
0.807507
0.774599
0.73431
0.886336
0.806538
0.912987
0.810119
0.879332
0.801291
0.776818
0.840498
0.743254
0.751597
0.780808
0.858925
0.915057
0.764378
0.755749
0.769778
0.808058
0.80613
0.805082
0.75121
0.735222
0.89016
0.804269
0.813335
0.793805
0.791252
0.808272
0.921601
0.805157
0.802358
0.89823
0.745454
0.831539
0.735598
0.809427
0.808542
0.80512
0.890977
0.81259
0.804242
0.924848
0.808203
0.803529
0.921224
0.775739
0.903742
0.808137
0.915122
0.792521
0.868806
0.8076
0.73878
0.87803
0.73883
0.88263
0.746524
0.808052
0.826043
0.806844
0.898681
0.826392
0.82082
0.796587
0.887853
0.808089
0.889735
0.765784
0.806347
0.880206
0.748148
0.809992
0.882725
0.797435
0.90794
0.805888
0.899073
0.790037
0.792997
0.809145
0.840621
0.795978
0.882862
0.804798
0.744451
0.755405
0.807909
0.83351
0.925638
0.796385
0.886387
0.823577
0.808883
0.85015
0.774817
0.728412
0.908321
0.77472
0.73277
0.840322
0.763152
0.80667
0.805666
0.805127
0.740949
0.78064
0.805097
0.80993
0.918028
0.749322
0.808313
0.787301
0.734993
0.856647
0.789092
0.886644
0.862785
0.747687
0.808241
0.768451
0.748086
0.806264
0.809916
0.885417
0.84658
0.77503
0.807382
0.743814
0.807628
0.885607
0.89267
0.804844
0.92396
0.837479
0.805988
0.807468
0.894356
0.808518
0.86042
0.805773
0.804169
0.787121
0.808391
0.826822
0.755983
0.742795
0.806379
0.849207
0.889443
0.878102
0.746151
0.890172
0.804467
0.817502
0.806464
0.91824
0.928682
0.806914
0.806035
0.747852
0.907543
0.89088
0.788596
0.853189
0.835333
0.809062
0.810523
0.923605
0.754071
0.823554
0.737082
0.737127
0.746969
0.759745
0.817385
0.889961
0.808633
0.802178
0.86836
0.926589
0.898531
0.892288
0.906517
0.761351
0.749267
0.916112
0.739887
0.754267
0.74676
0.899149
0.910626
0.924881
0.882657
0.929549
0.838444
0.751759
0.82012
0.793115
0.804806
0.807544
0.805649
0.801189
0.77854
0.753899
0.748759
0.887696
0.845026
0.896281
0.808786
0.860816
0.810468
0.780528
0.891696
0.807319
0.88585
0.799355
0.920233
0.757036
0.928859
0.889289
0.789264
0.73037
0.804897
0.764234
0.823601
0.90887
0.765076
0.904304
0.90872
0.873673
0.911879
0.808178
0.806691
0.887812
0.886929
0.808779
0.753581
0.882329
0.810776
0.808428
0.885442
0.8716
0.920205
0.886578
0.797634
0.907558
0.839836
0.873232
0.816983
0.883876
0.807438
0.899956
0.80508
0.776932
0.79446
0.740794
0.744335
0.867086
0.925401
0.903699
0.832699
0.79184
0.76605
0.886923
0.735659
0.832321
0.807539
0.766922
0.735853
0.762002
0.907045
0.921489
0.926559
0.913935
0.887111
0.784448
0.808791
0.805477
0.929714
0.883528
0.839941
0.88223
0.807843
0.744967
0.846516
0.867893
0.790126
0.804532
0.805175
0.885365
0.900243
0.743671
0.918186
0.789581
0.831253
0.809847
0.914865
0.903788
0.807038
0.796313
0.774409
0.762235
0.752522
0.846991
0.885908
0.907924
0.916421
0.849756
0.833131
0.806638
0.845895
0.813783
0.813603
0.801655
0.892849
0.803367
0.808465
0.80749
0.805227
0.919624
0.904656
0.901763
0.768925
0.818226
0.772746
0.803363
0.769646
0.864948
0.805162
0.821731
0.805402
0.807706
0.890428
0.899845
0.804829
0.804895
0.804344
0.784073
0.81304
0.923912
0.919689
0.803104
0.773254
0.733406
0.807809
0.92208
0.806548
0.928774
0.795936
0.736536
0.82586
0.918828
0.807329
0.838329
0.921148
0.808676
0.808319
0.902765
0.808504
0.889864
0.790565
0.855098
0.808979
0.736585
0.808235
0.762713
0.867426
0.762894
0.905445
0.892446
0.758066
0.812665
0.819069
0.806565
0.885416
0.738851
0.888335
0.890829
0.806509
0.887682
0.810258
0.889531
0.885187
0.886239
0.787607
0.886587
0.777924
0.810147
0.79959
0.844179
0.823288
0.808604
0.803413
0.891997
0.821724
0.80869
0.751059
0.755568
0.788133
0.920592
0.881542
0.88813
0.879054
0.804668
0.928388
0.808709
0.880046
0.784373
0.807308
0.780121
0.85936
0.901727
0.808581
0.753146
0.807658
0.73402
0.748713
0.807667
0.750956
0.852938
0.779668
0.791029
0.764327
0.825648
0.830292
0.914701
0.908308
0.894546
0.923386
0.798149
0.761156
0.881334
0.886369
0.793443
0.810106
0.807817
0.883957
0.789505
0.885501
0.778695
0.791155
0.82928
0.901081
0.73824
0.804743
0.883622
0.811161
0.915651
0.911946
0.806335
0.847192
0.870613
0.806344
0.883818
0.769212
0.749527
0.804257
0.846002
0.890093
0.798171
0.884163
0.807467
0.901535
0.803861
0.7918
0.809594
0.744328
0.78243
0.760328
0.91273
0.848159
0.885089
0.818556
0.808788
0.909022
0.892526
0.80555
0.805792
0.870481
0.811793
0.806282
0.784401
0.917078
0.890068
0.822026
0.922458
0.888034
0.879549
0.880445
0.81684
0.748193
0.867655
0.808904
0.869765
0.912058
0.814796
0.917984
0.915431
0.756829
0.8085
0.876057
0.929256
0.841897
0.852856
0.808633
0.835313
0.804781
0.929311
0.90903
0.890126
0.746457
0.91776
0.825432
0.891474
0.731186
0.901754
0.818141
0.800601
0.806841
0.84491
0.888185
0.861709
0.885004
0.811155
0.756728
0.806264
0.808012
0.789031
0.875001
0.778638
0.801262
0.912481
0.922493
0.835412
0.800302
0.872734
0.884003
0.851188
0.815704
0.825168
0.806764
0.810371
0.809222
0.808349
0.890476
0.805291
0.880998
0.781916
0.803434
0.807646
0.861809
0.805494
0.928008
0.896989
0.820624
0.917056
0.87347
0.817593
0.886803
0.807392
0.805963
0.873408
0.781569
0.816582
0.881443
0.806792
0.729981
0.924781
0.886326
0.874269
0.900772
0.804889
0.80317
0.87918
0.787571
0.805279
0.807543
0.927712
0.790929
0.808193
0.817795
0.809357
0.799805
0.865622
0.883554
0.808054
0.871146
0.803408
0.888954
0.915394
0.807961
0.868928
0.924639
0.786556
0.8961
0.807983
0.915361
0.902876
0.805649
0.880567
0.804003
0.805579
0.902613
0.805833
0.807639
0.789941
0.770228
0.896257
0.928286
0.823297
0.858193
0.888216
0.809583
0.890775
0.809035
0.88764
0.886795
0.885169
0.753851
0.797072
0.883462
0.899446
0.880316
0.905585
0.879859
0.809342
0.855932
0.805398
0.880944
0.886626
0.884712
0.809736
0.913226
0.886197
0.769683
0.812942
0.785227
0.803991
0.810762
0.903046
0.885224
0.812927
0.836181
0.909894
0.920525
0.906106
0.906696
0.87514
0.809833
0.803622
0.808527
0.813344
0.924155
0.7846
0.877551
0.8112
0.762189
0.790671
0.810555
0.804837
0.894393
0.808135
0.906716
0.899431
0.808623
0.892875
0.807134
0.808818
0.75712
0.88414
0.886973
0.88716
0.812023
0.806076
0.793801
0.808717
0.904403
0.9099
0.80768
0.916122
0.793275
0.80924
0.910572
0.892071
0.810626
0.921299
0.902791
0.737982
0.837155
0.829102
0.922479
0.808787
0.807689
0.757307
0.808806
0.808163
0.798393
0.819739
0.899314
0.807974
0.809404
0.803455
0.896808
0.862715
0.920758
0.928988
0.797208
0.87636
0.802108
0.809286
0.824184
0.813088
0.900897
0.806529
0.7735
0.882295
0.848774
0.890662
0.796124
0.808654
0.892653
0.773954
0.883568
0.772638
0.890119
0.796094
0.883705
0.879105
0.887641
0.795309
0.806562
0.893035
0.819263
0.820779
0.880484
0.894255
0.9008
0.86622
0.804155
0.809436
0.792597
0.813704
0.803178
0.755917
0.875684
0.741138
0.80724
0.835912
0.808572
0.777644
0.799001
0.913194
0.747622
0.791185
0.893425
0.871731
0.900168
0.751397
0.789846
0.806805
0.807739
0.928047
0.807235
0.811832
0.910536
0.904692
0.927289
0.832572
0.806559
0.808303
0.808099
0.734372
0.928806
0.819094
0.750238
0.90698
0.903252
0.909039
0.89701
0.909743
0.887716
0.806288
0.800406
0.784273
0.814558
0.81736
0.815444
0.81972
0.791409
0.911667
0.799981
0.783223
0.809803
0.892393
0.919422
0.803733
0.833499
0.927717
0.876301
0.914739
0.900644
0.906599
0.883761
0.910414
0.925302
0.809607
0.914869
0.807374
0.891048
0.807978
0.890373
0.918501
0.749172
0.918004
0.884228
0.834083
0.820286
0.729973
0.900472
0.852635
0.727179
0.781723
0.77183
0.876588
0.85475
0.809116
0.921567
0.804408
0.900945
0.81028
0.734837
0.788507
0.812582
0.808603
0.903724
0.807234
0.809762
0.921492
0.888267
0.803634
0.787711
0.832591
0.804527
0.810777
0.914071
0.823357
0.729018
0.884441
0.811173
0.768472
0.803478
0.808631
0.756038
0.81405
0.90446
0.88655
0.896125
0.816982
0.808132
0.790003
0.765452
0.735492
0.888064
0.809613
0.789153
0.925022
0.84021
0.89805
0.885814
0.825621
0.891678
0.909519
0.886126
0.894503
0.909253
0.91765
0.804697
0.809905
0.790177
0.886221
0.804966
0.810124
0.806185
0.792869
0.885333
0.889571
0.868612
0.89166
0.777229
0.78312
0.808183
0.892535
0.805286
0.807809
0.803811
0.837225
0.907294
0.790875
0.814663
0.774718
0.911597
0.804461
0.765862
0.858554
0.87976
0.813831
0.799171
0.822382
0.848454
0.803231
0.929395
0.826107
0.807324
0.911542
0.807241
0.744469
0.814
0.846245
0.879862
0.910037
0.882377
0.788766
0.808782
0.82501
0.817449
0.811201
0.883934
0.736679
0.793304
0.928051
0.815894
0.890968
0.830571
0.929102
0.806204
0.858204
0.819814
0.799961
0.827527
0.906043
0.804733
0.759185
0.787151
0.802494
0.829258
0.91108
0.886086
0.735233
0.813751
0.790399
0.886216
0.803745
0.812736
0.807403
0.839582
0.804173
0.880689
0.866264
0.814357
0.896731
0.749221
0.833779
0.88799
0.80798
0.92293
0.806663
0.748901
0.843182
0.808392
0.810397
0.814171
0.873646
0.884865
0.918476
0.806327
0.808589
0.807888
0.793684
0.753785
0.873785
0.809152
0.775897
0.884455
0.803412
0.78707
0.8066
0.821019
0.793223
0.928221
0.811516
0.858759
0.900546
0.87414
0.857288
0.919374
0.857026
0.79865
0.793247
0.763101
0.885778
0.888573
0.854642
0.822966
0.881625
0.88066
0.790173
0.881032
0.88437
0.875163
0.930087
0.869906
0.809912
0.900893
0.809051
0.808955
0.729948
0.926155
0.787011
0.920529
0.807229
0.807127
0.748278
0.920035
0.752124
0.815739
0.808069
0.858102
0.88539
0.807296
0.800291
0.892513
0.911621
0.808879
0.787116
0.731666
0.890838
0.80521
0.818441
0.886721
0.882993
0.808649
0.874243
0.803646
0.732614
0.894464
0.859917
0.90491
0.806882
0.75148
0.80404
0.806826
0.907535
0.810255
0.765783
0.8907
0.800684
0.883675
0.916439
0.884335
0.882757
0.860919
0.808051
0.914136
0.874815
0.812885
0.884168
0.913437
0.737455
0.808029
0.774311
0.884816
0.825822
0.806968
0.807121
0.805447
0.805582
0.911492
0.929139
0.831727
0.808924
0.804417
0.803148
0.806323
0.929043
0.900744
0.804399
0.929434
0.8844
0.804389
0.837775
0.804322
0.823698
0.800172
0.916693
0.912388
0.754267
0.800844
0.804652
0.885238
0.808031
0.730934
0.833533
0.910399
0.820382
0.808288
0.806426
0.804021
0.843169
0.742393
0.804603
0.903243
0.818724
0.893259
0.927147
0.873847
0.789135
0.79969
0.832063
0.794969
0.805665
0.79854
0.772705
0.807195
0.805479
0.913204
0.869764
0.829068
0.739136
0.883766
0.930231
0.812329
0.807955
0.812901
0.928555
0.898524
0.845963
0.840134
0.805714
0.825857
0.879531
0.804969
0.803064
0.883707
0.774013
0.765332
0.807095
0.807938
0.737447
0.76992
0.80265
0.887864
0.925049
0.890472
0.779658
0.865655
0.922643
0.887413
0.883139
0.809357
0.930274
0.821632
0.808423
0.902288
0.928794
0.781394
0.740078
0.930329
0.767332
0.804285
0.736175
0.882634
0.806675
0.73801
0.747677
0.863831
0.904708
0.896848
0.769403
0.910825
0.84022
0.80784
0.791027
0.814499
0.880584
0.795166
0.887636
0.874191
0.747582
0.897447
0.828674
0.89962
0.745257
0.890165
0.845311
0.912428
0.807118
0.77448
0.871236
0.851721
0.809091
0.728134
0.900481
0.806632
0.831069
0.751755
0.899924
0.756203
0.796232
0.807604
0.848084
0.807105
0.801909
0.75564
0.733226
0.756771
0.807199
0.735509
0.890518
0.741571
0.823035
0.782881
0.759826
0.740932
0.8162
0.80486
0.755845
0.892071
0.805754
0.808243
0.825144
0.896607
0.805615
0.887573
0.807653
0.928893
0.796303
0.809407
0.811873
0.891259
0.895238
0.876157
0.817926
0.889
0.830304
0.889013
0.807894
0.823885
0.884568
0.834566
0.802703
0.808639
0.82315
0.816283
0.765934
0.808061
0.805028
0.892218
0.882914
0.751059
0.809462
0.738408
0.777372
0.763558
0.813492
0.891531
0.908809
0.806958
0.752986
0.884915
0.80429
0.804285
0.887549
0.929791
0.792666
0.929448
0.804265
0.898002
0.804236
0.801843
0.808386
0.776143
0.804197
0.866178
0.803977
0.761899
0.863071
0.854655
0.769477
0.813105
0.73894
0.740046
0.806308
0.791249
0.806436
0.73902
0.805858
0.916539
0.749724
0.790028
0.755476
0.853215
0.779112
0.825224
0.809023
0.90362
0.775232
0.804524
0.898879
0.798586
0.901032
0.754715
0.790415
0.876966
0.927399
0.911631
0.878328
0.92146
0.805022
0.805676
0.806988
0.800569
0.755511
0.755814
0.833348
0.741807
0.759773
0.909144
0.907557
0.808955
0.80618
0.744475
0.90592
0.806903
0.740214
0.740469
0.817476
0.806542
0.871658
0.736712
0.797699
0.742715
0.796646
0.752982
0.806186
0.808047
0.74974
0.75176
0.887563
0.81
0.827383
0.802482
0.765466
0.770347
0.752302
0.898571
0.824013
0.781142
0.759035
0.821483
0.903305
0.904952
0.928051
0.905713
0.838142
0.82223
0.894057
0.803967
0.880566
0.930035
0.805661
0.9218
0.75989
0.893579
0.895079
0.898308
0.89707
0.897347
0.806394
0.895116
0.898898
0.900962
0.895776
0.803138
0.896514
0.895385
0.777236
0.895818
0.88868
0.896371
0.799228
0.76665
0.885882
0.89613
0.888324
0.806192
0.92793
0.776069
0.884915
0.75074
0.802848
0.808147
0.904715
0.806784
0.806906
0.884775
0.80185
0.808792
0.906626
0.835393
0.883591
0.881104
0.874792
0.774982
0.763058
0.904175
0.897671
0.857172
0.884323
0.879285
0.810459
0.895836
0.835413
0.908419
0.896089
0.909483
0.895975
0.81131
0.904201
0.884318
0.903724
0.899366
0.898909
0.896975
0.796385
0.897736
0.808458
0.808276
0.80862
0.896523
0.926659
0.842105
0.774635
0.91811
0.808232
0.908568
0.808502
0.879439
0.808366
0.907299
0.925161
0.808749
0.733293
0.807914
0.925959
0.811995
0.809461
0.92663
0.918247
0.923616
0.809173
0.882309
0.730804
0.92721
0.879934
0.924324
0.807459
0.809426
0.907946
0.883395
0.807241
0.807706
0.853173
0.738983
0.927753
0.809564
0.809296
0.920378
0.924525
0.923095
0.919809
0.733253
0.805147
0.783512
0.893862
0.886139
0.764371
0.759499
0.906197
0.800781
0.813336
0.76639
0.8066
0.920191
0.766871
0.806695
0.80834
0.812199
0.849801
0.885656
0.808778
0.750477
0.806759
0.785249
0.807407
0.896087
0.853577
0.809147
0.81335
0.863429
0.919406
0.890739
0.880804
0.762569
0.859506
0.77112
0.915451
0.916062
0.752832
0.91678
0.873046
0.752892
0.881858
0.768207
0.886735
0.78995
0.911801
0.927608
0.917515
0.780396
0.916774
0.759103
0.805298
0.796788
0.888702
0.907171
0.770714
0.78076
0.885391
0.919411
0.858138
0.891147
0.918946
0.88793
0.805262
0.735238
0.777157
0.789921
0.764189
0.883762
0.815235
0.8179
0.84258
0.805509
0.925243
0.927371
0.926992
0.792506
0.738924
0.806022
0.739552
0.858561
0.816126
0.806297
0.806757
0.811225
0.805375
0.839945
0.773459
0.919414
0.881635
0.867214
0.804522
0.7687
0.804447
0.79732
0.864551
0.734686
0.800811
0.889622
0.804369
0.756591
0.922705
0.879207
0.832793
0.737811
0.808978
0.8062
0.917226
0.76278
0.922995
0.806251
0.806926
0.805744
0.921817
0.920679
0.899637
0.924893
0.756918
0.808268
0.806167
0.926289
0.89878
0.922391
0.832602
0.822245
0.802388
0.805493
0.748928
0.927165
0.806159
0.816789
0.799668
0.888255
0.871126
0.830238
0.807201
0.891747
0.792007
0.738872
0.821381
0.854358
0.885016
0.809613
0.913181
0.737714
0.879692
0.833857
0.832574
0.781091
0.765725
0.810893
0.826911
0.926644
0.811157
0.926615
0.807317
0.759991
0.80635
0.804391
0.779706
0.887029
0.889986
0.879312
0.901547
0.927007
0.743244
0.808566
0.927109
0.806692
0.831626
0.810306
0.804935
0.918558
0.886971
0.801109
0.808432
0.806475
0.87838
0.881803
0.808109
0.80353
0.807831
0.782124
0.893974
0.741591
0.88338
0.807812
0.733861
0.80833
0.85194
0.813845
0.758268
0.752606
0.807702
0.808355
0.807351
0.880237
0.78747
0.885349
0.805795
0.838545
0.807948
0.807934
0.86426
0.887471
0.814164
0.890073
0.891448
0.883246
0.808036
0.877199
0.897561
0.770487
0.808118
0.806063
0.806381
0.892083
0.887443
0.808511
0.80744
0.806374
0.890311
0.808301
0.807799
0.806057
0.888643
0.807825
0.806633
0.807929
0.883955
0.807499
0.807678
0.816174
0.804565
0.906194
0.769661
0.887232
0.878962
0.808696
0.894742
0.807476
0.885948
0.883499
0.806787
0.890942
0.805341
0.809246
0.794152
0.806721
0.808327
0.808413
0.808911
0.808621
0.894559
0.909267
0.809861
0.884859
0.808055
0.805587
0.806181
0.792376
0.881338
0.807441
0.894989
0.906853
0.809167
0.808739
0.804848
0.880301
0.838286
0.805927
0.783012
0.806047
0.883397
0.901078
0.80869
0.808006
0.813252
0.879634
0.761311
0.818277
0.852632
0.829018
0.895011
0.810211
0.810894
0.80959
0.807863
0.810614
0.809386
0.745045
0.883842
0.795555
0.91276
0.884966
0.895213
0.826215
0.809549
0.911017
0.895523
0.800088
0.775085
0.809933
0.887083
0.850145
0.805453
0.837068
0.886216
0.803768
0.889748
0.850856
0.899113
0.892921
0.807958
0.8085
0.923446
0.903601
0.80832
0.917525
0.812702
0.892513
0.810073
0.808264
0.807195
0.875838
0.80802
0.823338
0.809658
0.808481
0.810959
0.901882
0.871928
0.913216
0.882957
0.818798
0.811706
0.792481
0.757692
0.922532
0.89844
0.808338
0.917824
0.738181
0.87778
0.804688
0.808128
0.905882
0.915024
0.808092
0.919196
0.806756
0.806826
0.809531
0.865939
0.82466
0.83779
0.889328
0.824166
0.819754
0.806803
0.870816
0.806742
0.807539
0.808888
0.805585
0.805309
0.805939
0.852392
0.80046
0.808167
0.883708
0.819543
0.783498
0.740019
0.803431
0.787422
0.806431
0.754528
0.808345
0.809157
0.808287
0.897476
0.820743
0.914518
0.92597
0.809562
0.804719
0.893275
0.90278
0.808568
0.789969
0.757803
0.809342
0.809116
0.789499
0.910758
0.915134
0.798349
0.802267
0.808082
0.76208
0.866988
0.807077
0.846253
0.79373
0.879595
0.809007
0.808191
0.808059
0.804816
0.809892
0.736852
0.807267
0.883594
0.914748
0.799702
0.753217
0.811532
0.91317
0.928879
0.884063
0.914296
0.808332
0.891364
0.802009
0.742943
0.809424
0.81253
0.797597
0.917195
0.770397
0.908422
0.827336
0.816209
0.775756
0.89589
0.794751
0.83997
0.797655
0.789649
0.809639
0.829506
0.809526
0.807606
0.918057
0.905801
0.794558
0.79605
0.911375
0.809639
0.818291
0.884907
0.819124
0.868776
0.798753
0.925638
0.885535
0.877131
0.813214
0.920308
0.750221
0.799358
0.881049
0.862859
0.888025
0.928242
0.813245
0.734611
0.909189
0.80682
0.916671
0.811979
0.880208
0.923657
0.808506
0.891428
0.790638
0.8106
0.919643
0.903067
0.805316
0.912022
0.77077
0.802585
0.884166
0.818588
0.810357
0.89209
0.919908
0.808564
0.767168
0.893252
0.807204
0.883522
0.894381
0.810737
0.873708
0.855096
0.894836
0.894971
0.809775
0.894917
0.816263
0.83142
0.895326
0.811565
0.924124
0.925164
0.897178
0.895624
0.925948
0.89688
0.88053
0.895765
0.806898
0.815402
0.877521
0.812405
0.811253
0.806865
0.806761
0.925304
0.895728
0.817045
0.926646
0.896358
0.806866
0.898508
0.927228
0.923485
0.805264
0.909861
0.918882
0.800956
0.927776
0.88136
0.798781
0.900724
0.814767
0.741533
0.910832
0.896345
0.884182
0.898155
0.889502
0.877207
0.902326
0.896092
0.793629
0.925409
0.80689
0.905212
0.813606
0.819127
0.89163
0.854738
0.885728
0.888312
0.921665
0.811066
0.813918
0.880969
0.923415
0.905221
0.81322
0.884696
0.921444
0.90472
0.805592
0.928071
0.92312
0.739106
0.766531
0.808435
0.892011
0.807788
0.884252
0.90415
0.822427
0.796893
0.915966
0.778693
0.870486
0.903422
0.922856
0.873912
0.916589
0.808511
0.927635
0.869841
0.822071
0.920502
0.802479
0.809081
0.901476
0.805412
0.805119
0.906647
0.882387
0.924345
0.920202
0.881649
0.867327
0.869682
0.75229
0.883658
0.913763
0.90145
0.899413
0.82885
0.898505
0.802121
0.805635
0.81796
0.806954
0.805532
0.808797
0.817565
0.919828
0.908646
0.805964
0.907437
0.816209
0.918269
0.908408
0.805325
0.895557
0.927383
0.815674
0.80833
0.87496
0.896623
0.745817
0.895593
0.909418
0.928121
0.770876
0.756766
0.746023
0.814602
0.74288
0.831665
0.806695
0.823484
0.920375
0.794703
0.857921
0.898494
0.815509
0.809263
0.897229
0.795697
0.897602
0.904202
0.904174
0.927016
0.904279
0.807399
0.811997
0.821923
0.889171
0.898612
0.803605
0.811603
0.807869
0.90372
0.915866
0.830858
0.895999
0.734175
0.89555
0.895934
0.896518
0.790634
0.811654
0.808189
0.812609
0.827016
0.748756
0.80989
0.805964
0.905981
0.897702
0.896883
0.922616
0.896493
0.897561
0.900786
0.805975
0.899235
0.88408
0.907196
0.794214
0.911724
0.758732
0.755801
0.925251
0.899793
0.807845
0.890907
0.764358
0.804424
0.803663
0.893867
0.73675
0.898899
0.806173
0.906184
0.838317
0.79381
0.891276
0.89797
0.815333
0.913716
0.788675
0.805951
0.916108
0.901387
0.816275
0.902329
0.816337
0.918112
0.840031
0.756613
0.741967
0.829289
0.804902
0.73837
0.827896
0.79391
0.818247