# vtk DataFile Version 1.0
unstructured grid
ascii
DATASET UNSTRUCTURED_GRID
points 7812 float
-1 0 0
-1 1 0
2 0 0
2 1 0
0 0 0
1 0 0
-1 1 0.1
-1 0 0.1
0 0 0.1
1 0 0.1
2 0 0.1
2 1 0.1
-0.99 0 0
-0.98 0 0
-0.97 0 0
-0.96 0 0
-0.95 0 0
-0.94 0 0
-0.93 0 0
-0.92 0 0
-0.91 0 0
-0.9 0 0
-0.89 0 0
-0.88 0 0
-0.87 0 0
-0.86 0 0
-0.85 0 0
-0.84 0 0
-0.83 0 0
-0.82 0 0
-0.81 0 0
-0.8 0 0
-0.79 0 0
-0.78 0 0
-0.77 0 0
-0.76 0 0
-0.75 0 0
-0.74 0 0
-0.73 0 0
-0.72 0 0
-0.71 0 0
-0.7 0 0
-0.69 0 0
-0.68 0 0
-0.67 0 0
-0.66 0 0
-0.65 0 0
-0.64 0 0
-0.63 0 0
-0.62 0 0
-0.61 0 0
-0.6 0 0
-0.59 0 0
-0.58 0 0
-0.57 0 0
-0.56 0 0
-0.55 0 0
-0.54 0 0
-0.53 0 0
-0.52 0 0
-0.51 0 0
-0.5 0 0
-0.49 0 0
-0.48 0 0
-0.47 0 0
-0.46 0 0
-0.45 0 0
-0.44 0 0
-0.43 0 0
-0.42 0 0
-0.41 0 0
-0.4 0 0
-0.39 0 0
-0.38 0 0
-0.37 0 0
-0.36 0 0
-0.35 0 0
-0.34 0 0
-0.33 0 0
-0.32 0 0
-0.31 0 0
-0.3 0 0
-0.29 0 0
-0.28 0 0
-0.27 0 0
-0.26 0 0
-0.25 0 0
-0.24 0 0
-0.23 0 0
-0.22 0 0
-0.21 0 0
-0.2 0 0
-0.19 0 0
-0.18 0 0
-0.17 0 0
-0.16 0 0
-0.15 0 0
-0.14 0 0
-0.13 0 0
-0.12 0 0
-0.11 0 0
-0.1 0 0
-0.09 0 0
-0.08 0 0
-0.07 0 0
-0.06 0 0
-0.05 0 0
-0.04 0 0
-0.03 0 0
-0.02 0 0
-0.01 0 0
1.01 0 0
1.02 0 0
1.03 0 0
1.04 0 0
1.05 0 0
1.06 0 0
1.07 0 0
1.08 0 0
1.09 0 0
1.1 0 0
1.11 0 0
1.12 0 0
1.13 0 0
1.14 0 0
1.15 0 0
1.16 0 0
1.17 0 0
1.18 0 0
1.19 0 0
1.2 0 0
1.21 0 0
1.22 0 0
1.23 0 0
1.24 0 0
1.25 0 0
1.26 0 0
1.27 0 0
1.28 0 0
1.29 0 0
1.3 0 0
1.31 0 0
1.32 0 0
1.33 0 0
1.34 0 0
1.35 0 0
1.36 0 0
1.37 0 0
1.38 0 0
1.39 0 0
1.4 0 0
1.41 0 0
1.42 0 0
1.43 0 0
1.44 0 0
1.45 0 0
1.46 0 0
1.47 0 0
1.48 0 0
1.49 0 0
1.5 0 0
1.51 0 0
1.52 0 0
1.53 0 0
1.54 0 0
1.55 0 0
1.56 0 0
1.57 0 0
1.58 0 0
1.59 0 0
1.6 0 0
1.61 0 0
1.62 0 0
1.63 0 0
1.64 0 0
1.65 0 0
1.66 0 0
1.67 0 0
1.68 0 0
1.69 0 0
1.7 0 0
1.71 0 0
1.72 0 0
1.73 0 0
1.74 0 0
1.75 0 0
1.76 0 0
1.77 0 0
1.78 0 0
1.79 0 0
1.8 0 0
1.81 0 0
1.82 0 0
1.83 0 0
1.84 0 0
1.85 0 0
1.86 0 0
1.87 0 0
1.88 0 0
1.89 0 0
1.9 0 0
1.91 0 0
1.92 0 0
1.93 0 0
1.94 0 0
1.95 0 0
1.96 0 0
1.97 0 0
1.98 0 0
1.99 0 0
2 0.010289 0
2 0.0215307 0
2 0.0338135 0
2 0.0472336 0
2 0.0618965 0
2 0.0779171 0
2 0.0954213 0
2 0.114546 0
2 0.135442 0
2 0.158274 0
2 0.183219 0
2 0.210474 0
2 0.240253 0
2 0.27279 0
2 0.308339 0
2 0.347181 0
2 0.389619 0
2 0.435987 0
2 0.486649 0
2 0.542002 0
2 0.602481 0
2 0.66856 0
2 0.740758 0
2 0.819642 0
2 0.90583 0
1.9 1 0
1.8 1 0
1.7 1 0
1.6 1 0
1.5 1 0
1.4 1 0
1.3 1 0
1.2 1 0
1.1 1 0
1 1 0
0.9 1 0
0.8 1 0
0.7 1 0
0.6 1 0
0.5 1 0
0.4 1 0
0.3 1 0
0.2 1 0
0.1 1 0
3.69793e-12 1 0
-0.1 1 0
-0.2 1 0
-0.3 1 0
-0.4 1 0
-0.5 1 0
-0.6 1 0
-0.7 1 0
-0.8 1 0
-0.9 1 0
-1 0.90583 0
-1 0.819642 0
-1 0.740758 0
-1 0.66856 0
-1 0.602481 0
-1 0.542002 0
-1 0.486649 0
-1 0.435987 0
-1 0.389619 0
-1 0.347181 0
-1 0.308339 0
-1 0.27279 0
-1 0.240253 0
-1 0.210474 0
-1 0.183219 0
-1 0.158274 0
-1 0.135442 0
-1 0.114546 0
-1 0.0954213 0
-1 0.0779171 0
-1 0.0618965 0
-1 0.0472336 0
-1 0.0338135 0
-1 0.0215307 0
-1 0.010289 0
0.00921362 0.00379763 0
0.0184561 0.00752451 0
0.0277268 0.0111804 0
0.0370253 0.0147652 0
0.0463511 0.0182786 0
0.0557034 0.0217203 0
0.0650819 0.0250903 0
0.074486 0.0283883 0
0.083915 0.0316141 0
0.0933685 0.0347675 0
0.102846 0.0378484 0
0.112347 0.0408565 0
0.12187 0.0437917 0
0.131416 0.0466538 0
0.140983 0.0494427 0
0.150572 0.0521581 0
0.160181 0.0547999 0
0.16981 0.0573681 0
0.179458 0.0598623 0
0.189125 0.0622825 0
0.198811 0.0646285 0
0.208514 0.0669001 0
0.218234 0.0690974 0
0.227971 0.07122 0
0.237724 0.073268 0
0.247493 0.0752411 0
0.257276 0.0771393 0
0.267073 0.0789625 0
0.276884 0.0807105 0
0.286708 0.0823832 0
0.296545 0.0839806 0
0.306394 0.0855025 0
0.316254 0.0869488 0
0.326125 0.0883196 0
0.336006 0.0896146 0
0.345896 0.0908339 0
0.355796 0.0919773 0
0.365704 0.0930447 0
0.375621 0.0940362 0
0.385544 0.0949517 0
0.395474 0.095791 0
0.40541 0.0965542 0
0.415352 0.0972412 0
0.425299 0.097852 0
0.43525 0.0983865 0
0.445205 0.0988447 0
0.455164 0.0992266 0
0.465125 0.0995321 0
0.475088 0.0997613 0
0.485052 0.0999141 0
0.495017 0.0999904 0
0.504983 0.0999904 0
0.514948 0.0999141 0
0.524912 0.0997613 0
0.534875 0.0995321 0
0.544836 0.0992266 0
0.554795 0.0988447 0
0.56475 0.0983865 0
0.574701 0.097852 0
0.584648 0.0972412 0
0.59459 0.0965542 0
0.604526 0.095791 0
0.614456 0.0949517 0
0.624379 0.0940362 0
0.634296 0.0930447 0
0.644204 0.0919773 0
0.654104 0.0908339 0
0.663994 0.0896146 0
0.673875 0.0883196 0
0.683746 0.0869488 0
0.693606 0.0855025 0
0.703455 0.0839806 0
0.713292 0.0823832 0
0.723116 0.0807105 0
0.732927 0.0789625 0
0.742724 0.0771393 0
0.752508 0.0752411 0
0.762276 0.073268 0
0.772029 0.07122 0
0.781766 0.0690974 0
0.791486 0.0669001 0
0.801189 0.0646285 0
0.810875 0.0622825 0
0.820542 0.0598623 0
0.83019 0.0573681 0
0.839819 0.0547999 0
0.849428 0.0521581 0
0.859017 0.0494427 0
0.868584 0.0466538 0
0.87813 0.0437917 0
0.887653 0.0408565 0
0.897154 0.0378484 0
0.906631 0.0347675 0
0.916085 0.0316141 0
0.925514 0.0283883 0
0.934918 0.0250903 0
0.944297 0.0217203 0
0.953649 0.0182786 0
0.962975 0.0147652 0
0.972273 0.0111804 0
0.981544 0.00752451 0
0.990786 0.00379763 0
-1 0.90583 0.1
-1 0.819642 0.1
-1 0.740758 0.1
-1 0.66856 0.1
-1 0.602481 0.1
-1 0.542002 0.1
-1 0.486649 0.1
-1 0.435987 0.1
-1 0.389619 0.1
-1 0.347181 0.1
-1 0.308339 0.1
-1 0.27279 0.1
-1 0.240253 0.1
-1 0.210474 0.1
-1 0.183219 0.1
-1 0.158274 0.1
-1 0.135442 0.1
-1 0.114546 0.1
-1 0.0954213 0.1
-1 0.0779171 0.1
-1 0.0618965 0.1
-1 0.0472336 0.1
-1 0.0338135 0.1
-1 0.0215307 0.1
-1 0.010289 0.1
-0.99 0 0.1
-0.98 0 0.1
-0.97 0 0.1
-0.96 0 0.1
-0.95 0 0.1
-0.94 0 0.1
-0.93 0 0.1
-0.92 0 0.1
-0.91 0 0.1
-0.9 0 0.1
-0.89 0 0.1
-0.88 0 0.1
-0.87 0 0.1
-0.86 0 0.1
-0.85 0 0.1
-0.84 0 0.1
-0.83 0 0.1
-0.82 0 0.1
-0.81 0 0.1
-0.8 0 0.1
-0.79 0 0.1
-0.78 0 0.1
-0.77 0 0.1
-0.76 0 0.1
-0.75 0 0.1
-0.74 0 0.1
-0.73 0 0.1
-0.72 0 0.1
-0.71 0 0.1
-0.7 0 0.1
-0.69 0 0.1
-0.68 0 0.1
-0.67 0 0.1
-0.66 0 0.1
-0.65 0 0.1
-0.64 0 0.1
-0.63 0 0.1
-0.62 0 0.1
-0.61 0 0.1
-0.6 0 0.1
-0.59 0 0.1
-0.58 0 0.1
-0.57 0 0.1
-0.56 0 0.1
-0.55 0 0.1
-0.54 0 0.1
-0.53 0 0.1
-0.52 0 0.1
-0.51 0 0.1
-0.5 0 0.1
-0.49 0 0.1
-0.48 0 0.1
-0.47 0 0.1
-0.46 0 0.1
-0.45 0 0.1
-0.44 0 0.1
-0.43 0 0.1
-0.42 0 0.1
-0.41 0 0.1
-0.4 0 0.1
-0.39 0 0.1
-0.38 0 0.1
-0.37 0 0.1
-0.36 0 0.1
-0.35 0 0.1
-0.34 0 0.1
-0.33 0 0.1
-0.32 0 0.1
-0.31 0 0.1
-0.3 0 0.1
-0.29 0 0.1
-0.28 0 0.1
-0.27 0 0.1
-0.26 0 0.1
-0.25 0 0.1
-0.24 0 0.1
-0.23 0 0.1
-0.22 0 0.1
-0.21 0 0.1
-0.2 0 0.1
-0.19 0 0.1
-0.18 0 0.1
-0.17 0 0.1
-0.16 0 0.1
-0.15 0 0.1
-0.14 0 0.1
-0.13 0 0.1
-0.12 0 0.1
-0.11 0 0.1
-0.1 0 0.1
-0.09 0 0.1
-0.08 0 0.1
-0.07 0 0.1
-0.06 0 0.1
-0.05 0 0.1
-0.04 0 0.1
-0.03 0 0.1
-0.02 0 0.1
-0.01 0 0.1
0.00921362 0.00379763 0.1
0.0184561 0.00752451 0.1
0.0277268 0.0111804 0.1
0.0370253 0.0147652 0.1
0.0463511 0.0182786 0.1
0.0557034 0.0217203 0.1
0.0650819 0.0250903 0.1
0.074486 0.0283883 0.1
0.083915 0.0316141 0.1
0.0933685 0.0347675 0.1
0.102846 0.0378484 0.1
0.112347 0.0408565 0.1
0.12187 0.0437917 0.1
0.131416 0.0466538 0.1
0.140983 0.0494427 0.1
0.150572 0.0521581 0.1
0.160181 0.0547999 0.1
0.16981 0.0573681 0.1
0.179458 0.0598623 0.1
0.189125 0.0622825 0.1
0.198811 0.0646285 0.1
0.208514 0.0669001 0.1
0.218234 0.0690974 0.1
0.227971 0.07122 0.1
0.237724 0.073268 0.1
0.247493 0.0752411 0.1
0.257276 0.0771393 0.1
0.267073 0.0789625 0.1
0.276884 0.0807105 0.1
0.286708 0.0823832 0.1
0.296545 0.0839806 0.1
0.306394 0.0855025 0.1
0.316254 0.0869488 0.1
0.326125 0.0883196 0.1
0.336006 0.0896146 0.1
0.345896 0.0908339 0.1
0.355796 0.0919773 0.1
0.365704 0.0930447 0.1
0.375621 0.0940362 0.1
0.385544 0.0949517 0.1
0.395474 0.095791 0.1
0.40541 0.0965542 0.1
0.415352 0.0972412 0.1
0.425299 0.097852 0.1
0.43525 0.0983865 0.1
0.445205 0.0988447 0.1
0.455164 0.0992266 0.1
0.465125 0.0995321 0.1
0.475088 0.0997613 0.1
0.485052 0.0999141 0.1
0.495017 0.0999904 0.1
0.504983 0.0999904 0.1
0.514948 0.0999141 0.1
0.524912 0.0997613 0.1
0.534875 0.0995321 0.1
0.544836 0.0992266 0.1
0.554795 0.0988447 0.1
0.56475 0.0983865 0.1
0.574701 0.097852 0.1
0.584648 0.0972412 0.1
0.59459 0.0965542 0.1
0.604526 0.095791 0.1
0.614456 0.0949517 0.1
0.624379 0.0940362 0.1
0.634296 0.0930447 0.1
0.644204 0.0919773 0.1
0.654104 0.0908339 0.1
0.663994 0.0896146 0.1
0.673875 0.0883196 0.1
0.683746 0.0869488 0.1
0.693606 0.0855025 0.1
0.703455 0.0839806 0.1
0.713292 0.0823832 0.1
0.723116 0.0807105 0.1
0.732927 0.0789625 0.1
0.742724 0.0771393 0.1
0.752508 0.0752411 0.1
0.762276 0.073268 0.1
0.772029 0.07122 0.1
0.781766 0.0690974 0.1
0.791486 0.0669001 0.1
0.801189 0.0646285 0.1
0.810875 0.0622825 0.1
0.820542 0.0598623 0.1
0.83019 0.0573681 0.1
0.839819 0.0547999 0.1
0.849428 0.0521581 0.1
0.859017 0.0494427 0.1
0.868584 0.0466538 0.1
0.87813 0.0437917 0.1
0.887653 0.0408565 0.1
0.897154 0.0378484 0.1
0.906631 0.0347675 0.1
0.916085 0.0316141 0.1
0.925514 0.0283883 0.1
0.934918 0.0250903 0.1
0.944297 0.0217203 0.1
0.953649 0.0182786 0.1
0.962975 0.0147652 0.1
0.972273 0.0111804 0.1
0.981544 0.00752451 0.1
0.990786 0.00379763 0.1
1.01 0 0.1
1.02 0 0.1
1.03 0 0.1
1.04 0 0.1
1.05 0 0.1
1.06 0 0.1
1.07 0 0.1
1.08 0 0.1
1.09 0 0.1
1.1 0 0.1
1.11 0 0.1
1.12 0 0.1
1.13 0 0.1
1.14 0 0.1
1.15 0 0.1
1.16 0 0.1
1.17 0 0.1
1.18 0 0.1
1.19 0 0.1
1.2 0 0.1
1.21 0 0.1
1.22 0 0.1
1.23 0 0.1
1.24 0 0.1
1.25 0 0.1
1.26 0 0.1
1.27 0 0.1
1.28 0 0.1
1.29 0 0.1
1.3 0 0.1
1.31 0 0.1
1.32 0 0.1
1.33 0 0.1
1.34 0 0.1
1.35 0 0.1
1.36 0 0.1
1.37 0 0.1
1.38 0 0.1
1.39 0 0.1
1.4 0 0.1
1.41 0 0.1
1.42 0 0.1
1.43 0 0.1
1.44 0 0.1
1.45 0 0.1
1.46 0 0.1
1.47 0 0.1
1.48 0 0.1
1.49 0 0.1
1.5 0 0.1
1.51 0 0.1
1.52 0 0.1
1.53 0 0.1
1.54 0 0.1
1.55 0 0.1
1.56 0 0.1
1.57 0 0.1
1.58 0 0.1
1.59 0 0.1
1.6 0 0.1
1.61 0 0.1
1.62 0 0.1
1.63 0 0.1
1.64 0 0.1
1.65 0 0.1
1.66 0 0.1
1.67 0 0.1
1.68 0 0.1
1.69 0 0.1
1.7 0 0.1
1.71 0 0.1
1.72 0 0.1
1.73 0 0.1
1.74 0 0.1
1.75 0 0.1
1.76 0 0.1
1.77 0 0.1
1.78 0 0.1
1.79 0 0.1
1.8 0 0.1
1.81 0 0.1
1.82 0 0.1
1.83 0 0.1
1.84 0 0.1
1.85 0 0.1
1.86 0 0.1
1.87 0 0.1
1.88 0 0.1
[...]
CELL_DATA 7425
SCALARS rho float
LOOKUP_TABLE default
0.588969
0.805143
0.820061
0.827942
0.799934
0.819641
0.821289
0.81475
0.813677
0.739249
0.863695
0.810264
0.814524
0.827799
0.804171
0.817693
0.799223
0.813934
0.803555
0.767686
0.831678
0.822242
0.725449
0.828476
0.803965
0.704717
0.831601
0.849175
0.800289
0.808247
0.819756
0.724965
0.803703
0.653576
0.522774
0.828442
0.803586
0.814728
0.811375
0.828401
0.717362
0.705677
0.790414
0.69867
0.588661
0.748792
0.799809
0.81446
0.666945
0.718916
0.746466
0.805262
0.81254
0.799554
0.708243
0.698958
0.823384
0.800438
0.739123
0.701799
0.711641
0.807785
0.813906
0.799833
0.798903
0.818141
0.586094
0.773784
0.700842
0.808181
0.804547
0.803248
0.883548
0.821317
0.811053
0.813735
0.805159
0.800555
0.81391
0.757936
0.816544
0.807365
0.810934
0.78913
0.8362
0.801537
0.576147
0.830333
0.545111
0.848776
0.702908
0.730386
0.84611
0.803258
0.817933
0.759143
0.836453
0.788296
0.826074
0.802975
0.808642
0.738715
0.803366
0.828635
0.598716
0.811294
0.824801
0.708598
0.815585
0.799666
0.817248
0.784977
0.790181
0.81257
0.790148
0.786612
0.831648
0.803148
0.698083
0.642019
0.805156
0.777748
0.813645
0.790666
0.859196
0.839564
0.807827
0.804679
0.662309
0.507627
0.815068
0.656539
0.518458
0.8688
0.667678
0.800028
0.811286
0.724383
0.583722
0.726337
0.724573
0.809993
0.810308
0.705613
0.803514
0.779981
0.567141
0.789116
0.782604
0.828197
0.817149
0.704052
0.803362
0.744536
0.704016
0.803363
0.810665
0.830819
0.797997
0.655063
0.802716
0.700058
0.80155
0.830157
0.820951
0.802463
0.813752
0.785269
0.806426
0.801128
0.820213
0.80499
0.791767
0.799627
0.800246
0.741351
0.80416
0.759636
0.596555
0.700919
0.800155
0.793214
0.879952
0.832209
0.652076
0.823397
0.799134
0.827871
0.800332
0.814056
0.813331
0.803278
0.807095
0.703336
0.815598
0.819746
0.770525
0.797633
0.862064
0.80792
0.812147
0.811861
0.61427
0.839623
0.574762
0.535016
0.596988
0.604569
0.828563
0.879491
0.807648
0.798781
0.841646
0.813675
0.817219
0.821256
0.815784
0.639104
0.559851
0.814364
0.548264
0.59495
0.702162
0.81226
0.814671
0.813736
0.833515
0.813638
0.865224
0.707988
0.835584
0.714713
0.805325
0.804012
0.802128
0.714819
0.722052
0.620622
0.703273
0.863857
0.876604
0.80682
0.807824
0.799376
0.81188
0.717795
0.822091
0.800707
0.826129
0.794837
0.810528
0.721162
0.813534
0.824198
0.741074
0.530813
0.800252
0.736422
0.843678
0.814941
0.726099
0.816146
0.815435
0.850189
0.810144
0.804449
0.803326
0.826098
0.861011
0.805953
0.620348
0.849177
0.812601
0.805719
0.827964
0.837634
0.813654
0.821892
0.793738
0.81566
0.867665
0.850186
0.827751
0.837106
0.802859
0.817702
0.803238
0.759908
0.702943
0.582582
0.698684
0.802851
0.81359
0.816551
0.855594
0.779995
0.646815
0.827514
0.524287
0.774767
0.801422
0.647482
0.503291
0.640184
0.815781
0.813907
0.813673
0.813354
0.827152
0.774784
0.811618
0.802767
0.813635
0.841054
0.868215
0.833932
0.802976
0.701728
0.796347
0.834583
0.692546
0.799234
0.802186
0.864999
0.817644
0.594481
0.814045
0.741783
0.85316
0.732962
0.810756
0.907739
0.800379
0.796128
0.660086
0.636693
0.709914
0.78125
0.826971
0.815524
0.814333
0.883714
0.858961
0.800043
0.799562
0.826239
0.740168
0.802726
0.879564
0.801458
0.805268
0.801177
0.802647
0.81363
0.816291
0.816926
0.637947
0.830407
0.648619
0.808754
0.641048
0.803117
0.802352
0.840613
0.730142
0.816528
0.809117
0.817523
0.799927
0.802572
0.811482
0.699442
0.824675
0.813748
0.813592
0.800772
0.737066
0.561624
0.806539
0.811707
0.803257
0.813617
0.795214
0.511286
0.846481
0.813972
0.803937
0.78618
0.813932
0.805034
0.803415
0.816797
0.807634
0.822979
0.769144
0.813028
0.807919
0.564392
0.803628
0.641193
0.83903
0.63736
0.815277
0.878084
0.596838
0.818379
0.749625
0.804529
0.873516
0.536941
0.82358
0.822734
0.803582
0.826181
0.811383
0.823921
0.831042
0.825276
0.740953
0.827949
0.761589
0.81059
0.79445
0.794083
0.759202
0.805743
0.802148
0.814987
0.753263
0.805018
0.605913
0.61565
0.691137
0.813481
0.84451
0.865072
0.830257
0.799089
0.813366
0.805226
0.818968
0.681498
0.801395
0.743696
0.824375
0.815359
0.805984
0.709928
0.728067
0.536161
0.606875
0.801723
0.612601
0.793122
0.765695
0.770565
0.726457
0.763064
0.768176
0.810087
0.815524
0.820057
0.81216
0.712084
0.606435
0.839372
0.807474
0.783467
0.810419
0.802826
0.836926
0.720157
0.855558
0.763982
0.730057
0.765225
0.812085
0.547444
0.799316
0.841956
0.813677
0.814422
0.810351
0.79969
0.780969
0.836005
0.803177
0.843306
0.721813
0.706069
0.800657
0.795611
0.822494
0.709874
0.848268
0.800961
0.816607
0.799202
0.77952
0.808823
0.596068
0.678429
0.633512
0.813558
0.804199
0.826783
0.749831
0.810733
0.815396
0.820887
0.79948
0.730804
0.797448
0.814888
0.803264
0.705662
0.814239
0.819398
0.840403
0.81147
0.825785
0.8625
0.857506
0.744874
0.604819
0.838311
0.806167
0.843646
0.814843
0.823263
0.814175
0.814439
0.644707
0.80578
0.809798
0.813552
0.792336
0.810968
0.805249
0.861525
0.799166
0.813467
0.815313
0.872127
0.599058
0.814111
0.843168
0.883466
0.532868
0.81696
0.830369
0.796332
0.814928
0.795408
0.867818
0.812612
0.831753
0.813316
0.62064
0.802536
0.804256
0.692985
0.853376
0.759727
0.80201
0.814598
0.813398
0.860678
0.795542
0.833941
0.835102
0.784932
0.82552
0.843038
0.800241
0.811028
0.807484
0.805433
0.815359
0.802707
0.845529
0.769611
0.809936
0.803311
0.815608
0.724131
0.813617
0.81888
0.753177
0.814233
0.81679
0.828138
0.825562
0.80118
0.801008
0.850743
0.767861
0.825768
0.844521
0.804669
0.509201
0.813598
0.828706
0.852624
0.813217
0.803195
0.808723
0.855286
0.780106
0.802686
0.80165
0.813656
0.728898
0.803088
0.830353
0.808626
0.795183
0.794106
0.843532
0.80673
0.845576
0.802084
0.82471
0.813408
0.804318
0.842123
0.813567
0.681151
0.819301
0.807228
0.81348
0.906233
0.801128
0.816365
0.800781
0.800762
0.816768
0.800863
0.803483
0.783772
0.74754
0.807093
0.813622
0.758629
0.79199
0.823487
0.813161
0.822738
0.806628
0.826221
0.875479
0.831059
0.578809
0.70955
0.841101
0.817834
0.844467
0.815348
0.850375
0.807871
0.812787
0.799817
0.838755
0.861183
0.853078
0.732509
0.814717
0.822638
0.743625
0.81769
0.776335
0.80055
0.733967
0.816633
0.831275
0.82368
0.862913
0.814826
0.813973
0.810797
0.815236
0.836124
0.812353
0.799144
0.810373
0.738523
0.812054
0.77414
0.833199
0.813323
0.639905
0.777978
0.811633
0.799648
0.820337
0.80298
0.815269
0.817846
0.804827
0.819904
0.804267
0.806416
0.600031
0.847359
0.82558
0.827145
0.815468
0.803309
0.702661
0.807093
0.907922
0.814203
0.801581
0.813536
0.782616
0.807837
0.813905
0.82178
0.814805
0.813907
0.816807
0.696662
0.778444
0.765313
0.813352
0.805651
0.80157
0.622633
0.806267
0.803105
0.709308
0.837646
0.817746
0.802563
0.807934
0.799805
0.817785
0.814345
0.813965
0.813611
0.710423
0.832057
0.800463
0.807992
0.843295
0.818146
0.816853
0.800619
0.753922
0.82427
0.787998
0.821921
0.789687
0.806241
0.821451
0.737823
0.81788
0.654468
0.872237
0.705234
0.845332
0.801378
0.875333
0.794118
0.801937
0.821173
0.836693
0.838758
0.825888
0.82034
0.815277
0.801656
0.804352
0.808513
0.72757
0.827533
0.800201
0.719291
0.830899
0.700592
0.800541
0.861378
0.805719
0.70402
0.798068
0.814719
0.703371
0.785732
0.819894
0.832196
0.807569
0.587644
0.730353
0.812569
0.801885
0.813653
0.801118
0.737883
0.814633
0.816298
0.813216
0.775852
0.803337
0.804623
0.804168
0.562136
0.813447
0.834427
0.582486
0.815761
0.816676
0.815305
0.818892
0.815033
0.824996
0.799618
0.795295
0.771021
0.823193
0.829968
0.825398
0.835664
0.765999
0.80965
0.726176
0.772739
0.809323
0.821571
0.813956
0.801072
0.859225
0.813655
0.800905
0.810256
0.816655
0.815781
0.837004
0.81511
0.813518
0.812118
0.814461
0.800706
0.821486
0.803893
0.823308
0.814132
0.57814
0.814176
0.834851
0.858985
0.838539
0.495055
0.817364
0.804959
0.500165
0.67133
0.647172
0.834647
0.80839
0.81179
0.813487
0.803244
0.817307
0.811279
0.537037
0.688554
0.818513
0.806746
0.816192
0.803594
0.810429
0.811604
0.82072
0.799915
0.694658
0.856915
0.803192
0.814886
0.814263
0.758328
0.490075
0.833291
0.813882
0.741574
0.802747
0.806828
0.594376
0.827876
0.815367
0.828156
0.819307
0.826612
0.804841
0.721418
0.644628
0.56377
0.825772
0.809119
0.783025
0.813679
0.780403
0.818429
0.873494
0.7629
0.822101
0.814142
0.826281
0.883733
0.815053
0.812502
0.803412
0.814007
0.693196
0.82864
0.800278
0.810786
0.802369
0.78453
0.854446
0.82252
0.84076
0.822015
0.757504
0.756413
0.803862
0.818615
0.803116
0.805358
0.802748
0.776294
0.815283
0.762306
0.821733
0.663079
0.814597
0.803106
0.735175
0.823582
0.818434
0.740615
0.801324
0.757829
0.881952
0.800817
0.813579
0.763298
0.800635
0.814895
0.804047
0.591454
0.821299
0.799094
0.801921
0.815139
0.826039
0.757929
0.806052
0.842379
0.827543
0.81439
0.836216
0.695231
0.700967
0.813653
0.744772
0.822703
0.771872
0.813569
0.802641
0.810815
0.752547
0.794383
0.764988
0.810507
0.803185
0.632275
0.779418
0.799355
0.849853
0.814987
0.829079
0.529425
0.825545
0.785565
0.858999
0.801045
0.818304
0.800818
0.78629
0.799232
0.826129
0.836054
0.822116
0.817655
0.705866
0.774437
0.815867
0.805492
0.810686
0.804007
0.704331
0.793289
0.803803
0.811198
0.827658
0.851452
0.832256
0.81413
0.799933
0.804651
0.802392
0.780018
0.612999
0.800886
0.732424
0.663041
0.823256
0.799302
0.777297
0.800442
0.754732
0.785566
0.812195
0.822651
0.803817
0.816567
0.81779
0.820999
0.814059
0.808897
0.712873
0.700247
0.641954
0.829701
0.869781
0.815717
0.841757
0.848135
0.863945
0.737146
0.817057
0.863238
0.810682
0.813614
0.816619
0.733688
0.813002
0.807238
0.80674
0.52023
0.813679
0.761769
0.813834
0.813964
0.803623
0.704215
0.813871
0.611973
0.825373
0.802688
0.822569
0.855442
0.80352
0.795562
0.821429
0.812211
0.805991
0.76282
0.513537
0.821386
0.803214
0.829593
0.826207
0.802675
0.807149
0.8348
0.721802
0.504365
0.886412
0.801088
0.816269
0.804429
0.709367
0.799122
0.800482
0.81566
0.737427
0.647565
0.883399
0.715023
0.836921
0.812642
0.833284
0.842996
0.792767
0.804847
0.814232
0.853019
0.738943
0.870887
0.814648
0.564501
0.802994
0.748689
0.8532
0.761023
0.80432
0.804047
0.800069
0.801803
0.809521
0.813641
0.856335
0.806501
0.802911
0.801387
0.800446
0.812978
0.817427
0.802674
0.813223
0.849512
0.803135
0.783955
0.802327
0.840258
0.726756
0.814279
0.814452
0.651363
0.713975
0.805715
0.823473
0.804154
0.515055
0.857236
0.813831
0.833645
0.805417
0.803381
0.801529
0.786786
0.588497
0.804451
0.816671
0.836327
0.821065
0.813669
0.798737
0.748033
0.801737
0.766596
0.787816
0.799808
0.791185
0.751195
0.801252
0.81205
0.811015
0.832524
0.849874
0.555602
0.842246
0.813585
0.821013
0.802397
0.822857
0.811816
0.894742
0.800639
0.868174
0.805837
0.760495
0.862333
0.802392
0.800347
0.824597
0.661467
0.646371
0.803475
0.803964
0.699064
0.655352
0.800003
0.82431
0.813734
0.823065
0.734105
0.817584
0.81353
0.826577
0.817423
0.812086
0.813606
0.755163
0.804392
0.816244
0.81207
0.677137
0.5682
0.813643
0.651023
0.72261
0.557005
0.841734
0.800569
0.530634
0.602179
0.827838
0.908154
0.818674
0.653396
0.814774
0.786933
0.802124
0.786839
0.821269
0.810609
0.78856
0.821526
0.801559
0.589456
0.818358
0.767274
0.816481
0.699383
0.822698
0.790157
0.814575
0.800549
0.663908
0.843779
0.806955
0.807151
0.497589
0.817384
0.800797
0.853034
0.71061
0.817634
0.588694
0.720813
0.801798
0.79713
0.734194
0.716673
0.714582
0.510828
0.597694
0.80051
0.521324
0.823076
0.526094
0.757751
0.67322
0.605749
0.54405
0.746044
0.803131
0.713721
0.821787
0.801238
0.80328
0.761743
0.889822
0.799542
0.824935
0.803544
0.81352
0.706757
0.808042
0.737352
0.822394
0.886196
0.833919
0.748407
0.823258
0.771052
0.880059
0.804294
0.759211
0.850982
0.777398
0.800029
0.805859
0.758787
0.745793
0.670384
0.805091
0.803078
0.818416
0.833873
0.612646
0.808481
0.540889
0.669551
0.619873
0.819102
0.821531
0.809625
0.804075
0.616874
0.872637
0.80273
0.802987
0.863758
0.813165
0.77253
0.812901
0.802442
0.818437
0.80318
0.717784
0.803736
0.658306
0.79946
0.80459
0.801709
0.640196
0.811954
0.810696
0.725964
0.81833
0.551451
0.578407
0.804262
0.697328
0.726617
0.573735
0.724726
0.814271
0.70508
0.773402
0.715709
0.813162
0.671206
0.762652
0.806742
0.811202
0.656137
0.802075
0.895282
0.796923
0.81735
0.588199
0.694751
0.801496
0.813664
0.814629
0.851912
0.813326
0.804402
0.803849
0.803417
0.714719
0.716923
0.617034
0.772118
0.536923
0.722975
0.810544
0.815005
0.806637
0.799768
0.55047
0.809678
0.803853
0.556352
0.546343
0.747194
0.803667
0.806677
0.551346
0.798477
0.571426
0.722361
0.609256
0.813841
0.802638
0.59862
0.609652
0.868111
0.810364
0.765948
0.718978
0.624511
0.656353
0.70778
0.816558
0.760314
0.765468
0.625322
0.754539
0.809909
0.815945
0.813181
0.816055
0.866612
0.755429
0.819442
0.803492
0.851549
0.813597
0.802845
0.813759
0.721543
0.813487
0.812542
0.815732
0.811716
0.816433
0.803339
0.818445
0.810961
0.810325
0.817792
0.800227
0.817127
0.819468
0.668477
0.819128
0.868633
0.818692
0.793142
0.646979
0.858839
0.819308
0.82534
0.80002
0.811944
0.757403
0.852832
0.566133
0.728259
0.810003
0.816242
0.803975
0.803439
0.832446
0.805571
0.805544
0.81585
0.781176
0.83891
0.84227
0.815656
0.665331
0.617593
0.816338
0.817158
0.788919
0.849928
0.847542
0.811425
0.814173
0.778303
0.814688
0.818356
0.814718
0.819295
0.813638
0.816395
0.851334
0.816538
0.815057
0.818092
0.818295
0.785199
0.814668
0.80454
0.804703
0.805054
0.81909
0.812202
0.788844
0.753757
0.813328
0.806396
0.809403
0.806498
0.857994
0.803741
0.81459
0.813396
0.805569
0.656917
0.803993
0.813445
0.815569
0.810466
0.813493
0.813954
0.813711
0.81031
0.864595
0.505275
0.813527
0.841978
0.813343
0.803113
0.808661
0.815591
0.840026
0.800913
0.801763
0.81297
0.700127
0.813548
0.808618
0.807889
0.813222
0.813576
0.813709
0.814021
0.515426
0.812074
0.717791
0.88599
0.821516
0.732804
0.676853
0.815943
0.80393
0.819153
0.647574
0.80191
0.813994
0.649031
0.800329
0.804261
0.816032
0.806652
0.857004
0.809978
0.608281
0.801199
0.775175
0.811379
0.889215
0.803722
0.815675
0.819664
0.832496
0.814055
0.822872
0.836692
0.636116
0.803104
0.656823
0.814379
0.814283
0.711256
0.814173
0.805329
0.712246
0.815397
0.703483
0.86132
0.784458
0.814907
0.813603
0.814073
0.669306
0.814294
0.634318
0.800564
0.792613
0.822757
0.815764
0.717297
0.766648
0.830456
0.813412
0.821629
0.822379
0.81409
0.825775
0.799937
0.5539
0.754787
0.759963
0.730759
0.837965
0.822975
0.834676
0.77674
0.802843
0.81372
0.813658
0.813658
0.775087
0.565515
0.803274
0.532118
0.808624
0.82489
0.800166
0.803849
0.813558
0.80617
0.783166
0.732756
0.814042
0.859368
0.814119
0.799724
0.736581
0.810152
0.788984
0.834006
0.508352
0.796153
0.806462
0.799344
0.692657
0.813517
0.811242
0.857957
0.570689
0.807484
0.803334
0.813466
0.615423
0.813764
0.803397
0.803477
0.803104
0.813867
0.813958
0.816645
0.813728
0.716546
0.804622
0.803263
0.813686
0.896279
0.813817
0.774535
0.841614
0.799295
0.803185
0.602741
0.813586
0.803425
0.826258
0.802129
0.866447
0.815253
0.854143
0.800813
0.821113
0.778262
0.560221
0.753514
0.794767
0.80449
0.814073
0.814418
0.557406
0.861987
0.858787
0.769168
0.757902
0.738649
0.812658
0.849002
0.813621
0.814036
0.813655
0.804372
0.726638
0.803591
0.799556
0.764109
0.824699
0.823454
0.862043
0.816196
0.813669
0.535095
0.809013
0.81363
0.801089
0.774465
0.818232
0.803158
0.813526
0.827307
0.798638
0.80393
0.80152
0.815624
0.839448
0.802835
0.799584
0.802011
0.76605
0.820353
0.568854
0.868561
0.803792
0.547728
0.80357
0.803552
0.820062
0.60027
0.607612
0.801945
0.804129
0.801278
0.860935
0.780278
0.815108
0.803024
0.866786
0.804816
0.804547
0.826635
0.816427
0.820667
0.821735
0.820796
0.867662
0.729949
0.852382
0.817712
0.654747
0.802899
0.803279
0.803736
0.821589
0.82394
0.804296
0.801496
0.800483
0.823128
0.803525
0.803717
0.800119
0.824819
0.804064
0.802205
0.806193
0.82826
0.801057
0.801914
0.824892
0.799992
0.815941
0.652363
0.826805
0.850095
0.805162
0.820058
0.803345
0.829146
0.837836
0.803469
0.821934
0.800865
0.80745
0.789748
0.80235
0.803493
0.806467
0.806202
0.804954
0.819033
0.815323
0.811407
0.831786
0.802656
0.802347
0.80034
0.789093
0.834135
0.803268
0.819788
0.815769
0.807373
0.805425
0.802994
0.839222
0.86574
0.80003
0.679844
0.801462
0.842464
0.817118
0.805638
0.804559
0.819978
0.844875
0.608262
0.829387
0.795
0.851259
0.819218
0.812202
0.813551
0.808692
0.804048
0.813009
0.808946
0.593134
0.848268
0.794836
0.814774
0.854844
0.819764
0.763707
0.808917
0.815035
0.815966
0.803107
0.662751
0.809735
0.863375
0.80299
0.801019
0.776046
0.871391
0.800718
0.87723
0.807067
0.817676
0.821081
0.802755
0.804163
0.813264
0.81642
0.80397
0.813945
0.817219
0.881504
0.820936
0.809426
0.800634
0.82876
0.810621
0.839519
0.809137
0.807058
0.812663
0.817074
0.830233
0.814253
0.822946
0.832849
0.814697
0.701623
0.693993
0.813695
0.818249
0.804336
0.813744
0.518307
0.855087
0.800152
0.806337
0.81449
0.814087
0.804079
0.813111
0.800886
0.801534
0.808434
0.815122
0.757683
0.785084
0.823379
0.84344
0.835145
0.800697
0.805561
0.803427
0.813074
0.806022
0.799971
0.800201
0.801307
0.811257
0.798002
0.803236
0.835842
0.831941
0.731269
0.704023
0.807763
0.701008
0.799988
0.578138
0.804541
0.807213
0.803543
0.818661
0.8344
0.814522
0.813529
0.810414
0.803988
0.881678
0.816796
0.805325
0.772684
0.590877
0.810364
0.807114
0.769842
0.814991
0.814475
0.791695
0.800876
0.804146
0.63295
0.83074
0.80358
0.782127
0.779678
0.852946
0.810109
0.803363
0.803126
0.810766
0.811238
0.522394
0.80207
0.839819
0.814523
0.798778
0.590922
0.814885
0.814658
0.813638
0.834089
0.814512
0.804112
0.822343
0.806107
0.577382
0.808833
0.737608
0.798638
0.814246
0.722983
0.815486
0.846745
0.831916
0.665519
0.891022
0.785883
0.778043
0.797063
0.779715
0.808954
0.850748
0.808446
0.803044
0.814165
0.809438
0.782943
0.786215
0.81446
0.808823
0.835162
0.821694
0.835992
0.801794
0.800158
0.813711
0.856861
0.816878
0.818777
0.813975
0.608618
0.795732
0.824282
0.829628
0.866109
0.813289
0.819272
0.512469
0.81033
0.800991
0.81322
0.815302
0.847849
0.813702
0.81122
0.881643
0.765173
0.812793
0.813861
0.809586
0.80535
0.814806
0.65693
0.800663
0.849806
0.833808
0.811059
0.814051
0.813992
0.809687
0.701287
0.812998
0.800664
0.838899
0.818951
0.812151
0.831641
0.793249
0.812064
0.818296
0.809338
0.819764
0.745304
0.855472
0.819443
0.814308
0.813708
0.813364
0.816217
0.817643
0.813416
0.811312
0.841375
0.819076
0.800614
0.82555
0.827306
0.816559
0.814719
0.800795
0.80179
0.813706
0.819504
0.82969
0.813467
0.81695
0.800323
0.810497
0.813508
0.813448
0.802585
0.815229
0.813946
0.803428
0.813535
0.835988
0.800179
0.809981
0.822095
0.562197
0.814784
0.81865
0.815962
0.815515
0.822403
0.82917
0.816145
0.819317
0.702264
0.813718
0.801648
0.816154
0.819491
0.835374
0.822013
0.815863
0.829755
0.825358
0.811321
0.819331
0.820092
0.804735
0.813801
0.816141
0.819724
0.832478
0.813264
0.816232
0.802788
0.81361
0.813694
0.526922
0.629902
0.814498
0.82189
0.802117
0.822879
0.816436
0.842203
0.708896
0.814343
0.731628
0.81778
0.81087
0.813802
0.829676
0.814258
0.805424
0.813593
0.830385
0.840075
0.813424
0.719921
0.819456
0.816547
0.80032
0.803075
0.815854
0.856155
0.8133
0.813996
0.849955
0.829298
0.843505
0.577201
0.829484
0.814529
0.811439
0.817901
0.851341
0.818259
0.71909
0.799991
0.832032
0.800283
0.800155
0.805667
0.748416
0.814018
0.814903
0.726536
0.814908
0.827603
0.813929
0.814589
0.799691
0.818855
0.813656
0.824093
0.808821
0.808662
0.815471
0.704764
0.819551
0.814642
0.813646
0.641643
0.717521
0.600709
0.823529
0.535343
0.854658
0.727983
0.843137
0.813154
0.724599
0.821714
0.816385
0.743156
0.807916
0.818839
0.794518
0.817018
0.816392
0.816322
0.813654
0.808457
0.803742
0.737915
0.836788
0.820608
0.817108
0.799642
0.815665
0.802551
0.816533
0.814057
0.855355
0.818255
0.501678
0.813805
0.819267
0.819143
0.77837
0.815975
0.806835
0.818803
0.846104
0.59799
0.809601
0.799792
0.81586
0.818111
0.818176
0.813092
0.81908
0.814364
0.815099
0.803149
0.81479
0.8464
0.814485
0.792109
0.812075
0.623806
0.71838
0.813718
0.817497
0.803142
0.82274
0.735563
0.803188
0.803213
0.820666
0.703573
0.81809
0.799846
0.815955
0.865676
0.785769
0.822389
0.818466
0.823334
0.814602
0.770032
0.80254
0.814163
0.902388
0.827435
0.816943
0.832501
0.810233
0.869285
0.718502
0.703622