# vtk DataFile Version 1.0
unstructured grid
ascii
DATASET UNSTRUCTURED_GRID
points 7812 float
-1 0 0
-1 1 0
2 0 0
2 1 0
0 0 0
1 0 0
-1 1 0.1
-1 0 0.1
0 0 0.1
1 0 0.1
2 0 0.1
2 1 0.1
-0.99 0 0
-0.98 0 0
-0.97 0 0
-0.96 0 0
-0.95 0 0
-0.94 0 0
-0.93 0 0
-0.92 0 0
-0.91 0 0
-0.9 0 0
-0.89 0 0
-0.88 0 0
-0.87 0 0
-0.86 0 0
-0.85 0 0
-0.84 0 0
-0.83 0 0
-0.82 0 0
-0.81 0 0
-0.8 0 0
-0.79 0 0
-0.78 0 0
-0.77 0 0
-0.76 0 0
-0.75 0 0
-0.74 0 0
-0.73 0 0
-0.72 0 0
-0.71 0 0
-0.7 0 0
-0.69 0 0
-0.68 0 0
-0.67 0 0
-0.66 0 0
-0.65 0 0
-0.64 0 0
-0.63 0 0
-0.62 0 0
-0.61 0 0
-0.6 0 0
-0.59 0 0
-0.58 0 0
-0.57 0 0
-0.56 0 0
-0.55 0 0
-0.54 0 0
-0.53 0 0
-0.52 0 0
-0.51 0 0
-0.5 0 0
-0.49 0 0
-0.48 0 0
-0.47 0 0
-0.46 0 0
-0.45 0 0
-0.44 0 0
-0.43 0 0
-0.42 0 0
-0.41 0 0
-0.4 0 0
-0.39 0 0
-0.38 0 0
-0.37 0 0
-0.36 0 0
-0.35 0 0
-0.34 0 0
-0.33 0 0
-0.32 0 0
-0.31 0 0
-0.3 0 0
-0.29 0 0
-0.28 0 0
-0.27 0 0
-0.26 0 0
-0.25 0 0
-0.24 0 0
-0.23 0 0
-0.22 0 0
-0.21 0 0
-0.2 0 0
-0.19 0 0
-0.18 0 0
-0.17 0 0
-0.16 0 0
-0.15 0 0
-0.14 0 0
-0.13 0 0
-0.12 0 0
-0.11 0 0
-0.1 0 0
-0.09 0 0
-0.08 0 0
-0.07 0 0
-0.06 0 0
-0.05 0 0
-0.04 0 0
-0.03 0 0
-0.02 0 0
-0.01 0 0
1.01 0 0
1.02 0 0
1.03 0 0
1.04 0 0
1.05 0 0
1.06 0 0
1.07 0 0
1.08 0 0
1.09 0 0
1.1 0 0
1.11 0 0
1.12 0 0
1.13 0 0
1.14 0 0
1.15 0 0
1.16 0 0
1.17 0 0
1.18 0 0
1.19 0 0
1.2 0 0
1.21 0 0
1.22 0 0
1.23 0 0
1.24 0 0
1.25 0 0
1.26 0 0
1.27 0 0
1.28 0 0
1.29 0 0
1.3 0 0
1.31 0 0
1.32 0 0
1.33 0 0
1.34 0 0
1.35 0 0
1.36 0 0
1.37 0 0
1.38 0 0
1.39 0 0
1.4 0 0
1.41 0 0
1.42 0 0
1.43 0 0
1.44 0 0
1.45 0 0
1.46 0 0
1.47 0 0
1.48 0 0
1.49 0 0
1.5 0 0
1.51 0 0
1.52 0 0
1.53 0 0
1.54 0 0
1.55 0 0
1.56 0 0
1.57 0 0
1.58 0 0
1.59 0 0
1.6 0 0
1.61 0 0
1.62 0 0
1.63 0 0
1.64 0 0
1.65 0 0
1.66 0 0
1.67 0 0
1.68 0 0
1.69 0 0
1.7 0 0
1.71 0 0
1.72 0 0
1.73 0 0
1.74 0 0
1.75 0 0
1.76 0 0
1.77 0 0
1.78 0 0
1.79 0 0
1.8 0 0
1.81 0 0
1.82 0 0
1.83 0 0
1.84 0 0
1.85 0 0
1.86 0 0
1.87 0 0
1.88 0 0
1.89 0 0
1.9 0 0
1.91 0 0
1.92 0 0
1.93 0 0
1.94 0 0
1.95 0 0
1.96 0 0
1.97 0 0
1.98 0 0
1.99 0 0
2 0.010289 0
2 0.0215307 0
2 0.0338135 0
2 0.0472336 0
2 0.0618965 0
2 0.0779171 0
2 0.0954213 0
2 0.114546 0
2 0.135442 0
2 0.158274 0
2 0.183219 0
2 0.210474 0
2 0.240253 0
2 0.27279 0
2 0.308339 0
2 0.347181 0
2 0.389619 0
2 0.435987 0
2 0.486649 0
2 0.542002 0
2 0.602481 0
2 0.66856 0
2 0.740758 0
2 0.819642 0
2 0.90583 0
1.9 1 0
1.8 1 0
1.7 1 0
1.6 1 0
1.5 1 0
1.4 1 0
1.3 1 0
1.2 1 0
1.1 1 0
1 1 0
0.9 1 0
0.8 1 0
0.7 1 0
0.6 1 0
0.5 1 0
0.4 1 0
0.3 1 0
0.2 1 0
0.1 1 0
3.69793e-12 1 0
-0.1 1 0
-0.2 1 0
-0.3 1 0
-0.4 1 0
-0.5 1 0
-0.6 1 0
-0.7 1 0
-0.8 1 0
-0.9 1 0
-1 0.90583 0
-1 0.819642 0
-1 0.740758 0
-1 0.66856 0
-1 0.602481 0
-1 0.542002 0
-1 0.486649 0
-1 0.435987 0
-1 0.389619 0
-1 0.347181 0
-1 0.308339 0
-1 0.27279 0
-1 0.240253 0
-1 0.210474 0
-1 0.183219 0
-1 0.158274 0
-1 0.135442 0
-1 0.114546 0
-1 0.0954213 0
-1 0.0779171 0
-1 0.0618965 0
-1 0.0472336 0
-1 0.0338135 0
-1 0.0215307 0
-1 0.010289 0
0.00921362 0.00379763 0
0.0184561 0.00752451 0
0.0277268 0.0111804 0
0.0370253 0.0147652 0
0.0463511 0.0182786 0
0.0557034 0.0217203 0
0.0650819 0.0250903 0
0.074486 0.0283883 0
0.083915 0.0316141 0
0.0933685 0.0347675 0
0.102846 0.0378484 0
0.112347 0.0408565 0
0.12187 0.0437917 0
0.131416 0.0466538 0
0.140983 0.0494427 0
0.150572 0.0521581 0
0.160181 0.0547999 0
0.16981 0.0573681 0
0.179458 0.0598623 0
0.189125 0.0622825 0
0.198811 0.0646285 0
0.208514 0.0669001 0
0.218234 0.0690974 0
0.227971 0.07122 0
0.237724 0.073268 0
0.247493 0.0752411 0
0.257276 0.0771393 0
0.267073 0.0789625 0
0.276884 0.0807105 0
0.286708 0.0823832 0
0.296545 0.0839806 0
0.306394 0.0855025 0
0.316254 0.0869488 0
0.326125 0.0883196 0
0.336006 0.0896146 0
0.345896 0.0908339 0
0.355796 0.0919773 0
0.365704 0.0930447 0
0.375621 0.0940362 0
0.385544 0.0949517 0
0.395474 0.095791 0
0.40541 0.0965542 0
0.415352 0.0972412 0
0.425299 0.097852 0
0.43525 0.0983865 0
0.445205 0.0988447 0
0.455164 0.0992266 0
0.465125 0.0995321 0
0.475088 0.0997613 0
0.485052 0.0999141 0
0.495017 0.0999904 0
0.504983 0.0999904 0
0.514948 0.0999141 0
0.524912 0.0997613 0
0.534875 0.0995321 0
0.544836 0.0992266 0
0.554795 0.0988447 0
0.56475 0.0983865 0
0.574701 0.097852 0
0.584648 0.0972412 0
0.59459 0.0965542 0
0.604526 0.095791 0
0.614456 0.0949517 0
0.624379 0.0940362 0
0.634296 0.0930447 0
0.644204 0.0919773 0
0.654104 0.0908339 0
0.663994 0.0896146 0
0.673875 0.0883196 0
0.683746 0.0869488 0
0.693606 0.0855025 0
0.703455 0.0839806 0
0.713292 0.0823832 0
0.723116 0.0807105 0
0.732927 0.0789625 0
0.742724 0.0771393 0
0.752508 0.0752411 0
0.762276 0.073268 0
0.772029 0.07122 0
0.781766 0.0690974 0
0.791486 0.0669001 0
0.801189 0.0646285 0
0.810875 0.0622825 0
0.820542 0.0598623 0
0.83019 0.0573681 0
0.839819 0.0547999 0
0.849428 0.0521581 0
0.859017 0.0494427 0
0.868584 0.0466538 0
0.87813 0.0437917 0
0.887653 0.0408565 0
0.897154 0.0378484 0
0.906631 0.0347675 0
0.916085 0.0316141 0
0.925514 0.0283883 0
0.934918 0.0250903 0
0.944297 0.0217203 0
0.953649 0.0182786 0
0.962975 0.0147652 0
0.972273 0.0111804 0
0.981544 0.00752451 0
0.990786 0.00379763 0
-1 0.90583 0.1
-1 0.819642 0.1
-1 0.740758 0.1
-1 0.66856 0.1
-1 0.602481 0.1
-1 0.542002 0.1
-1 0.486649 0.1
-1 0.435987 0.1
-1 0.389619 0.1
-1 0.347181 0.1
-1 0.308339 0.1
-1 0.27279 0.1
-1 0.240253 0.1
-1 0.210474 0.1
-1 0.183219 0.1
-1 0.158274 0.1
-1 0.135442 0.1
-1 0.114546 0.1
-1 0.0954213 0.1
-1 0.0779171 0.1
-1 0.0618965 0.1
-1 0.0472336 0.1
-1 0.0338135 0.1
-1 0.0215307 0.1
-1 0.010289 0.1
-0.99 0 0.1
-0.98 0 0.1
-0.97 0 0.1
-0.96 0 0.1
-0.95 0 0.1
-0.94 0 0.1
-0.93 0 0.1
-0.92 0 0.1
-0.91 0 0.1
-0.9 0 0.1
-0.89 0 0.1
-0.88 0 0.1
-0.87 0 0.1
-0.86 0 0.1
-0.85 0 0.1
-0.84 0 0.1
-0.83 0 0.1
-0.82 0 0.1
-0.81 0 0.1
-0.8 0 0.1
-0.79 0 0.1
-0.78 0 0.1
-0.77 0 0.1
-0.76 0 0.1
-0.75 0 0.1
-0.74 0 0.1
-0.73 0 0.1
-0.72 0 0.1
-0.71 0 0.1
-0.7 0 0.1
-0.69 0 0.1
-0.68 0 0.1
-0.67 0 0.1
-0.66 0 0.1
-0.65 0 0.1
-0.64 0 0.1
-0.63 0 0.1
-0.62 0 0.1
-0.61 0 0.1
-0.6 0 0.1
-0.59 0 0.1
-0.58 0 0.1
-0.57 0 0.1
-0.56 0 0.1
-0.55 0 0.1
-0.54 0 0.1
-0.53 0 0.1
-0.52 0 0.1
-0.51 0 0.1
-0.5 0 0.1
-0.49 0 0.1
-0.48 0 0.1
-0.47 0 0.1
-0.46 0 0.1
-0.45 0 0.1
-0.44 0 0.1
-0.43 0 0.1
-0.42 0 0.1
-0.41 0 0.1
-0.4 0 0.1
-0.39 0 0.1
-0.38 0 0.1
-0.37 0 0.1
-0.36 0 0.1
-0.35 0 0.1
-0.34 0 0.1
-0.33 0 0.1
-0.32 0 0.1
-0.31 0 0.1
-0.3 0 0.1
-0.29 0 0.1
-0.28 0 0.1
-0.27 0 0.1
-0.26 0 0.1
-0.25 0 0.1
-0.24 0 0.1
-0.23 0 0.1
-0.22 0 0.1
-0.21 0 0.1
-0.2 0 0.1
-0.19 0 0.1
-0.18 0 0.1
-0.17 0 0.1
-0.16 0 0.1
-0.15 0 0.1
-0.14 0 0.1
-0.13 0 0.1
-0.12 0 0.1
-0.11 0 0.1
-0.1 0 0.1
-0.09 0 0.1
-0.08 0 0.1
-0.07 0 0.1
-0.06 0 0.1
-0.05 0 0.1
-0.04 0 0.1
-0.03 0 0.1
-0.02 0 0.1
-0.01 0 0.1
0.00921362 0.00379763 0.1
0.0184561 0.00752451 0.1
0.0277268 0.0111804 0.1
0.0370253 0.0147652 0.1
0.0463511 0.0182786 0.1
0.0557034 0.0217203 0.1
0.0650819 0.0250903 0.1
0.074486 0.0283883 0.1
0.083915 0.0316141 0.1
0.0933685 0.0347675 0.1
0.102846 0.0378484 0.1
0.112347 0.0408565 0.1
0.12187 0.0437917 0.1
0.131416 0.0466538 0.1
0.140983 0.0494427 0.1
0.150572 0.0521581 0.1
0.160181 0.0547999 0.1
0.16981 0.0573681 0.1
0.179458 0.0598623 0.1
0.189125 0.0622825 0.1
0.198811 0.0646285 0.1
0.208514 0.0669001 0.1
0.218234 0.0690974 0.1
0.227971 0.07122 0.1
0.237724 0.073268 0.1
0.247493 0.0752411 0.1
0.257276 0.0771393 0.1
0.267073 0.0789625 0.1
0.276884 0.0807105 0.1
0.286708 0.0823832 0.1
0.296545 0.0839806 0.1
0.306394 0.0855025 0.1
0.316254 0.0869488 0.1
0.326125 0.0883196 0.1
0.336006 0.0896146 0.1
0.345896 0.0908339 0.1
0.355796 0.0919773 0.1
0.365704 0.0930447 0.1
0.375621 0.0940362 0.1
0.385544 0.0949517 0.1
0.395474 0.095791 0.1
0.40541 0.0965542 0.1
0.415352 0.0972412 0.1
0.425299 0.097852 0.1
0.43525 0.0983865 0.1
0.445205 0.0988447 0.1
0.455164 0.0992266 0.1
0.465125 0.0995321 0.1
0.475088 0.0997613 0.1
0.485052 0.0999141 0.1
0.495017 0.0999904 0.1
0.504983 0.0999904 0.1
0.514948 0.0999141 0.1
0.524912 0.0997613 0.1
0.534875 0.0995321 0.1
0.544836 0.0992266 0.1
0.554795 0.0988447 0.1
0.56475 0.0983865 0.1
0.574701 0.097852 0.1
0.584648 0.0972412 0.1
0.59459 0.0965542 0.1
0.604526 0.095791 0.1
0.614456 0.0949517 0.1
0.624379 0.0940362 0.1
0.634296 0.0930447 0.1
0.644204 0.0919773 0.1
0.654104 0.0908339 0.1
0.663994 0.0896146 0.1
0.673875 0.0883196 0.1
0.683746 0.0869488 0.1
0.693606 0.0855025 0.1
0.703455 0.0839806 0.1
0.713292 0.0823832 0.1
0.723116 0.0807105 0.1
0.732927 0.0789625 0.1
0.742724 0.0771393 0.1
0.752508 0.0752411 0.1
0.762276 0.073268 0.1
0.772029 0.07122 0.1
0.781766 0.0690974 0.1
0.791486 0.0669001 0.1
0.801189 0.0646285 0.1
0.810875 0.0622825 0.1
0.820542 0.0598623 0.1
0.83019 0.0573681 0.1
0.839819 0.0547999 0.1
0.849428 0.0521581 0.1
0.859017 0.0494427 0.1
0.868584 0.0466538 0.1
0.87813 0.0437917 0.1
0.887653 0.0408565 0.1
0.897154 0.0378484 0.1
0.906631 0.0347675 0.1
0.916085 0.0316141 0.1
0.925514 0.0283883 0.1
0.934918 0.0250903 0.1
0.944297 0.0217203 0.1
0.953649 0.0182786 0.1
0.962975 0.0147652 0.1
0.972273 0.0111804 0.1
0.981544 0.00752451 0.1
0.990786 0.00379763 0.1
1.01 0 0.1
1.02 0 0.1
1.03 0 0.1
1.04 0 0.1
1.05 0 0.1
1.06 0 0.1
1.07 0 0.1
1.08 0 0.1
1.09 0 0.1
1.1 0 0.1
1.11 0 0.1
1.12 0 0.1
1.13 0 0.1
1.14 0 0.1
1.15 0 0.1
1.16 0 0.1
1.17 0 0.1
1.18 0 0.1
1.19 0 0.1
1.2 0 0.1
1.21 0 0.1
1.22 0 0.1
1.23 0 0.1
1.24 0 0.1
1.25 0 0.1
1.26 0 0.1
1.27 0 0.1
1.28 0 0.1
1.29 0 0.1
1.3 0 0.1
1.31 0 0.1
1.32 0 0.1
1.33 0 0.1
1.34 0 0.1
1.35 0 0.1
1.36 0 0.1
1.37 0 0.1
1.38 0 0.1
1.39 0 0.1
1.4 0 0.1
1.41 0 0.1
1.42 0 0.1
1.43 0 0.1
1.44 0 0.1
1.45 0 0.1
1.46 0 0.1
1.47 0 0.1
1.48 0 0.1
1.49 0 0.1
1.5 0 0.1
1.51 0 0.1
1.52 0 0.1
1.53 0 0.1
1.54 0 0.1
1.55 0 0.1
1.56 0 0.1
1.57 0 0.1
1.58 0 0.1
1.59 0 0.1
1.6 0 0.1
1.61 0 0.1
1.62 0 0.1
1.63 0 0.1
1.64 0 0.1
1.65 0 0.1
1.66 0 0.1
1.67 0 0.1
1.68 0 0.1
1.69 0 0.1
1.7 0 0.1
1.71 0 0.1
1.72 0 0.1
1.73 0 0.1
1.74 0 0.1
1.75 0 0.1
1.76 0 0.1
1.77 0 0.1
1.78 0 0.1
1.79 0 0.1
1.8 0 0.1
1.81 0 0.1
1.82 0 0.1
1.83 0 0.1
1.84 0 0.1
1.85 0 0.1
1.86 0 0.1
1.87 0 0.1
1.88 0 0.1
[...]
CELL_DATA 7425
SCALARS rho float
LOOKUP_TABLE default
0.590531
0.805194
0.820583
0.828366
0.80028
0.82014
0.821655
0.815394
0.814395
0.739817
0.863888
0.81042
0.81518
0.828223
0.80448
0.818256
0.799563
0.814629
0.803606
0.767909
0.832083
0.82231
0.726058
0.828905
0.804012
0.706077
0.831995
0.849575
0.800342
0.808496
0.820132
0.724431
0.803753
0.654844
0.525805
0.828872
0.803624
0.815374
0.811527
0.828791
0.718494
0.707302
0.79082
0.695876
0.590523
0.749094
0.800286
0.815119
0.670441
0.718318
0.746223
0.805311
0.812597
0.799895
0.707116
0.702651
0.823864
0.800716
0.739694
0.702592
0.71323
0.807833
0.814603
0.800164
0.798961
0.818692
0.587602
0.774249
0.696016
0.80844
0.80483
0.803278
0.883683
0.821387
0.811115
0.814452
0.805212
0.800605
0.814606
0.757841
0.817132
0.807415
0.811607
0.78915
0.836483
0.801853
0.577638
0.830703
0.54735
0.849065
0.699961
0.730977
0.846474
0.80331
0.818487
0.759932
0.836783
0.788432
0.826526
0.803299
0.809201
0.738445
0.803404
0.829028
0.600018
0.811434
0.825231
0.709573
0.8162
0.800012
0.817807
0.785098
0.790233
0.812614
0.790557
0.78676
0.83204
0.803177
0.695929
0.649223
0.805205
0.778195
0.814367
0.790784
0.859447
0.839857
0.807884
0.80506
0.663284
0.510699
0.815688
0.657805
0.521335
0.869336
0.671352
0.800373
0.811345
0.725123
0.585233
0.72732
0.725655
0.810286
0.810999
0.704299
0.803796
0.780039
0.568596
0.789686
0.782787
0.828629
0.817519
0.699271
0.803677
0.744371
0.702797
0.803403
0.810819
0.83123
0.798406
0.65738
0.802877
0.697246
0.801869
0.830574
0.821457
0.802533
0.814463
0.785694
0.80648
0.801456
0.820733
0.805308
0.792327
0.799972
0.800538
0.74216
0.804473
0.760418
0.59864
0.698061
0.800491
0.793689
0.880099
0.832569
0.672884
0.823876
0.799485
0.828115
0.800663
0.814734
0.814072
0.803331
0.807148
0.702315
0.816212
0.820248
0.770749
0.798096
0.862442
0.807998
0.812411
0.812577
0.615497
0.839914
0.576286
0.537796
0.598303
0.607815
0.828857
0.879643
0.807697
0.798838
0.841898
0.814402
0.817776
0.821759
0.816391
0.640065
0.569035
0.815029
0.55059
0.596985
0.700365
0.812844
0.815305
0.814453
0.833894
0.814383
0.865715
0.706833
0.835906
0.716245
0.805381
0.804059
0.802264
0.715622
0.723082
0.621603
0.701265
0.864088
0.877213
0.807419
0.807878
0.799867
0.812167
0.719092
0.822586
0.801042
0.826569
0.794931
0.811229
0.720396
0.814275
0.824668
0.741941
0.53281
0.800556
0.736261
0.844049
0.815563
0.725589
0.816739
0.816055
0.850417
0.810803
0.804773
0.80337
0.82655
0.861255
0.806261
0.621301
0.849461
0.81291
0.805774
0.828391
0.837923
0.814344
0.822359
0.793839
0.816272
0.868186
0.850416
0.828047
0.837472
0.803006
0.818264
0.803266
0.759843
0.704306
0.584065
0.696253
0.803346
0.814311
0.817139
0.856001
0.780162
0.647746
0.827953
0.52727
0.77522
0.801742
0.648421
0.5114
0.641128
0.816391
0.814604
0.8144
0.81401
0.827593
0.774836
0.811664
0.802811
0.814381
0.841395
0.868801
0.834306
0.803166
0.69845
0.796771
0.834869
0.6934
0.799582
0.8023
0.865207
0.818207
0.595736
0.814722
0.742641
0.853561
0.733797
0.811428
0.907814
0.800719
0.796175
0.661066
0.637673
0.708979
0.781855
0.827407
0.816139
0.814999
0.884421
0.859333
0.800385
0.799939
0.826306
0.740988
0.8028
0.879734
0.801494
0.805586
0.801504
0.802708
0.814317
0.816886
0.817502
0.639427
0.830704
0.651007
0.809002
0.642512
0.803598
0.802445
0.840975
0.731296
0.81658
0.809677
0.818085
0.800248
0.802632
0.81156
0.701336
0.824741
0.814459
0.81428
0.800813
0.737098
0.563066
0.806588
0.812415
0.803299
0.814358
0.795291
0.519585
0.846847
0.814653
0.803982
0.786606
0.814627
0.805311
0.803703
0.817379
0.807683
0.823459
0.769457
0.813381
0.807989
0.565867
0.803946
0.642137
0.83929
0.638346
0.81588
0.87826
0.599794
0.818647
0.750232
0.804575
0.87368
0.5397
0.824049
0.823221
0.803621
0.826632
0.811648
0.824394
0.831451
0.825723
0.741776
0.828383
0.761682
0.810879
0.794546
0.794507
0.759758
0.805821
0.802177
0.815522
0.754125
0.805264
0.607195
0.616891
0.692787
0.814174
0.844817
0.865299
0.830634
0.799441
0.814105
0.805491
0.819418
0.682375
0.801699
0.74412
0.824679
0.815941
0.806301
0.708733
0.728807
0.538299
0.607988
0.802036
0.613671
0.793626
0.765582
0.770866
0.725878
0.763612
0.768756
0.81076
0.816141
0.820578
0.812875
0.713364
0.609776
0.839709
0.808025
0.783623
0.810716
0.803033
0.837294
0.721558
0.855826
0.763935
0.73125
0.765854
0.812681
0.549527
0.799664
0.842292
0.813967
0.815084
0.811009
0.800041
0.781579
0.836297
0.803221
0.843635
0.722113
0.704696
0.800917
0.796038
0.822977
0.710854
0.84857
0.801301
0.817183
0.799545
0.779691
0.809124
0.597332
0.679309
0.634471
0.814208
0.80456
0.827215
0.750363
0.810778
0.816018
0.821392
0.799826
0.731962
0.798003
0.815165
0.803305
0.707385
0.814909
0.819898
0.840763
0.81218
0.826239
0.862693
0.857728
0.745679
0.606048
0.838576
0.806449
0.843895
0.815484
0.823558
0.814851
0.8151
0.651377
0.806101
0.810286
0.814295
0.792739
0.811322
0.805562
0.861936
0.799515
0.814211
0.815935
0.872325
0.600298
0.814786
0.84345
0.883604
0.53492
0.817536
0.830673
0.796414
0.814979
0.795828
0.868028
0.813006
0.832157
0.813604
0.621763
0.802643
0.804314
0.69464
0.853597
0.759608
0.802083
0.815242
0.814102
0.861084
0.795626
0.834259
0.83548
0.785517
0.825814
0.843308
0.80058
0.811313
0.807782
0.805489
0.815882
0.802762
0.845827
0.769528
0.809962
0.803415
0.815982
0.724979
0.814352
0.81942
0.753702
0.814904
0.817218
0.828393
0.826011
0.801503
0.801281
0.850971
0.767958
0.826048
0.844828
0.804714
0.51223
0.814315
0.829134
0.852845
0.813805
0.803223
0.80899
0.855513
0.780285
0.802728
0.801952
0.81439
0.73011
0.803364
0.830659
0.808942
0.795276
0.794668
0.843859
0.806778
0.845818
0.802115
0.825176
0.814072
0.804369
0.842376
0.814283
0.682545
0.819834
0.807277
0.814144
0.90631
0.801383
0.816833
0.801023
0.801044
0.817349
0.801143
0.803563
0.78372
0.747237
0.807691
0.814359
0.759176
0.792536
0.823955
0.813206
0.823224
0.80687
0.826671
0.87564
0.831467
0.582091
0.710219
0.841441
0.818393
0.844767
0.815951
0.850636
0.808171
0.813147
0.800152
0.839093
0.861424
0.853355
0.733341
0.815364
0.8231
0.743532
0.817956
0.776276
0.800811
0.734735
0.817217
0.831683
0.823751
0.863344
0.815455
0.814664
0.811424
0.815846
0.836443
0.812408
0.799488
0.81042
0.739344
0.812773
0.774271
0.833548
0.813598
0.640868
0.778137
0.811925
0.799983
0.820856
0.8033
0.815879
0.818405
0.805103
0.820416
0.804312
0.806724
0.602304
0.847667
0.82603
0.827587
0.81574
0.803348
0.703389
0.807414
0.907998
0.814834
0.801914
0.814203
0.782779
0.808143
0.814541
0.822279
0.814865
0.814603
0.817389
0.692718
0.778975
0.765945
0.814056
0.805908
0.801901
0.623767
0.806568
0.803423
0.710246
0.837998
0.818305
0.802839
0.808228
0.800113
0.81833
0.814734
0.814658
0.814353
0.711087
0.832408
0.800533
0.8083
0.843656
0.818411
0.817424
0.800937
0.75372
0.824701
0.788526
0.822412
0.78981
0.806559
0.821954
0.73789
0.818356
0.657321
0.872434
0.706026
0.845648
0.801939
0.875494
0.794214
0.802144
0.82168
0.83705
0.839044
0.826299
0.820858
0.815855
0.802155
0.804413
0.808714
0.728842
0.827857
0.800251
0.718715
0.831252
0.69756
0.800883
0.861788
0.805791
0.705716
0.798152
0.815366
0.701783
0.785703
0.820409
0.832518
0.808181
0.598248
0.731517
0.812626
0.802217
0.814389
0.801436
0.738476
0.815266
0.816893
0.813949
0.7763
0.803379
0.804696
0.804496
0.563591
0.814188
0.834695
0.584719
0.81637
0.817261
0.815927
0.819433
0.81566
0.825454
0.799969
0.795373
0.770934
0.823456
0.830233
0.825659
0.83597
0.766385
0.810309
0.727488
0.772797
0.809619
0.822072
0.81464
0.801116
0.859572
0.814389
0.801457
0.810929
0.817226
0.816388
0.83737
0.81574
0.814238
0.812163
0.815119
0.80105
0.821981
0.80397
0.823789
0.814811
0.580326
0.814852
0.835232
0.859345
0.838898
0.498775
0.81793
0.805357
0.503245
0.672909
0.650108
0.834983
0.808773
0.811836
0.814185
0.803268
0.817876
0.811543
0.539166
0.690176
0.81873
0.806796
0.816781
0.803642
0.810531
0.81231
0.821204
0.800219
0.696437
0.857302
0.803218
0.81495
0.814917
0.758828
0.493854
0.833683
0.814161
0.741479
0.802771
0.807161
0.597184
0.828207
0.815964
0.828589
0.819841
0.826876
0.804895
0.722804
0.645568
0.565234
0.826227
0.809423
0.783163
0.814397
0.780945
0.818978
0.873659
0.763385
0.822596
0.814771
0.826721
0.883889
0.815677
0.813182
0.803468
0.81405
0.694406
0.829068
0.80058
0.81109
0.802496
0.78465
0.854719
0.823001
0.841017
0.82251
0.757343
0.756674
0.804185
0.819132
0.80315
0.805407
0.802808
0.776864
0.815895
0.762748
0.821995
0.663983
0.815237
0.80316
0.734869
0.823885
0.818886
0.741181
0.801357
0.758378
0.882581
0.800858
0.814323
0.763848
0.800979
0.815533
0.804092
0.592843
0.821592
0.799491
0.802481
0.815768
0.826461
0.758416
0.806363
0.842672
0.827797
0.814627
0.836588
0.691661
0.701702
0.814389
0.745326
0.82319
0.772332
0.814312
0.802733
0.811202
0.753081
0.794468
0.765569
0.811134
0.803214
0.633227
0.779381
0.799407
0.850204
0.815622
0.829504
0.531981
0.825613
0.78561
0.859251
0.80109
0.818579
0.801153
0.786746
0.799576
0.82654
0.836324
0.822405
0.8182
0.7045
0.774975
0.816376
0.80554
0.811405
0.804048
0.702837
0.793708
0.804059
0.811489
0.827931
0.851675
0.832656
0.814808
0.800276
0.80495
0.80267
0.780222
0.614221
0.801427
0.733364
0.66403
0.823705
0.799637
0.777235
0.800771
0.755251
0.785679
0.812939
0.822905
0.804261
0.817138
0.818216
0.821312
0.814744
0.809292
0.713528
0.701011
0.642881
0.830121
0.869981
0.816045
0.842118
0.848421
0.864137
0.738131
0.817524
0.86345
0.811161
0.814363
0.817029
0.734466
0.813591
0.807548
0.807044
0.52281
0.814404
0.762104
0.814526
0.814019
0.803669
0.702665
0.814559
0.613175
0.825664
0.802989
0.822876
0.855709
0.803572
0.795647
0.821932
0.81286
0.806209
0.763138
0.516742
0.82188
0.803264
0.829882
0.826652
0.803243
0.807202
0.835121
0.722644
0.507825
0.886551
0.801562
0.816865
0.804474
0.708159
0.799471
0.800814
0.816273
0.738503
0.648505
0.883536
0.715793
0.837287
0.813315
0.833675
0.84332
0.79332
0.804896
0.814886
0.853242
0.739514
0.871056
0.815297
0.565972
0.803321
0.748434
0.853476
0.761662
0.804364
0.80409
0.800393
0.801979
0.81018
0.814383
0.856694
0.806807
0.802946
0.801423
0.800767
0.813724
0.817995
0.802718
0.81397
0.849809
0.803163
0.784414
0.802399
0.840524
0.728064
0.814948
0.815096
0.659102
0.71475
0.805777
0.823924
0.804485
0.517961
0.857608
0.814466
0.833904
0.805469
0.80342
0.80169
0.787281
0.589663
0.804509
0.817256
0.836599
0.821574
0.814399
0.799295
0.748738
0.801779
0.7673
0.787943
0.800145
0.791294
0.751033
0.801559
0.812171
0.811677
0.832833
0.850181
0.557654
0.842581
0.814334
0.821062
0.802694
0.82292
0.812563
0.894858
0.801012
0.868661
0.805892
0.761134
0.862527
0.802439
0.800393
0.825034
0.662419
0.647339
0.803522
0.804028
0.695209
0.656286
0.800049
0.824772
0.814451
0.823548
0.734809
0.817966
0.814235
0.827024
0.817899
0.812135
0.814355
0.755694
0.804705
0.816826
0.812818
0.677965
0.56973
0.814392
0.65193
0.723235
0.558622
0.842065
0.800894
0.533826
0.603432
0.828144
0.908231
0.819215
0.654361
0.815409
0.78739
0.802426
0.78683
0.821544
0.811113
0.788684
0.822002
0.802098
0.59102
0.818903
0.767817
0.817047
0.697853
0.823181
0.790632
0.815218
0.800886
0.664831
0.844031
0.807331
0.807452
0.501098
0.817951
0.801107
0.853397
0.709443
0.818197
0.592598
0.72223
0.802094
0.797561
0.735339
0.717636
0.713851
0.514158
0.603848
0.800851
0.524625
0.823559
0.531468
0.758266
0.674822
0.610711
0.547031
0.746603
0.803159
0.712766
0.822286
0.801483
0.803544
0.762248
0.889955
0.799885
0.825392
0.803617
0.814262
0.707478
0.808342
0.737949
0.822885
0.886342
0.834257
0.749027
0.823731
0.771562
0.880203
0.804344
0.759714
0.851271
0.777888
0.800075
0.806176
0.759296
0.746756
0.673648
0.805141
0.803108
0.818934
0.834252
0.613689
0.808785
0.543304
0.670419
0.622728
0.81937
0.822028
0.81027
0.804119
0.617943
0.872802
0.802771
0.803019
0.86399
0.813913
0.772824
0.813648
0.802503
0.818985
0.803206
0.718459
0.804016
0.660625
0.799796
0.805067
0.801848
0.641116
0.812361
0.811062
0.725991
0.818603
0.553483
0.579912
0.804308
0.698094
0.727233
0.575166
0.725671
0.814938
0.703334
0.773629
0.71499
0.813498
0.672111
0.763152
0.806973
0.811815
0.657524
0.802182
0.895398
0.79701
0.81792
0.590755
0.695592
0.802047
0.814396
0.815268
0.852154
0.814025
0.804458
0.803896
0.803464
0.715533
0.716117
0.618279
0.772695
0.540548
0.72257
0.811187
0.815621
0.806943
0.800111
0.562639
0.810308
0.803897
0.558415
0.548951
0.747744
0.803709
0.807165
0.553111
0.798683
0.573023
0.723757
0.610559
0.814103
0.802926
0.600013
0.610871
0.868315
0.810633
0.766443
0.719935
0.626833
0.657268
0.706384
0.817118
0.760811
0.765356
0.626486
0.75514
0.810526
0.816542
0.813919
0.816656
0.86702
0.756082
0.819964
0.80355
0.851807
0.814345
0.802897
0.814458
0.720905
0.814038
0.813105
0.816295
0.812293
0.816987
0.803378
0.818978
0.811551
0.810928
0.818331
0.800276
0.817673
0.819997
0.669382
0.819661
0.868842
0.81923
0.793242
0.64793
0.859089
0.819842
0.825799
0.800359
0.812688
0.757469
0.853111
0.571889
0.729508
0.810053
0.816837
0.80402
0.803484
0.832844
0.805675
0.805809
0.816457
0.781604
0.839263
0.842588
0.816099
0.666237
0.62164
0.816929
0.81771
0.789492
0.850221
0.847816
0.811715
0.814731
0.7788
0.815309
0.818895
0.815344
0.819827
0.813915
0.816987
0.851619
0.817126
0.815629
0.818646
0.818838
0.785361
0.815234
0.804854
0.805026
0.805361
0.819627
0.812935
0.789301
0.753744
0.814007
0.806446
0.810048
0.806552
0.858207
0.804036
0.815205
0.814115
0.805859
0.686054
0.804054
0.814169
0.81585
0.81053
0.814221
0.814632
0.814421
0.810359
0.864787
0.50854
0.814258
0.842291
0.814058
0.803224
0.808845
0.816206
0.840372
0.801242
0.802099
0.813311
0.696674
0.814282
0.808914
0.808197
0.813915
0.814292
0.814416
0.814707
0.518595
0.812348
0.719158
0.886127
0.821983
0.732591
0.680163
0.816547
0.804077
0.819437
0.648545
0.802116
0.814683
0.649975
0.800665
0.804375
0.816312
0.807009
0.857264
0.810024
0.609497
0.801486
0.775279
0.811436
0.889348
0.804136
0.815726
0.819954
0.832774
0.81474
0.823358
0.837041
0.637142
0.803558
0.65776
0.81504
0.814948
0.710292
0.814843
0.805833
0.711253
0.815878
0.704806
0.861561
0.784494
0.815546
0.814336
0.814747
0.670526
0.814962
0.635239
0.800854
0.792716
0.823232
0.816373
0.718013
0.766766
0.830869
0.814098
0.821943
0.82287
0.814772
0.826229
0.800264
0.555492
0.754622
0.760433
0.730362
0.838326
0.823251
0.835023
0.777377
0.802881
0.814439
0.814389
0.814388
0.775342
0.567007
0.803309
0.535263
0.80903
0.825158
0.800497
0.803891
0.81385
0.806228
0.783668
0.733004
0.814726
0.859585
0.814534
0.800052
0.736232
0.810271
0.789115
0.834282
0.512319
0.796232
0.807035
0.799686
0.694547
0.814222
0.811736
0.858313
0.572113
0.807561
0.80337
0.814141
0.617822
0.81447
0.803433
0.803521
0.803141
0.814566
0.81465
0.817211
0.814445
0.715738
0.804691
0.803301
0.814411
0.896388
0.814519
0.775039
0.841989
0.799347
0.803219
0.603995
0.814317
0.80346
0.826518
0.802372
0.866667
0.81568
0.854491
0.801143
0.821614
0.778464
0.561892
0.754225
0.795263
0.805055
0.814115
0.815066
0.559054
0.862184
0.85913
0.769792
0.757974
0.738202
0.812947
0.849376
0.814348
0.814317
0.814382
0.804419
0.725994
0.803631
0.79989
0.764182
0.825154
0.823932
0.862237
0.816774
0.814399
0.544981
0.80906
0.81436
0.801383
0.774927
0.818282
0.803187
0.814208
0.827747
0.798716
0.804199
0.801765
0.816086
0.839786
0.803154
0.799907
0.802342
0.765945
0.82087
0.570412
0.868738
0.803855
0.549474
0.803871
0.803955
0.820329
0.606579
0.608906
0.80224
0.804444
0.801593
0.861136
0.780261
0.815608
0.803065
0.867242
0.804866
0.804596
0.826951
0.81693
0.820931
0.822223
0.821296
0.867842
0.730578
0.852616
0.818261
0.655714
0.803176
0.803321
0.803779
0.822089
0.824401
0.804555
0.801801
0.800804
0.823609
0.803783
0.803788
0.80045
0.825282
0.804116
0.802379
0.806242
0.828677
0.801395
0.80221
0.825178
0.800306
0.816545
0.65335
0.827249
0.850352
0.805396
0.820581
0.803424
0.829569
0.838195
0.803512
0.822425
0.801134
0.807747
0.78981
0.802508
0.803756
0.806516
0.806446
0.805259
0.819559
0.815946
0.811491
0.832189
0.802977
0.802452
0.800663
0.789301
0.834503
0.803356
0.820313
0.816377
0.807586
0.805718
0.803029
0.839553
0.866147
0.800363
0.680665
0.801694
0.842796
0.817689
0.805946
0.804608
0.820242
0.845168
0.613305
0.829651
0.795483
0.851582
0.819746
0.812328
0.813787
0.808994
0.804101
0.813185
0.809067
0.594291
0.848568
0.795016
0.815419
0.855112
0.82029
0.764198
0.809154
0.815669
0.816513
0.803129
0.663707
0.810026
0.863605
0.803384
0.801276
0.776619
0.871566
0.80096
0.877393
0.807436
0.818234
0.821588
0.803086
0.804431
0.813975
0.817008
0.804284
0.814619
0.817484
0.88166
0.821235
0.809474
0.800971
0.829127
0.810672
0.839791
0.809412
0.807109
0.812939
0.817649
0.83057
0.814902
0.823389
0.833164
0.814972
0.703148
0.695615
0.814398
0.8188
0.804656
0.814421
0.522027
0.855308
0.800458
0.806386
0.815099
0.814746
0.804156
0.813797
0.801196
0.801798
0.808729
0.815522
0.758383
0.785504
0.823853
0.843697
0.835465
0.801019
0.806053
0.80347
0.813129
0.806277
0.800301
0.800516
0.801552
0.811605
0.798084
0.803557
0.836214
0.832193
0.732218
0.697741
0.807827
0.702792
0.800332
0.583061
0.804627
0.807441
0.803855
0.819205
0.834655
0.815178
0.814253
0.810485
0.804042
0.881838
0.817378
0.805636
0.772919
0.594951
0.810415
0.807414
0.770115
0.815624
0.815134
0.791806
0.800947
0.804218
0.638604
0.831045
0.803625
0.782713
0.779885
0.85319
0.810153
0.803685
0.803454
0.810924
0.811337
0.525624
0.802304
0.840168
0.815179
0.798862
0.5928
0.815176
0.815305
0.814379
0.834473
0.815167
0.804249
0.822835
0.806191
0.578779
0.808968
0.738525
0.798875
0.814917
0.723347
0.816105
0.847038
0.832174
0.666446
0.891143
0.786031
0.778619
0.797127
0.779777
0.809232
0.851051
0.808748
0.803184
0.814841
0.810069
0.78312
0.786366
0.815098
0.809121
0.83543
0.822154
0.836271
0.802305
0.800294
0.814432
0.85712
0.817326
0.819057
0.814665
0.60977
0.795825
0.824706
0.82992
0.866329
0.814028
0.819561
0.51573
0.810974
0.801297
0.813892
0.815574
0.848127
0.814412
0.811268
0.881791
0.765562
0.812985
0.814547
0.810203
0.805403
0.815447
0.657844
0.800731
0.850099
0.834074
0.811352
0.814591
0.81468
0.809733
0.702675
0.813549
0.801002
0.839252
0.819477
0.812433
0.831978
0.793765
0.812628
0.818829
0.809632
0.820289
0.746189
0.855816
0.819972
0.814586
0.814421
0.814084
0.816771
0.818183
0.81414
0.81189
0.841694
0.819609
0.800942
0.825809
0.827692
0.81683
0.814943
0.801114
0.802021
0.814425
0.820035
0.829957
0.814195
0.817496
0.800663
0.811087
0.814239
0.814158
0.802626
0.815856
0.814628
0.803491
0.81427
0.836345
0.800217
0.810584
0.822365
0.564137
0.815418
0.819188
0.816452
0.816078
0.822884
0.829542
0.816727
0.819851
0.703017
0.814438
0.801902
0.816752
0.819758
0.835649
0.822508
0.816192
0.830174
0.825816
0.812029
0.81938
0.820361
0.805281
0.81451
0.816739
0.81999
0.832876
0.813962
0.816826
0.802844
0.814346
0.814401
0.530687
0.631787
0.81455
0.822388
0.80241
0.823328
0.817027
0.842572
0.709608
0.815007
0.732345
0.818188
0.811482
0.814507
0.830027
0.814926
0.805738
0.814326
0.830709
0.840319
0.814117
0.720588
0.819753
0.817123
0.800628
0.80311
0.816461
0.856397
0.814015
0.814685
0.850229
0.829614
0.843754
0.580367
0.829893
0.81518
0.812039
0.81846
0.851651
0.818811
0.71973
0.800321
0.832293
0.800624
0.800475
0.805886
0.748959
0.814705
0.815525
0.727476
0.815523
0.827865
0.814607
0.81521
0.80003
0.819388
0.814387
0.824352
0.808869
0.809152
0.816026
0.698513
0.82008
0.815269
0.814382
0.643145
0.716948
0.601916
0.82379
0.540593
0.854998
0.728592
0.843501
0.813847
0.725959
0.822028
0.816945
0.743717
0.808118
0.819381
0.794521
0.817571
0.816983
0.816913
0.814383
0.809085
0.803789
0.738491
0.837062
0.821097
0.817666
0.799963
0.815887
0.802879
0.817121
0.814721
0.855705
0.818793
0.505761
0.814363
0.819799
0.819679
0.778522
0.816191
0.806884
0.819003
0.846399
0.599376
0.809897
0.800135
0.816463
0.818659
0.81872
0.813798
0.819617
0.81493
0.815678
0.803187
0.815362
0.846713
0.8151
0.792322
0.812724
0.624951
0.717526
0.814437
0.818059
0.803307
0.823227
0.735081
0.803213
0.803233
0.82118
0.702791
0.818645
0.800188
0.816559
0.866107
0.785898
0.82288
0.819014
0.823598
0.815253
0.770267
0.802633
0.814829
0.902477
0.8277
0.817522
0.832761
0.810925
0.869754
0.717892
0.697938
0.85334
0.802798