# vtk DataFile Version 1.0
unstructured grid
ascii
DATASET UNSTRUCTURED_GRID
points 7812 float
-1 0 0
-1 1 0
2 0 0
2 1 0
0 0 0
1 0 0
-1 1 0.1
-1 0 0.1
0 0 0.1
1 0 0.1
2 0 0.1
2 1 0.1
-0.99 0 0
-0.98 0 0
-0.97 0 0
-0.96 0 0
-0.95 0 0
-0.94 0 0
-0.93 0 0
-0.92 0 0
-0.91 0 0
-0.9 0 0
-0.89 0 0
-0.88 0 0
-0.87 0 0
-0.86 0 0
-0.85 0 0
-0.84 0 0
-0.83 0 0
-0.82 0 0
-0.81 0 0
-0.8 0 0
-0.79 0 0
-0.78 0 0
-0.77 0 0
-0.76 0 0
-0.75 0 0
-0.74 0 0
-0.73 0 0
-0.72 0 0
-0.71 0 0
-0.7 0 0
-0.69 0 0
-0.68 0 0
-0.67 0 0
-0.66 0 0
-0.65 0 0
-0.64 0 0
-0.63 0 0
-0.62 0 0
-0.61 0 0
-0.6 0 0
-0.59 0 0
-0.58 0 0
-0.57 0 0
-0.56 0 0
-0.55 0 0
-0.54 0 0
-0.53 0 0
-0.52 0 0
-0.51 0 0
-0.5 0 0
-0.49 0 0
-0.48 0 0
-0.47 0 0
-0.46 0 0
-0.45 0 0
-0.44 0 0
-0.43 0 0
-0.42 0 0
-0.41 0 0
-0.4 0 0
-0.39 0 0
-0.38 0 0
-0.37 0 0
-0.36 0 0
-0.35 0 0
-0.34 0 0
-0.33 0 0
-0.32 0 0
-0.31 0 0
-0.3 0 0
-0.29 0 0
-0.28 0 0
-0.27 0 0
-0.26 0 0
-0.25 0 0
-0.24 0 0
-0.23 0 0
-0.22 0 0
-0.21 0 0
-0.2 0 0
-0.19 0 0
-0.18 0 0
-0.17 0 0
-0.16 0 0
-0.15 0 0
-0.14 0 0
-0.13 0 0
-0.12 0 0
-0.11 0 0
-0.1 0 0
-0.09 0 0
-0.08 0 0
-0.07 0 0
-0.06 0 0
-0.05 0 0
-0.04 0 0
-0.03 0 0
-0.02 0 0
-0.01 0 0
1.01 0 0
1.02 0 0
1.03 0 0
1.04 0 0
1.05 0 0
1.06 0 0
1.07 0 0
1.08 0 0
1.09 0 0
1.1 0 0
1.11 0 0
1.12 0 0
1.13 0 0
1.14 0 0
1.15 0 0
1.16 0 0
1.17 0 0
1.18 0 0
1.19 0 0
1.2 0 0
1.21 0 0
1.22 0 0
1.23 0 0
1.24 0 0
1.25 0 0
1.26 0 0
1.27 0 0
1.28 0 0
1.29 0 0
1.3 0 0
1.31 0 0
1.32 0 0
1.33 0 0
1.34 0 0
1.35 0 0
1.36 0 0
1.37 0 0
1.38 0 0
1.39 0 0
1.4 0 0
1.41 0 0
1.42 0 0
1.43 0 0
1.44 0 0
1.45 0 0
1.46 0 0
1.47 0 0
1.48 0 0
1.49 0 0
1.5 0 0
1.51 0 0
1.52 0 0
1.53 0 0
1.54 0 0
1.55 0 0
1.56 0 0
1.57 0 0
1.58 0 0
1.59 0 0
1.6 0 0
1.61 0 0
1.62 0 0
1.63 0 0
1.64 0 0
1.65 0 0
1.66 0 0
1.67 0 0
1.68 0 0
1.69 0 0
1.7 0 0
1.71 0 0
1.72 0 0
1.73 0 0
1.74 0 0
1.75 0 0
1.76 0 0
1.77 0 0
1.78 0 0
1.79 0 0
1.8 0 0
1.81 0 0
1.82 0 0
1.83 0 0
1.84 0 0
1.85 0 0
1.86 0 0
1.87 0 0
1.88 0 0
1.89 0 0
1.9 0 0
1.91 0 0
1.92 0 0
1.93 0 0
1.94 0 0
1.95 0 0
1.96 0 0
1.97 0 0
1.98 0 0
1.99 0 0
2 0.010289 0
2 0.0215307 0
2 0.0338135 0
2 0.0472336 0
2 0.0618965 0
2 0.0779171 0
2 0.0954213 0
2 0.114546 0
2 0.135442 0
2 0.158274 0
2 0.183219 0
2 0.210474 0
2 0.240253 0
2 0.27279 0
2 0.308339 0
2 0.347181 0
2 0.389619 0
2 0.435987 0
2 0.486649 0
2 0.542002 0
2 0.602481 0
2 0.66856 0
2 0.740758 0
2 0.819642 0
2 0.90583 0
1.9 1 0
1.8 1 0
1.7 1 0
1.6 1 0
1.5 1 0
1.4 1 0
1.3 1 0
1.2 1 0
1.1 1 0
1 1 0
0.9 1 0
0.8 1 0
0.7 1 0
0.6 1 0
0.5 1 0
0.4 1 0
0.3 1 0
0.2 1 0
0.1 1 0
3.69793e-12 1 0
-0.1 1 0
-0.2 1 0
-0.3 1 0
-0.4 1 0
-0.5 1 0
-0.6 1 0
-0.7 1 0
-0.8 1 0
-0.9 1 0
-1 0.90583 0
-1 0.819642 0
-1 0.740758 0
-1 0.66856 0
-1 0.602481 0
-1 0.542002 0
-1 0.486649 0
-1 0.435987 0
-1 0.389619 0
-1 0.347181 0
-1 0.308339 0
-1 0.27279 0
-1 0.240253 0
-1 0.210474 0
-1 0.183219 0
-1 0.158274 0
-1 0.135442 0
-1 0.114546 0
-1 0.0954213 0
-1 0.0779171 0
-1 0.0618965 0
-1 0.0472336 0
-1 0.0338135 0
-1 0.0215307 0
-1 0.010289 0
0.00921362 0.00379763 0
0.0184561 0.00752451 0
0.0277268 0.0111804 0
0.0370253 0.0147652 0
0.0463511 0.0182786 0
0.0557034 0.0217203 0
0.0650819 0.0250903 0
0.074486 0.0283883 0
0.083915 0.0316141 0
0.0933685 0.0347675 0
0.102846 0.0378484 0
0.112347 0.0408565 0
0.12187 0.0437917 0
0.131416 0.0466538 0
0.140983 0.0494427 0
0.150572 0.0521581 0
0.160181 0.0547999 0
0.16981 0.0573681 0
0.179458 0.0598623 0
0.189125 0.0622825 0
0.198811 0.0646285 0
0.208514 0.0669001 0
0.218234 0.0690974 0
0.227971 0.07122 0
0.237724 0.073268 0
0.247493 0.0752411 0
0.257276 0.0771393 0
0.267073 0.0789625 0
0.276884 0.0807105 0
0.286708 0.0823832 0
0.296545 0.0839806 0
0.306394 0.0855025 0
0.316254 0.0869488 0
0.326125 0.0883196 0
0.336006 0.0896146 0
0.345896 0.0908339 0
0.355796 0.0919773 0
0.365704 0.0930447 0
0.375621 0.0940362 0
0.385544 0.0949517 0
0.395474 0.095791 0
0.40541 0.0965542 0
0.415352 0.0972412 0
0.425299 0.097852 0
0.43525 0.0983865 0
0.445205 0.0988447 0
0.455164 0.0992266 0
0.465125 0.0995321 0
0.475088 0.0997613 0
0.485052 0.0999141 0
0.495017 0.0999904 0
0.504983 0.0999904 0
0.514948 0.0999141 0
0.524912 0.0997613 0
0.534875 0.0995321 0
0.544836 0.0992266 0
0.554795 0.0988447 0
0.56475 0.0983865 0
0.574701 0.097852 0
0.584648 0.0972412 0
0.59459 0.0965542 0
0.604526 0.095791 0
0.614456 0.0949517 0
0.624379 0.0940362 0
0.634296 0.0930447 0
0.644204 0.0919773 0
0.654104 0.0908339 0
0.663994 0.0896146 0
0.673875 0.0883196 0
0.683746 0.0869488 0
0.693606 0.0855025 0
0.703455 0.0839806 0
0.713292 0.0823832 0
0.723116 0.0807105 0
0.732927 0.0789625 0
0.742724 0.0771393 0
0.752508 0.0752411 0
0.762276 0.073268 0
0.772029 0.07122 0
0.781766 0.0690974 0
0.791486 0.0669001 0
0.801189 0.0646285 0
0.810875 0.0622825 0
0.820542 0.0598623 0
0.83019 0.0573681 0
0.839819 0.0547999 0
0.849428 0.0521581 0
0.859017 0.0494427 0
0.868584 0.0466538 0
0.87813 0.0437917 0
0.887653 0.0408565 0
0.897154 0.0378484 0
0.906631 0.0347675 0
0.916085 0.0316141 0
0.925514 0.0283883 0
0.934918 0.0250903 0
0.944297 0.0217203 0
0.953649 0.0182786 0
0.962975 0.0147652 0
0.972273 0.0111804 0
0.981544 0.00752451 0
0.990786 0.00379763 0
-1 0.90583 0.1
-1 0.819642 0.1
-1 0.740758 0.1
-1 0.66856 0.1
-1 0.602481 0.1
-1 0.542002 0.1
-1 0.486649 0.1
-1 0.435987 0.1
-1 0.389619 0.1
-1 0.347181 0.1
-1 0.308339 0.1
-1 0.27279 0.1
-1 0.240253 0.1
-1 0.210474 0.1
-1 0.183219 0.1
-1 0.158274 0.1
-1 0.135442 0.1
-1 0.114546 0.1
-1 0.0954213 0.1
-1 0.0779171 0.1
-1 0.0618965 0.1
-1 0.0472336 0.1
-1 0.0338135 0.1
-1 0.0215307 0.1
-1 0.010289 0.1
-0.99 0 0.1
-0.98 0 0.1
-0.97 0 0.1
-0.96 0 0.1
-0.95 0 0.1
-0.94 0 0.1
-0.93 0 0.1
-0.92 0 0.1
-0.91 0 0.1
-0.9 0 0.1
-0.89 0 0.1
-0.88 0 0.1
-0.87 0 0.1
-0.86 0 0.1
-0.85 0 0.1
-0.84 0 0.1
-0.83 0 0.1
-0.82 0 0.1
-0.81 0 0.1
-0.8 0 0.1
-0.79 0 0.1
-0.78 0 0.1
-0.77 0 0.1
-0.76 0 0.1
-0.75 0 0.1
-0.74 0 0.1
-0.73 0 0.1
-0.72 0 0.1
-0.71 0 0.1
-0.7 0 0.1
-0.69 0 0.1
-0.68 0 0.1
-0.67 0 0.1
-0.66 0 0.1
-0.65 0 0.1
-0.64 0 0.1
-0.63 0 0.1
-0.62 0 0.1
-0.61 0 0.1
-0.6 0 0.1
-0.59 0 0.1
-0.58 0 0.1
-0.57 0 0.1
-0.56 0 0.1
-0.55 0 0.1
-0.54 0 0.1
-0.53 0 0.1
-0.52 0 0.1
-0.51 0 0.1
-0.5 0 0.1
-0.49 0 0.1
-0.48 0 0.1
-0.47 0 0.1
-0.46 0 0.1
-0.45 0 0.1
-0.44 0 0.1
-0.43 0 0.1
-0.42 0 0.1
-0.41 0 0.1
-0.4 0 0.1
-0.39 0 0.1
-0.38 0 0.1
-0.37 0 0.1
-0.36 0 0.1
-0.35 0 0.1
-0.34 0 0.1
-0.33 0 0.1
-0.32 0 0.1
-0.31 0 0.1
-0.3 0 0.1
-0.29 0 0.1
-0.28 0 0.1
-0.27 0 0.1
-0.26 0 0.1
-0.25 0 0.1
-0.24 0 0.1
-0.23 0 0.1
-0.22 0 0.1
-0.21 0 0.1
-0.2 0 0.1
-0.19 0 0.1
-0.18 0 0.1
-0.17 0 0.1
-0.16 0 0.1
-0.15 0 0.1
-0.14 0 0.1
-0.13 0 0.1
-0.12 0 0.1
-0.11 0 0.1
-0.1 0 0.1
-0.09 0 0.1
-0.08 0 0.1
-0.07 0 0.1
-0.06 0 0.1
-0.05 0 0.1
-0.04 0 0.1
-0.03 0 0.1
-0.02 0 0.1
-0.01 0 0.1
0.00921362 0.00379763 0.1
0.0184561 0.00752451 0.1
0.0277268 0.0111804 0.1
0.0370253 0.0147652 0.1
0.0463511 0.0182786 0.1
0.0557034 0.0217203 0.1
0.0650819 0.0250903 0.1
0.074486 0.0283883 0.1
0.083915 0.0316141 0.1
0.0933685 0.0347675 0.1
0.102846 0.0378484 0.1
0.112347 0.0408565 0.1
0.12187 0.0437917 0.1
0.131416 0.0466538 0.1
0.140983 0.0494427 0.1
0.150572 0.0521581 0.1
0.160181 0.0547999 0.1
0.16981 0.0573681 0.1
0.179458 0.0598623 0.1
0.189125 0.0622825 0.1
0.198811 0.0646285 0.1
0.208514 0.0669001 0.1
0.218234 0.0690974 0.1
0.227971 0.07122 0.1
0.237724 0.073268 0.1
0.247493 0.0752411 0.1
0.257276 0.0771393 0.1
0.267073 0.0789625 0.1
0.276884 0.0807105 0.1
0.286708 0.0823832 0.1
0.296545 0.0839806 0.1
0.306394 0.0855025 0.1
0.316254 0.0869488 0.1
0.326125 0.0883196 0.1
0.336006 0.0896146 0.1
0.345896 0.0908339 0.1
0.355796 0.0919773 0.1
0.365704 0.0930447 0.1
0.375621 0.0940362 0.1
0.385544 0.0949517 0.1
0.395474 0.095791 0.1
0.40541 0.0965542 0.1
0.415352 0.0972412 0.1
0.425299 0.097852 0.1
0.43525 0.0983865 0.1
0.445205 0.0988447 0.1
0.455164 0.0992266 0.1
0.465125 0.0995321 0.1
0.475088 0.0997613 0.1
0.485052 0.0999141 0.1
0.495017 0.0999904 0.1
0.504983 0.0999904 0.1
0.514948 0.0999141 0.1
0.524912 0.0997613 0.1
0.534875 0.0995321 0.1
0.544836 0.0992266 0.1
0.554795 0.0988447 0.1
0.56475 0.0983865 0.1
0.574701 0.097852 0.1
0.584648 0.0972412 0.1
0.59459 0.0965542 0.1
0.604526 0.095791 0.1
0.614456 0.0949517 0.1
0.624379 0.0940362 0.1
0.634296 0.0930447 0.1
0.644204 0.0919773 0.1
0.654104 0.0908339 0.1
0.663994 0.0896146 0.1
0.673875 0.0883196 0.1
0.683746 0.0869488 0.1
0.693606 0.0855025 0.1
0.703455 0.0839806 0.1
0.713292 0.0823832 0.1
0.723116 0.0807105 0.1
0.732927 0.0789625 0.1
0.742724 0.0771393 0.1
0.752508 0.0752411 0.1
0.762276 0.073268 0.1
0.772029 0.07122 0.1
0.781766 0.0690974 0.1
0.791486 0.0669001 0.1
0.801189 0.0646285 0.1
0.810875 0.0622825 0.1
0.820542 0.0598623 0.1
0.83019 0.0573681 0.1
0.839819 0.0547999 0.1
0.849428 0.0521581 0.1
0.859017 0.0494427 0.1
0.868584 0.0466538 0.1
0.87813 0.0437917 0.1
0.887653 0.0408565 0.1
0.897154 0.0378484 0.1
0.906631 0.0347675 0.1
0.916085 0.0316141 0.1
0.925514 0.0283883 0.1
0.934918 0.0250903 0.1
0.944297 0.0217203 0.1
0.953649 0.0182786 0.1
0.962975 0.0147652 0.1
0.972273 0.0111804 0.1
0.981544 0.00752451 0.1
0.990786 0.00379763 0.1
1.01 0 0.1
1.02 0 0.1
1.03 0 0.1
1.04 0 0.1
1.05 0 0.1
1.06 0 0.1
1.07 0 0.1
1.08 0 0.1
1.09 0 0.1
1.1 0 0.1
1.11 0 0.1
1.12 0 0.1
1.13 0 0.1
1.14 0 0.1
1.15 0 0.1
1.16 0 0.1
1.17 0 0.1
1.18 0 0.1
1.19 0 0.1
1.2 0 0.1
1.21 0 0.1
1.22 0 0.1
1.23 0 0.1
1.24 0 0.1
1.25 0 0.1
1.26 0 0.1
1.27 0 0.1
1.28 0 0.1
1.29 0 0.1
1.3 0 0.1
1.31 0 0.1
1.32 0 0.1
1.33 0 0.1
1.34 0 0.1
1.35 0 0.1
1.36 0 0.1
1.37 0 0.1
1.38 0 0.1
1.39 0 0.1
1.4 0 0.1
1.41 0 0.1
1.42 0 0.1
1.43 0 0.1
1.44 0 0.1
1.45 0 0.1
1.46 0 0.1
1.47 0 0.1
1.48 0 0.1
1.49 0 0.1
1.5 0 0.1
1.51 0 0.1
1.52 0 0.1
1.53 0 0.1
1.54 0 0.1
1.55 0 0.1
1.56 0 0.1
1.57 0 0.1
1.58 0 0.1
1.59 0 0.1
1.6 0 0.1
1.61 0 0.1
1.62 0 0.1
1.63 0 0.1
1.64 0 0.1
1.65 0 0.1
1.66 0 0.1
1.67 0 0.1
1.68 0 0.1
1.69 0 0.1
1.7 0 0.1
1.71 0 0.1
1.72 0 0.1
1.73 0 0.1
1.74 0 0.1
1.75 0 0.1
1.76 0 0.1
1.77 0 0.1
1.78 0 0.1
1.79 0 0.1
1.8 0 0.1
1.81 0 0.1
1.82 0 0.1
1.83 0 0.1
1.84 0 0.1
1.85 0 0.1
1.86 0 0.1
1.87 0 0.1
1.88 0 0.1
[...]
CELL_DATA 7425
SCALARS rho float
LOOKUP_TABLE default
0.586988
0.805023
0.819476
0.827456
0.799352
0.819076
0.820854
0.814038
0.812878
0.738557
0.863457
0.810006
0.813799
0.827312
0.803649
0.817068
0.798689
0.813163
0.803458
0.767204
0.831213
0.822022
0.724704
0.827984
0.803864
0.702837
0.831146
0.848168
0.80015
0.807898
0.81931
0.725555
0.803604
0.651946
0.51893
0.82795
0.803497
0.814015
0.811115
0.827948
0.715829
0.702938
0.789919
0.702465
0.586257
0.748153
0.799237
0.813732
0.660939
0.71933
0.746298
0.805139
0.812334
0.799011
0.709944
0.619597
0.822842
0.800044
0.738428
0.700811
0.709238
0.807643
0.813132
0.79932
0.798758
0.817526
0.584186
0.773215
0.704909
0.807813
0.804125
0.803197
0.883378
0.821094
0.810817
0.812938
0.805035
0.800426
0.813139
0.757719
0.815891
0.807223
0.810189
0.788614
0.835858
0.801031
0.574273
0.8299
0.54225
0.848434
0.707181
0.729663
0.845133
0.803167
0.817315
0.7581
0.835985
0.787986
0.825559
0.802407
0.808011
0.738664
0.803277
0.82818
0.597079
0.811044
0.824307
0.707327
0.814904
0.799098
0.816625
0.784497
0.789737
0.812413
0.78965
0.786281
0.831195
0.803099
0.700317
0.629075
0.805035
0.777201
0.812841
0.790373
0.858896
0.838748
0.807678
0.804212
0.661077
0.503738
0.814383
0.6549
0.514823
0.867563
0.661235
0.799446
0.81108
0.723451
0.581831
0.724642
0.723109
0.809548
0.809541
0.707445
0.803094
0.779569
0.565302
0.788427
0.782532
0.827702
0.816705
0.704157
0.80284
0.744296
0.705354
0.803265
0.810407
0.830347
0.797497
0.65178
0.802484
0.703743
0.801036
0.829679
0.820381
0.802363
0.812961
0.78475
0.806259
0.800582
0.81963
0.804406
0.791095
0.799061
0.799828
0.739975
0.803629
0.758606
0.593823
0.707147
0.799614
0.792634
0.879769
0.831787
0.611252
0.822854
0.798568
0.827242
0.799808
0.813306
0.812502
0.803183
0.806925
0.704739
0.81492
0.81918
0.770046
0.797071
0.860994
0.807746
0.811784
0.811063
0.612732
0.838799
0.572848
0.531479
0.595336
0.600132
0.828078
0.879303
0.807511
0.798637
0.841337
0.812864
0.816598
0.82069
0.815112
0.637906
0.548339
0.813629
0.545283
0.592286
0.703589
0.81161
0.813971
0.812938
0.833076
0.812804
0.864077
0.710158
0.835166
0.712401
0.805151
0.803911
0.801938
0.713806
0.720265
0.619404
0.705824
0.863579
0.875246
0.80615
0.80768
0.798789
0.811476
0.715617
0.821533
0.800119
0.825626
0.794597
0.809749
0.721442
0.812705
0.823664
0.739625
0.528284
0.799802
0.736447
0.843244
0.814252
0.726662
0.81549
0.814749
0.84991
0.809416
0.803792
0.803245
0.825583
0.860719
0.805363
0.619164
0.84884
0.81191
0.805588
0.827475
0.837287
0.81289
0.82136
0.793472
0.814981
0.866477
0.849904
0.827264
0.83668
0.802646
0.817076
0.803186
0.759666
0.701066
0.580727
0.701145
0.802268
0.812788
0.815898
0.85459
0.779614
0.645648
0.827013
0.520508
0.774215
0.800911
0.646307
0.494737
0.639004
0.815107
0.813135
0.812863
0.812628
0.826647
0.774394
0.81146
0.802655
0.8128
0.840656
0.866975
0.833497
0.802705
0.706565
0.795827
0.834236
0.691479
0.798677
0.80203
0.864747
0.817016
0.592913
0.813295
0.740348
0.852185
0.731876
0.810012
0.907639
0.799798
0.795568
0.65885
0.635468
0.7119
0.780496
0.826472
0.814844
0.813595
0.882269
0.858045
0.799466
0.799104
0.826002
0.739098
0.802501
0.879355
0.801371
0.804622
0.800632
0.802557
0.812869
0.815633
0.816286
0.636028
0.829913
0.645255
0.80841
0.639144
0.802547
0.802222
0.84021
0.728522
0.816325
0.808487
0.816896
0.79944
0.802486
0.811216
0.696481
0.824442
0.812957
0.812831
0.80067
0.736793
0.559793
0.806399
0.810921
0.803181
0.812789
0.794665
0.502565
0.845939
0.813217
0.803838
0.785661
0.813162
0.80462
0.802977
0.816151
0.807496
0.822435
0.768541
0.812599
0.807753
0.562515
0.803047
0.640015
0.838713
0.636127
0.814609
0.877868
0.592877
0.818038
0.748868
0.8044
0.873312
0.533432
0.823049
0.822185
0.803487
0.825668
0.811015
0.823385
0.830573
0.824766
0.739561
0.827453
0.761661
0.810156
0.794215
0.793563
0.758511
0.805583
0.80208
0.814387
0.752103
0.804659
0.604298
0.614092
0.688807
0.812713
0.844147
0.864799
0.829818
0.798512
0.812539
0.804839
0.81845
0.680407
0.800929
0.742862
0.824003
0.814713
0.805315
0.712017
0.727134
0.533455
0.605495
0.801231
0.611273
0.79251
0.765327
0.769982
0.727159
0.762381
0.767447
0.809341
0.814841
0.819472
0.811365
0.710316
0.601853
0.838977
0.80685
0.783108
0.809754
0.802529
0.8365
0.717948
0.85524
0.76366
0.728148
0.764424
0.811423
0.544792
0.79876
0.841562
0.813238
0.81369
0.809623
0.799096
0.78021
0.835652
0.8031
0.842921
0.721016
0.707593
0.800293
0.795088
0.821947
0.708595
0.847912
0.800352
0.815968
0.798664
0.779134
0.808186
0.594489
0.677335
0.632316
0.812841
0.80376
0.826288
0.749182
0.81058
0.814708
0.820318
0.798909
0.729172
0.7968
0.814216
0.803191
0.702939
0.813497
0.818834
0.839971
0.81068
0.825267
0.86226
0.857236
0.743823
0.603289
0.837987
0.805753
0.843341
0.814135
0.822858
0.813427
0.813709
0.632867
0.805112
0.809234
0.81272
0.791844
0.810537
0.804699
0.860402
0.798595
0.812634
0.814625
0.871888
0.597509
0.813364
0.84233
0.883294
0.530266
0.816321
0.829886
0.796122
0.81473
0.794892
0.867563
0.81214
0.831288
0.812635
0.619241
0.80238
0.804136
0.69064
0.853104
0.759773
0.801787
0.813886
0.812616
0.85959
0.795331
0.833563
0.834663
0.784213
0.825129
0.842263
0.799676
0.81042
0.806887
0.805303
0.814769
0.802624
0.845177
0.769208
0.809764
0.803146
0.815159
0.723037
0.812794
0.818276
0.752535
0.813492
0.81629
0.82749
0.82505
0.80066
0.800614
0.850463
0.767943
0.825058
0.844159
0.804546
0.50537
0.812801
0.828216
0.852352
0.812563
0.803145
0.808507
0.855011
0.780071
0.802575
0.801183
0.812837
0.726961
0.802677
0.829955
0.807943
0.794951
0.793439
0.843149
0.806595
0.84528
0.802015
0.824182
0.812674
0.804207
0.841814
0.812771
0.679288
0.818703
0.807087
0.812746
0.90613
0.800768
0.815827
0.800448
0.800356
0.816123
0.800462
0.803348
0.783727
0.747318
0.806425
0.812798
0.757952
0.791332
0.822956
0.813003
0.822188
0.806279
0.825708
0.875279
0.830589
0.574495
0.70873
0.840703
0.817211
0.844112
0.81468
0.850063
0.807269
0.812349
0.799293
0.838359
0.860895
0.85275
0.731429
0.814001
0.822112
0.744003
0.817029
0.775892
0.800185
0.732985
0.815985
0.830806
0.823443
0.861728
0.81413
0.813207
0.810103
0.814561
0.835746
0.812185
0.798605
0.810218
0.737456
0.811254
0.774184
0.832788
0.812694
0.638703
0.777604
0.811081
0.799125
0.819755
0.802416
0.814594
0.817223
0.804415
0.819327
0.804154
0.805782
0.597024
0.846998
0.825068
0.826641
0.814851
0.803214
0.701764
0.806417
0.907821
0.813505
0.800969
0.812798
0.782248
0.807187
0.813202
0.821218
0.814621
0.813136
0.816161
0.702298
0.777782
0.764508
0.81257
0.805279
0.800965
0.621219
0.805648
0.802578
0.708096
0.837131
0.817124
0.802154
0.807393
0.799355
0.817176
0.81388
0.813198
0.812781
0.70961
0.831645
0.800264
0.807341
0.84274
0.817551
0.816218
0.800127
0.753632
0.823775
0.787349
0.821367
0.789387
0.805568
0.820884
0.737499
0.817338
0.650218
0.871998
0.704247
0.844961
0.800734
0.875133
0.793648
0.801648
0.820603
0.836162
0.838373
0.825413
0.819758
0.814634
0.801066
0.804166
0.808215
0.725569
0.827201
0.800073
0.719725
0.830484
0.706767
0.799941
0.860289
0.805568
0.701198
0.797824
0.814003
0.705148
0.785653
0.819315
0.831811
0.806886
0.572375
0.728472
0.812368
0.801264
0.812831
0.800619
0.737153
0.813933
0.81564
0.812398
0.775306
0.803258
0.80448
0.803508
0.560288
0.812618
0.834069
0.579574
0.815086
0.816027
0.814617
0.818289
0.81434
0.824476
0.79902
0.795105
0.771036
0.82286
0.82963
0.82507
0.8348
0.765288
0.80892
0.724244
0.772349
0.808739
0.821006
0.813198
0.800963
0.858178
0.812835
0.800267
0.809511
0.81602
0.81511
0.836578
0.814413
0.812716
0.811966
0.813735
0.800079
0.820929
0.803754
0.822764
0.813381
0.575308
0.813428
0.83441
0.857964
0.838142
0.490397
0.816734
0.804474
0.496261
0.669193
0.642864
0.83425
0.807924
0.811636
0.812711
0.803201
0.816674
0.810921
0.534348
0.686295
0.818206
0.806614
0.815538
0.803499
0.810218
0.81082
0.820172
0.79947
0.692056
0.855816
0.803147
0.814699
0.81354
0.757719
0.485328
0.832839
0.813502
0.742023
0.802698
0.806141
0.590627
0.827475
0.814705
0.827661
0.81871
0.825909
0.804719
0.719229
0.643454
0.561906
0.825255
0.808449
0.782976
0.812881
0.779728
0.817817
0.873288
0.762309
0.821543
0.813445
0.825777
0.88354
0.814362
0.81175
0.80325
0.81385
0.691584
0.828149
0.799833
0.810096
0.80219
0.784222
0.854122
0.821976
0.840445
0.821457
0.757603
0.755853
0.803247
0.818033
0.803059
0.805233
0.802571
0.77558
0.814605
0.761505
0.821075
0.661962
0.813891
0.802946
0.735795
0.823211
0.817914
0.739924
0.80115
0.757148
0.880519
0.800713
0.812746
0.762614
0.800023
0.81419
0.80394
0.58971
0.820889
0.798608
0.801278
0.814444
0.825554
0.757053
0.80546
0.841535
0.826863
0.814062
0.835785
0.70126
0.700061
0.812831
0.744094
0.822152
0.771313
0.812738
0.802505
0.810346
0.751892
0.794178
0.764257
0.809812
0.803139
0.631087
0.778967
0.799225
0.848911
0.814286
0.828592
0.526194
0.825311
0.785092
0.858699
0.80093
0.817941
0.800221
0.785726
0.798687
0.825654
0.835724
0.821714
0.817046
0.707097
0.773765
0.815292
0.805368
0.809886
0.803898
0.707109
0.792774
0.803427
0.810584
0.827105
0.851177
0.831795
0.813378
0.799369
0.804178
0.801982
0.779595
0.611472
0.800258
0.731173
0.661791
0.822743
0.798788
0.777272
0.799919
0.754098
0.785268
0.811361
0.822116
0.803283
0.815933
0.817293
0.820615
0.813302
0.808421
0.712072
0.699303
0.640795
0.82922
0.869537
0.815317
0.841297
0.847795
0.863708
0.735527
0.816521
0.86298
0.810129
0.812775
0.816135
0.732689
0.812347
0.806584
0.806123
0.516961
0.812872
0.761115
0.813068
0.813765
0.803533
0.705706
0.813109
0.610473
0.824978
0.802226
0.822195
0.855125
0.80342
0.79535
0.820864
0.811494
0.805671
0.762192
0.509467
0.820828
0.803071
0.828847
0.825699
0.802028
0.80701
0.834418
0.720718
0.500021
0.886239
0.800522
0.815609
0.80431
0.710594
0.798568
0.799943
0.814982
0.735925
0.64639
0.883227
0.714057
0.836496
0.811897
0.832832
0.842615
0.792104
0.804733
0.813509
0.852746
0.738244
0.870677
0.813931
0.562626
0.802389
0.748955
0.852871
0.760209
0.804205
0.803943
0.799572
0.801563
0.808792
0.81281
0.855448
0.805918
0.802861
0.801302
0.799946
0.812143
0.816796
0.80261
0.812387
0.849163
0.803093
0.783389
0.802226
0.839499
0.724829
0.81354
0.813741
0.635869
0.713004
0.805526
0.822958
0.803482
0.511379
0.856215
0.813128
0.83291
0.805292
0.803305
0.801315
0.786175
0.587033
0.804276
0.816021
0.83595
0.820494
0.812853
0.798088
0.746826
0.801551
0.765684
0.787504
0.799268
0.790937
0.75106
0.800783
0.811381
0.810282
0.832153
0.848965
0.553008
0.841853
0.812745
0.820827
0.801947
0.822634
0.810978
0.894594
0.800182
0.866979
0.805669
0.759682
0.862092
0.802266
0.800231
0.824096
0.660281
0.645166
0.803385
0.803842
0.705485
0.654186
0.799889
0.823785
0.812935
0.822519
0.73283
0.817129
0.812748
0.826067
0.81688
0.811924
0.812765
0.754512
0.803827
0.815598
0.811232
0.676118
0.566248
0.812802
0.649888
0.721846
0.5549
0.841347
0.80006
0.526581
0.600613
0.827468
0.908053
0.818071
0.652194
0.814073
0.786371
0.801661
0.786324
0.820569
0.810032
0.788252
0.820986
0.800935
0.587473
0.817748
0.766599
0.815851
0.701133
0.822152
0.789574
0.813863
0.79998
0.662755
0.843473
0.806496
0.80654
0.493152
0.816754
0.800324
0.852055
0.711435
0.817008
0.583448
0.718694
0.801347
0.796604
0.732571
0.715412
0.716133
0.506582
0.588691
0.799917
0.517122
0.82253
0.519679
0.757122
0.671043
0.598583
0.540234
0.745358
0.803076
0.715381
0.821225
0.800895
0.802892
0.761125
0.889657
0.798977
0.824415
0.803416
0.812691
0.705867
0.8075
0.736618
0.82184
0.886015
0.833521
0.747632
0.822721
0.770422
0.879878
0.804184
0.758597
0.85064
0.776794
0.799915
0.805215
0.758164
0.744475
0.664781
0.804972
0.803016
0.817835
0.833434
0.611353
0.807836
0.537801
0.66848
0.615923
0.818432
0.820971
0.808911
0.803964
0.615545
0.872432
0.80267
0.80294
0.863481
0.812326
0.771966
0.812062
0.802357
0.817826
0.803141
0.716953
0.803315
0.655002
0.798941
0.804027
0.801525
0.639047
0.811468
0.81025
0.725609
0.817721
0.548876
0.576509
0.804132
0.696382
0.725863
0.571915
0.723481
0.813532
0.707853
0.772927
0.716787
0.812752
0.670084
0.762039
0.806411
0.810523
0.654321
0.80193
0.895136
0.796673
0.816717
0.584831
0.693697
0.80086
0.812847
0.813923
0.851619
0.812551
0.804236
0.803713
0.803328
0.713688
0.717618
0.615465
0.771391
0.532335
0.724027
0.809833
0.814325
0.806056
0.799195
0.534709
0.808979
0.803746
0.553717
0.542992
0.746521
0.803561
0.806107
0.549108
0.79817
0.569384
0.720271
0.60761
0.813482
0.802201
0.596865
0.608135
0.867863
0.809995
0.765341
0.717722
0.621364
0.655208
0.710028
0.815933
0.759708
0.765506
0.623864
0.753788
0.809225
0.815283
0.812355
0.815389
0.865472
0.754599
0.818856
0.803316
0.851239
0.812758
0.802765
0.812984
0.722702
0.81287
0.811912
0.815105
0.811071
0.815814
0.803263
0.817849
0.810305
0.809655
0.817189
0.8001
0.816516
0.818876
0.667354
0.818531
0.868381
0.81809
0.792902
0.645786
0.858541
0.818711
0.824819
0.799475
0.811111
0.757507
0.852501
0.558619
0.726458
0.809843
0.815583
0.803862
0.803351
0.831987
0.80495
0.805156
0.815178
0.780654
0.838497
0.841895
0.815141
0.664197
0.611743
0.815682
0.816541
0.788224
0.849582
0.847214
0.810766
0.813549
0.777686
0.814001
0.817754
0.814024
0.818698
0.813013
0.81574
0.850997
0.815885
0.81442
0.817473
0.817688
0.784856
0.814038
0.803981
0.80405
0.804551
0.81849
0.811383
0.788281
0.753995
0.812575
0.806262
0.808689
0.806361
0.857733
0.803288
0.813908
0.812595
0.805134
0.555527
0.803873
0.812638
0.814934
0.810293
0.81268
0.813203
0.812923
0.810159
0.864359
0.501131
0.81271
0.841609
0.812548
0.802943
0.808382
0.81491
0.839623
0.800379
0.801137
0.812554
0.706551
0.812727
0.808155
0.807273
0.812454
0.81278
0.812925
0.81326
0.511406
0.811839
0.715551
0.885817
0.820983
0.733482
0.6707
0.815274
0.803435
0.818647
0.646363
0.801624
0.813231
0.647853
0.799783
0.804074
0.815346
0.806217
0.856695
0.809831
0.606768
0.800775
0.775175
0.811193
0.889049
0.80322
0.815491
0.81926
0.832156
0.813297
0.822323
0.836284
0.634831
0.802559
0.655653
0.813648
0.813548
0.71265
0.813433
0.804742
0.713209
0.814846
0.70101
0.861032
0.784025
0.814201
0.812784
0.813327
0.66772
0.813554
0.633169
0.800143
0.792337
0.822219
0.815088
0.715872
0.766687
0.829982
0.812651
0.821244
0.821826
0.813335
0.825258
0.799434
0.551878
0.754917
0.759117
0.731515
0.837546
0.822263
0.834288
0.775937
0.80275
0.81292
0.812841
0.812844
0.774583
0.563613
0.803194
0.528132
0.808134
0.824184
0.799633
0.803746
0.812872
0.805993
0.782544
0.732127
0.813284
0.859105
0.813629
0.799225
0.736959
0.809518
0.788687
0.833668
0.503394
0.795955
0.805817
0.798805
0.688676
0.812735
0.810675
0.85694
0.568882
0.807313
0.80326
0.81272
0.612196
0.81298
0.803325
0.803392
0.803017
0.813093
0.813191
0.816015
0.81293
0.71803
0.804485
0.803192
0.812877
0.896141
0.813038
0.77391
0.841071
0.799165
0.803126
0.601172
0.81277
0.803348
0.825567
0.801944
0.866183
0.814752
0.853297
0.80027
0.82055
0.777832
0.558067
0.752596
0.794165
0.803848
0.813915
0.813702
0.555281
0.861745
0.857788
0.768377
0.757639
0.738492
0.811976
0.848314
0.812809
0.81365
0.812844
0.804259
0.726771
0.803488
0.79904
0.764227
0.82418
0.822913
0.861803
0.815554
0.812855
0.523538
0.808869
0.812814
0.800651
0.7739
0.818044
0.803104
0.812772
0.826804
0.798424
0.803534
0.801174
0.815091
0.839051
0.802302
0.7991
0.801418
0.766098
0.819774
0.566867
0.86834
0.803673
0.545511
0.803099
0.803061
0.819482
0.590927
0.605982
0.801495
0.803562
0.800784
0.860689
0.779866
0.81454
0.802924
0.865592
0.804698
0.804436
0.826252
0.815856
0.820006
0.821184
0.820232
0.86744
0.729174
0.852099
0.817099
0.653541
0.802488
0.803171
0.803623
0.821026
0.823416
0.803918
0.801025
0.799987
0.822583
0.803147
0.803589
0.799595
0.824293
0.803958
0.801962
0.806058
0.82778
0.800466
0.801465
0.824175
0.799523
0.815272
0.651137
0.826298
0.849786
0.804823
0.819472
0.803213
0.82866
0.837418
0.803386
0.82138
0.800482
0.806903
0.789526
0.802128
0.803107
0.806338
0.805852
0.804446
0.818442
0.814633
0.811208
0.831323
0.802109
0.8022
0.799837
0.788981
0.833707
0.803126
0.8192
0.815096
0.807064
0.804976
0.802941
0.838833
0.864604
0.799504
0.678832
0.801139
0.842076
0.816483
0.805049
0.804448
0.819643
0.844527
0.60092
0.828661
0.794413
0.850245
0.818626
0.811962
0.813228
0.808157
0.80394
0.812732
0.808721
0.591681
0.847915
0.79455
0.814061
0.854526
0.819174
0.763108
0.808587
0.814334
0.815354
0.802943
0.661562
0.809121
0.863099
0.802508
0.800657
0.775325
0.871174
0.800386
0.877028
0.806617
0.817055
0.82051
0.802146
0.803766
0.812475
0.815768
0.803394
0.813199
0.816626
0.881312
0.820648
0.809273
0.800063
0.828329
0.810455
0.838747
0.808752
0.806921
0.812033
0.816434
0.829834
0.813536
0.822439
0.832441
0.814077
0.699464
0.690404
0.812914
0.817634
0.803731
0.812996
0.513596
0.854819
0.799701
0.806205
0.813815
0.813357
0.803938
0.81235
0.800412
0.801155
0.807958
0.814647
0.756781
0.784572
0.822841
0.842565
0.834733
0.80019
0.804986
0.803343
0.812881
0.80565
0.799455
0.799728
0.800961
0.810832
0.797778
0.802675
0.83541
0.831223
0.729657
0.660125
0.807547
0.698306
0.799421
0.571601
0.804385
0.806884
0.803036
0.818053
0.83367
0.813798
0.812723
0.810236
0.803823
0.881481
0.81615
0.80472
0.772196
0.585372
0.810213
0.806545
0.769294
0.814291
0.813746
0.791433
0.800676
0.80401
0.623666
0.830372
0.803488
0.781398
0.779251
0.852652
0.809964
0.802809
0.802525
0.810121
0.811027
0.518283
0.801738
0.839412
0.813797
0.798539
0.588492
0.814463
0.813942
0.812809
0.833644
0.813789
0.803898
0.821788
0.805501
0.575596
0.808596
0.736388
0.798476
0.813504
0.7221
0.814803
0.845874
0.831552
0.664362
0.89087
0.785541
0.777321
0.796841
0.779489
0.808556
0.849842
0.807901
0.802837
0.813416
0.808739
0.782563
0.78588
0.813754
0.808236
0.83478
0.821169
0.835614
0.801193
0.799596
0.812907
0.856551
0.816361
0.818267
0.813211
0.607188
0.795489
0.823793
0.829272
0.865844
0.812463
0.818851
0.50831
0.809618
0.80053
0.812477
0.814637
0.847518
0.812913
0.81106
0.88146
0.764455
0.812504
0.813101
0.808902
0.805186
0.814098
0.655783
0.800471
0.84946
0.833448
0.810507
0.813445
0.813231
0.809539
0.698695
0.81238
0.800093
0.838487
0.818362
0.811504
0.831241
0.792624
0.811433
0.8177
0.808711
0.819176
0.74412
0.854615
0.818851
0.81368
0.812916
0.812563
0.815598
0.81704
0.812609
0.810667
0.840998
0.81848
0.800086
0.825219
0.826856
0.815938
0.81441
0.800299
0.801467
0.812905
0.81891
0.829339
0.812654
0.816339
0.799756
0.80984
0.812691
0.812659
0.802481
0.814535
0.813192
0.803211
0.812714
0.835571
0.799997
0.80931
0.821421
0.559718
0.814083
0.818049
0.815405
0.814887
0.821859
0.828734
0.815499
0.818721
0.701331
0.812916
0.801285
0.815491
0.818895
0.834997
0.821455
0.815461
0.829274
0.824836
0.810534
0.819148
0.819422
0.804111
0.813015
0.815478
0.819386
0.83202
0.812489
0.815573
0.802702
0.812787
0.812909
0.52216
0.627399
0.814312
0.821329
0.801673
0.822365
0.815781
0.841789
0.708017
0.813609
0.730322
0.817301
0.810191
0.81302
0.829262
0.813519
0.804785
0.812773
0.829999
0.839177
0.812657
0.719098
0.819204
0.815908
0.79986
0.803019
0.815182
0.855864
0.812505
0.813233
0.849628
0.828918
0.8432
0.573039
0.829013
0.813809
0.810772
0.817279
0.850383
0.817644
0.718305
0.799476
0.831685
0.7997
0.799667
0.80535
0.747752
0.813257
0.814215
0.725293
0.814227
0.827264
0.813178
0.813902
0.799154
0.818259
0.812839
0.823438
0.808674
0.808094
0.81485
0.705279
0.818958
0.813949
0.812823
0.639689
0.718853
0.599208
0.823198
0.529083
0.853689
0.727237
0.84272
0.812386
0.722512
0.821331
0.81576
0.74247
0.807617
0.818234
0.794386
0.816401
0.815737
0.815666
0.81284
0.807761
0.803647
0.737211
0.836023
0.820056
0.816487
0.799165
0.815361
0.801925
0.81588
0.813322
0.854486
0.817653
0.496564
0.81318
0.81867
0.818543
0.778008
0.815674
0.806699
0.818506
0.845233
0.596243
0.809025
0.799235
0.815191
0.817499
0.81757
0.812308
0.81848
0.813733
0.814456
0.803058
0.814153
0.846033
0.813803
0.791978
0.811357
0.622376
0.71876
0.812918
0.816871
0.802902
0.822189
0.735425
0.803143
0.803179
0.820089
0.616791
0.817472
0.799282
0.815286
0.864522
0.785448
0.821835
0.817855
0.822669
0.813883
0.769538
0.802405
0.813427
0.902272
0.827091
0.816301
0.832137
0.809467
0.868053
0.719433
0.684992
0.852222
0.802691
0.657542
0.850187
0.786008