# vtk DataFile Version 1.0
unstructured grid
ascii
DATASET UNSTRUCTURED_GRID
points 7812 float
-1 0 0
-1 1 0
2 0 0
2 1 0
0 0 0
1 0 0
-1 1 0.1
-1 0 0.1
0 0 0.1
1 0 0.1
2 0 0.1
2 1 0.1
-0.99 0 0
-0.98 0 0
-0.97 0 0
-0.96 0 0
-0.95 0 0
-0.94 0 0
-0.93 0 0
-0.92 0 0
-0.91 0 0
-0.9 0 0
-0.89 0 0
-0.88 0 0
-0.87 0 0
-0.86 0 0
-0.85 0 0
-0.84 0 0
-0.83 0 0
-0.82 0 0
-0.81 0 0
-0.8 0 0
-0.79 0 0
-0.78 0 0
-0.77 0 0
-0.76 0 0
-0.75 0 0
-0.74 0 0
-0.73 0 0
-0.72 0 0
-0.71 0 0
-0.7 0 0
-0.69 0 0
-0.68 0 0
-0.67 0 0
-0.66 0 0
-0.65 0 0
-0.64 0 0
-0.63 0 0
-0.62 0 0
-0.61 0 0
-0.6 0 0
-0.59 0 0
-0.58 0 0
-0.57 0 0
-0.56 0 0
-0.55 0 0
-0.54 0 0
-0.53 0 0
-0.52 0 0
-0.51 0 0
-0.5 0 0
-0.49 0 0
-0.48 0 0
-0.47 0 0
-0.46 0 0
-0.45 0 0
-0.44 0 0
-0.43 0 0
-0.42 0 0
-0.41 0 0
-0.4 0 0
-0.39 0 0
-0.38 0 0
-0.37 0 0
-0.36 0 0
-0.35 0 0
-0.34 0 0
-0.33 0 0
-0.32 0 0
-0.31 0 0
-0.3 0 0
-0.29 0 0
-0.28 0 0
-0.27 0 0
-0.26 0 0
-0.25 0 0
-0.24 0 0
-0.23 0 0
-0.22 0 0
-0.21 0 0
-0.2 0 0
-0.19 0 0
-0.18 0 0
-0.17 0 0
-0.16 0 0
-0.15 0 0
-0.14 0 0
-0.13 0 0
-0.12 0 0
-0.11 0 0
-0.1 0 0
-0.09 0 0
-0.08 0 0
-0.07 0 0
-0.06 0 0
-0.05 0 0
-0.04 0 0
-0.03 0 0
-0.02 0 0
-0.01 0 0
1.01 0 0
1.02 0 0
1.03 0 0
1.04 0 0
1.05 0 0
1.06 0 0
1.07 0 0
1.08 0 0
1.09 0 0
1.1 0 0
1.11 0 0
1.12 0 0
1.13 0 0
1.14 0 0
1.15 0 0
1.16 0 0
1.17 0 0
1.18 0 0
1.19 0 0
1.2 0 0
1.21 0 0
1.22 0 0
1.23 0 0
1.24 0 0
1.25 0 0
1.26 0 0
1.27 0 0
1.28 0 0
1.29 0 0
1.3 0 0
1.31 0 0
1.32 0 0
1.33 0 0
1.34 0 0
1.35 0 0
1.36 0 0
1.37 0 0
1.38 0 0
1.39 0 0
1.4 0 0
1.41 0 0
1.42 0 0
1.43 0 0
1.44 0 0
1.45 0 0
1.46 0 0
1.47 0 0
1.48 0 0
1.49 0 0
1.5 0 0
1.51 0 0
1.52 0 0
1.53 0 0
1.54 0 0
1.55 0 0
1.56 0 0
1.57 0 0
1.58 0 0
1.59 0 0
1.6 0 0
1.61 0 0
1.62 0 0
1.63 0 0
1.64 0 0
1.65 0 0
1.66 0 0
1.67 0 0
1.68 0 0
1.69 0 0
1.7 0 0
1.71 0 0
1.72 0 0
1.73 0 0
1.74 0 0
1.75 0 0
1.76 0 0
1.77 0 0
1.78 0 0
1.79 0 0
1.8 0 0
1.81 0 0
1.82 0 0
1.83 0 0
1.84 0 0
1.85 0 0
1.86 0 0
1.87 0 0
1.88 0 0
1.89 0 0
1.9 0 0
1.91 0 0
1.92 0 0
1.93 0 0
1.94 0 0
1.95 0 0
1.96 0 0
1.97 0 0
1.98 0 0
1.99 0 0
2 0.010289 0
2 0.0215307 0
2 0.0338135 0
2 0.0472336 0
2 0.0618965 0
2 0.0779171 0
2 0.0954213 0
2 0.114546 0
2 0.135442 0
2 0.158274 0
2 0.183219 0
2 0.210474 0
2 0.240253 0
2 0.27279 0
2 0.308339 0
2 0.347181 0
2 0.389619 0
2 0.435987 0
2 0.486649 0
2 0.542002 0
2 0.602481 0
2 0.66856 0
2 0.740758 0
2 0.819642 0
2 0.90583 0
1.9 1 0
1.8 1 0
1.7 1 0
1.6 1 0
1.5 1 0
1.4 1 0
1.3 1 0
1.2 1 0
1.1 1 0
1 1 0
0.9 1 0
0.8 1 0
0.7 1 0
0.6 1 0
0.5 1 0
0.4 1 0
0.3 1 0
0.2 1 0
0.1 1 0
3.69793e-12 1 0
-0.1 1 0
-0.2 1 0
-0.3 1 0
-0.4 1 0
-0.5 1 0
-0.6 1 0
-0.7 1 0
-0.8 1 0
-0.9 1 0
-1 0.90583 0
-1 0.819642 0
-1 0.740758 0
-1 0.66856 0
-1 0.602481 0
-1 0.542002 0
-1 0.486649 0
-1 0.435987 0
-1 0.389619 0
-1 0.347181 0
-1 0.308339 0
-1 0.27279 0
-1 0.240253 0
-1 0.210474 0
-1 0.183219 0
-1 0.158274 0
-1 0.135442 0
-1 0.114546 0
-1 0.0954213 0
-1 0.0779171 0
-1 0.0618965 0
-1 0.0472336 0
-1 0.0338135 0
-1 0.0215307 0
-1 0.010289 0
0.00921362 0.00379763 0
0.0184561 0.00752451 0
0.0277268 0.0111804 0
0.0370253 0.0147652 0
0.0463511 0.0182786 0
0.0557034 0.0217203 0
0.0650819 0.0250903 0
0.074486 0.0283883 0
0.083915 0.0316141 0
0.0933685 0.0347675 0
0.102846 0.0378484 0
0.112347 0.0408565 0
0.12187 0.0437917 0
0.131416 0.0466538 0
0.140983 0.0494427 0
0.150572 0.0521581 0
0.160181 0.0547999 0
0.16981 0.0573681 0
0.179458 0.0598623 0
0.189125 0.0622825 0
0.198811 0.0646285 0
0.208514 0.0669001 0
0.218234 0.0690974 0
0.227971 0.07122 0
0.237724 0.073268 0
0.247493 0.0752411 0
0.257276 0.0771393 0
0.267073 0.0789625 0
0.276884 0.0807105 0
0.286708 0.0823832 0
0.296545 0.0839806 0
0.306394 0.0855025 0
0.316254 0.0869488 0
0.326125 0.0883196 0
0.336006 0.0896146 0
0.345896 0.0908339 0
0.355796 0.0919773 0
0.365704 0.0930447 0
0.375621 0.0940362 0
0.385544 0.0949517 0
0.395474 0.095791 0
0.40541 0.0965542 0
0.415352 0.0972412 0
0.425299 0.097852 0
0.43525 0.0983865 0
0.445205 0.0988447 0
0.455164 0.0992266 0
0.465125 0.0995321 0
0.475088 0.0997613 0
0.485052 0.0999141 0
0.495017 0.0999904 0
0.504983 0.0999904 0
0.514948 0.0999141 0
0.524912 0.0997613 0
0.534875 0.0995321 0
0.544836 0.0992266 0
0.554795 0.0988447 0
0.56475 0.0983865 0
0.574701 0.097852 0
0.584648 0.0972412 0
0.59459 0.0965542 0
0.604526 0.095791 0
0.614456 0.0949517 0
0.624379 0.0940362 0
0.634296 0.0930447 0
0.644204 0.0919773 0
0.654104 0.0908339 0
0.663994 0.0896146 0
0.673875 0.0883196 0
0.683746 0.0869488 0
0.693606 0.0855025 0
0.703455 0.0839806 0
0.713292 0.0823832 0
0.723116 0.0807105 0
0.732927 0.0789625 0
0.742724 0.0771393 0
0.752508 0.0752411 0
0.762276 0.073268 0
0.772029 0.07122 0
0.781766 0.0690974 0
0.791486 0.0669001 0
0.801189 0.0646285 0
0.810875 0.0622825 0
0.820542 0.0598623 0
0.83019 0.0573681 0
0.839819 0.0547999 0
0.849428 0.0521581 0
0.859017 0.0494427 0
0.868584 0.0466538 0
0.87813 0.0437917 0
0.887653 0.0408565 0
0.897154 0.0378484 0
0.906631 0.0347675 0
0.916085 0.0316141 0
0.925514 0.0283883 0
0.934918 0.0250903 0
0.944297 0.0217203 0
0.953649 0.0182786 0
0.962975 0.0147652 0
0.972273 0.0111804 0
0.981544 0.00752451 0
0.990786 0.00379763 0
-1 0.90583 0.1
-1 0.819642 0.1
-1 0.740758 0.1
-1 0.66856 0.1
-1 0.602481 0.1
-1 0.542002 0.1
-1 0.486649 0.1
-1 0.435987 0.1
-1 0.389619 0.1
-1 0.347181 0.1
-1 0.308339 0.1
-1 0.27279 0.1
-1 0.240253 0.1
-1 0.210474 0.1
-1 0.183219 0.1
-1 0.158274 0.1
-1 0.135442 0.1
-1 0.114546 0.1
-1 0.0954213 0.1
-1 0.0779171 0.1
-1 0.0618965 0.1
-1 0.0472336 0.1
-1 0.0338135 0.1
-1 0.0215307 0.1
-1 0.010289 0.1
-0.99 0 0.1
-0.98 0 0.1
-0.97 0 0.1
-0.96 0 0.1
-0.95 0 0.1
-0.94 0 0.1
-0.93 0 0.1
-0.92 0 0.1
-0.91 0 0.1
-0.9 0 0.1
-0.89 0 0.1
-0.88 0 0.1
-0.87 0 0.1
-0.86 0 0.1
-0.85 0 0.1
-0.84 0 0.1
-0.83 0 0.1
-0.82 0 0.1
-0.81 0 0.1
-0.8 0 0.1
-0.79 0 0.1
-0.78 0 0.1
-0.77 0 0.1
-0.76 0 0.1
-0.75 0 0.1
-0.74 0 0.1
-0.73 0 0.1
-0.72 0 0.1
-0.71 0 0.1
-0.7 0 0.1
-0.69 0 0.1
-0.68 0 0.1
-0.67 0 0.1
-0.66 0 0.1
-0.65 0 0.1
-0.64 0 0.1
-0.63 0 0.1
-0.62 0 0.1
-0.61 0 0.1
-0.6 0 0.1
-0.59 0 0.1
-0.58 0 0.1
-0.57 0 0.1
-0.56 0 0.1
-0.55 0 0.1
-0.54 0 0.1
-0.53 0 0.1
-0.52 0 0.1
-0.51 0 0.1
-0.5 0 0.1
-0.49 0 0.1
-0.48 0 0.1
-0.47 0 0.1
-0.46 0 0.1
-0.45 0 0.1
-0.44 0 0.1
-0.43 0 0.1
-0.42 0 0.1
-0.41 0 0.1
-0.4 0 0.1
-0.39 0 0.1
-0.38 0 0.1
-0.37 0 0.1
-0.36 0 0.1
-0.35 0 0.1
-0.34 0 0.1
-0.33 0 0.1
-0.32 0 0.1
-0.31 0 0.1
-0.3 0 0.1
-0.29 0 0.1
-0.28 0 0.1
-0.27 0 0.1
-0.26 0 0.1
-0.25 0 0.1
-0.24 0 0.1
-0.23 0 0.1
-0.22 0 0.1
-0.21 0 0.1
-0.2 0 0.1
-0.19 0 0.1
-0.18 0 0.1
-0.17 0 0.1
-0.16 0 0.1
-0.15 0 0.1
-0.14 0 0.1
-0.13 0 0.1
-0.12 0 0.1
-0.11 0 0.1
-0.1 0 0.1
-0.09 0 0.1
-0.08 0 0.1
-0.07 0 0.1
-0.06 0 0.1
-0.05 0 0.1
-0.04 0 0.1
-0.03 0 0.1
-0.02 0 0.1
-0.01 0 0.1
0.00921362 0.00379763 0.1
0.0184561 0.00752451 0.1
0.0277268 0.0111804 0.1
0.0370253 0.0147652 0.1
0.0463511 0.0182786 0.1
0.0557034 0.0217203 0.1
0.0650819 0.0250903 0.1
0.074486 0.0283883 0.1
0.083915 0.0316141 0.1
0.0933685 0.0347675 0.1
0.102846 0.0378484 0.1
0.112347 0.0408565 0.1
0.12187 0.0437917 0.1
0.131416 0.0466538 0.1
0.140983 0.0494427 0.1
0.150572 0.0521581 0.1
0.160181 0.0547999 0.1
0.16981 0.0573681 0.1
0.179458 0.0598623 0.1
0.189125 0.0622825 0.1
0.198811 0.0646285 0.1
0.208514 0.0669001 0.1
0.218234 0.0690974 0.1
0.227971 0.07122 0.1
0.237724 0.073268 0.1
0.247493 0.0752411 0.1
0.257276 0.0771393 0.1
0.267073 0.0789625 0.1
0.276884 0.0807105 0.1
0.286708 0.0823832 0.1
0.296545 0.0839806 0.1
0.306394 0.0855025 0.1
0.316254 0.0869488 0.1
0.326125 0.0883196 0.1
0.336006 0.0896146 0.1
0.345896 0.0908339 0.1
0.355796 0.0919773 0.1
0.365704 0.0930447 0.1
0.375621 0.0940362 0.1
0.385544 0.0949517 0.1
0.395474 0.095791 0.1
0.40541 0.0965542 0.1
0.415352 0.0972412 0.1
0.425299 0.097852 0.1
0.43525 0.0983865 0.1
0.445205 0.0988447 0.1
0.455164 0.0992266 0.1
0.465125 0.0995321 0.1
0.475088 0.0997613 0.1
0.485052 0.0999141 0.1
0.495017 0.0999904 0.1
0.504983 0.0999904 0.1
0.514948 0.0999141 0.1
0.524912 0.0997613 0.1
0.534875 0.0995321 0.1
0.544836 0.0992266 0.1
0.554795 0.0988447 0.1
0.56475 0.0983865 0.1
0.574701 0.097852 0.1
0.584648 0.0972412 0.1
0.59459 0.0965542 0.1
0.604526 0.095791 0.1
0.614456 0.0949517 0.1
0.624379 0.0940362 0.1
0.634296 0.0930447 0.1
0.644204 0.0919773 0.1
0.654104 0.0908339 0.1
0.663994 0.0896146 0.1
0.673875 0.0883196 0.1
0.683746 0.0869488 0.1
0.693606 0.0855025 0.1
0.703455 0.0839806 0.1
0.713292 0.0823832 0.1
0.723116 0.0807105 0.1
0.732927 0.0789625 0.1
0.742724 0.0771393 0.1
0.752508 0.0752411 0.1
0.762276 0.073268 0.1
0.772029 0.07122 0.1
0.781766 0.0690974 0.1
0.791486 0.0669001 0.1
0.801189 0.0646285 0.1
0.810875 0.0622825 0.1
0.820542 0.0598623 0.1
0.83019 0.0573681 0.1
0.839819 0.0547999 0.1
0.849428 0.0521581 0.1
0.859017 0.0494427 0.1
0.868584 0.0466538 0.1
0.87813 0.0437917 0.1
0.887653 0.0408565 0.1
0.897154 0.0378484 0.1
0.906631 0.0347675 0.1
0.916085 0.0316141 0.1
0.925514 0.0283883 0.1
0.934918 0.0250903 0.1
0.944297 0.0217203 0.1
0.953649 0.0182786 0.1
0.962975 0.0147652 0.1
0.972273 0.0111804 0.1
0.981544 0.00752451 0.1
0.990786 0.00379763 0.1
1.01 0 0.1
1.02 0 0.1
1.03 0 0.1
1.04 0 0.1
1.05 0 0.1
1.06 0 0.1
1.07 0 0.1
1.08 0 0.1
1.09 0 0.1
1.1 0 0.1
1.11 0 0.1
1.12 0 0.1
1.13 0 0.1
1.14 0 0.1
1.15 0 0.1
1.16 0 0.1
1.17 0 0.1
1.18 0 0.1
1.19 0 0.1
1.2 0 0.1
1.21 0 0.1
1.22 0 0.1
1.23 0 0.1
1.24 0 0.1
1.25 0 0.1
1.26 0 0.1
1.27 0 0.1
1.28 0 0.1
1.29 0 0.1
1.3 0 0.1
1.31 0 0.1
1.32 0 0.1
1.33 0 0.1
1.34 0 0.1
1.35 0 0.1
1.36 0 0.1
1.37 0 0.1
1.38 0 0.1
1.39 0 0.1
1.4 0 0.1
1.41 0 0.1
1.42 0 0.1
1.43 0 0.1
1.44 0 0.1
1.45 0 0.1
1.46 0 0.1
1.47 0 0.1
1.48 0 0.1
1.49 0 0.1
1.5 0 0.1
1.51 0 0.1
1.52 0 0.1
1.53 0 0.1
1.54 0 0.1
1.55 0 0.1
1.56 0 0.1
1.57 0 0.1
1.58 0 0.1
1.59 0 0.1
1.6 0 0.1
1.61 0 0.1
1.62 0 0.1
1.63 0 0.1
1.64 0 0.1
1.65 0 0.1
1.66 0 0.1
1.67 0 0.1
1.68 0 0.1
1.69 0 0.1
1.7 0 0.1
1.71 0 0.1
1.72 0 0.1
1.73 0 0.1
1.74 0 0.1
1.75 0 0.1
1.76 0 0.1
1.77 0 0.1
1.78 0 0.1
1.79 0 0.1
1.8 0 0.1
1.81 0 0.1
1.82 0 0.1
1.83 0 0.1
1.84 0 0.1
1.85 0 0.1
1.86 0 0.1
1.87 0 0.1
1.88 0 0.1
[...]
CELL_DATA 7425
SCALARS rho float
LOOKUP_TABLE default
0.589863
0.805179
0.82036
0.828179
0.800142
0.819924
0.821489
0.81513
0.814111
0.739566
0.863793
0.810367
0.814912
0.828035
0.804349
0.818018
0.799425
0.81435
0.803589
0.76783
0.831903
0.82229
0.72579
0.828716
0.803998
0.705499
0.831819
0.849397
0.800327
0.808398
0.819962
0.724669
0.803737
0.654299
0.524512
0.828683
0.803614
0.81511
0.811477
0.828617
0.718008
0.706664
0.790636
0.697029
0.589728
0.748986
0.800074
0.814851
0.66908
0.718579
0.746325
0.805297
0.812579
0.799757
0.707575
0.701558
0.823656
0.800602
0.739442
0.702246
0.712574
0.80782
0.814324
0.800029
0.798945
0.818458
0.586956
0.774041
0.698214
0.808337
0.804713
0.803268
0.883612
0.821366
0.8111
0.814168
0.805197
0.800591
0.814327
0.757874
0.816885
0.807402
0.811334
0.789133
0.836351
0.801723
0.577
0.830537
0.546396
0.848931
0.701206
0.730717
0.846309
0.803292
0.818252
0.759588
0.83665
0.788387
0.826328
0.803165
0.808962
0.738562
0.803393
0.828853
0.599459
0.811388
0.825041
0.709151
0.815945
0.799873
0.81757
0.785046
0.790204
0.812602
0.790372
0.78671
0.831866
0.803166
0.696851
0.646465
0.805191
0.777995
0.814081
0.790745
0.859329
0.839723
0.807868
0.804887
0.662862
0.509389
0.815432
0.657261
0.520107
0.869105
0.669932
0.800235
0.811327
0.7248
0.584585
0.726937
0.72519
0.810162
0.810721
0.704819
0.80368
0.78001
0.567973
0.789435
0.782732
0.828439
0.817352
0.701017
0.803545
0.744449
0.703325
0.803393
0.810767
0.831048
0.798221
0.656413
0.802816
0.698381
0.801738
0.83039
0.821239
0.802507
0.81418
0.785503
0.806465
0.801323
0.82051
0.805174
0.792081
0.799833
0.800418
0.741842
0.804342
0.760077
0.597753
0.699322
0.800354
0.793477
0.880023
0.832406
0.665483
0.823668
0.799344
0.827997
0.800528
0.81446
0.813782
0.803313
0.807133
0.702756
0.815957
0.820031
0.770669
0.797889
0.862264
0.807974
0.812308
0.812293
0.614969
0.839779
0.575633
0.536611
0.597738
0.606456
0.828732
0.879565
0.807684
0.798822
0.841778
0.814115
0.81754
0.821542
0.816138
0.63965
0.565204
0.814759
0.5496
0.596118
0.701147
0.812598
0.815044
0.814168
0.833725
0.814092
0.865505
0.707351
0.835782
0.71561
0.805365
0.804045
0.802212
0.715272
0.722681
0.621178
0.702123
0.863978
0.876954
0.807166
0.807863
0.799649
0.812049
0.718582
0.822372
0.80091
0.826376
0.794902
0.810948
0.720716
0.813985
0.824464
0.741598
0.531957
0.800431
0.736334
0.843911
0.815306
0.725816
0.816491
0.815798
0.850308
0.810534
0.80465
0.803355
0.826352
0.86114
0.80613
0.620888
0.84933
0.812792
0.805758
0.828203
0.837789
0.814067
0.822155
0.793806
0.816018
0.867964
0.850306
0.827921
0.837308
0.802951
0.818026
0.803257
0.759866
0.703727
0.583429
0.697287
0.803128
0.814025
0.816893
0.855823
0.780104
0.647342
0.82776
0.525997
0.775017
0.801611
0.648014
0.507845
0.64072
0.816138
0.814325
0.814114
0.813742
0.827399
0.774811
0.811652
0.802799
0.81409
0.84124
0.868554
0.834138
0.803093
0.699816
0.79658
0.834736
0.693029
0.799441
0.802256
0.865106
0.817969
0.595197
0.814448
0.742301
0.853388
0.733433
0.811155
0.907767
0.800584
0.796145
0.660642
0.637248
0.709407
0.781588
0.827215
0.815884
0.814729
0.884131
0.859162
0.800248
0.799768
0.826284
0.740631
0.802777
0.879649
0.801485
0.805459
0.801371
0.802685
0.814041
0.816637
0.817259
0.638793
0.830577
0.65001
0.808906
0.641885
0.803385
0.80241
0.840843
0.730804
0.816564
0.809437
0.817847
0.800116
0.802609
0.81154
0.700567
0.82472
0.814176
0.814003
0.800802
0.737102
0.562449
0.806575
0.812133
0.803285
0.814068
0.795251
0.515947
0.846698
0.814378
0.803968
0.786414
0.814349
0.805197
0.803584
0.817135
0.80767
0.82325
0.769341
0.81322
0.807969
0.565235
0.803815
0.641729
0.839167
0.637919
0.815629
0.878172
0.598549
0.818545
0.749964
0.804563
0.873597
0.538523
0.823844
0.82301
0.803611
0.826434
0.811544
0.824188
0.83127
0.825527
0.741452
0.828192
0.761662
0.810758
0.794516
0.794316
0.759511
0.805796
0.802169
0.815293
0.753751
0.805166
0.606644
0.616357
0.692093
0.813896
0.844676
0.865191
0.830465
0.7993
0.813815
0.805383
0.81922
0.681994
0.801574
0.743963
0.824538
0.815697
0.806176
0.709272
0.728484
0.537383
0.607508
0.801907
0.613208
0.793402
0.765622
0.770755
0.726135
0.763369
0.768499
0.810486
0.815886
0.820355
0.812591
0.712819
0.60838
0.839556
0.807788
0.783569
0.810591
0.802952
0.837129
0.720988
0.855701
0.763951
0.730766
0.765577
0.812431
0.548638
0.799524
0.842139
0.813844
0.814815
0.81074
0.799902
0.781311
0.836162
0.803206
0.843486
0.722012
0.705263
0.800811
0.795846
0.822767
0.71043
0.848431
0.801167
0.816941
0.799406
0.779632
0.808994
0.596789
0.678927
0.634055
0.813942
0.804395
0.827024
0.750128
0.810766
0.815761
0.821175
0.799688
0.731469
0.79776
0.815045
0.803291
0.706687
0.814637
0.819682
0.840629
0.811897
0.826041
0.862598
0.857621
0.745328
0.605519
0.838451
0.806332
0.843777
0.815221
0.823439
0.814578
0.814831
0.648816
0.80598
0.810072
0.814004
0.792557
0.81116
0.80543
0.861749
0.799375
0.81392
0.815678
0.872228
0.599765
0.814513
0.843314
0.883532
0.534044
0.817293
0.830545
0.796389
0.814964
0.795639
0.867926
0.812829
0.831977
0.813482
0.621278
0.802603
0.804296
0.693944
0.85349
0.759672
0.80206
0.814978
0.813821
0.8609
0.7956
0.834113
0.835311
0.785259
0.825697
0.843174
0.800443
0.811186
0.807651
0.805473
0.815657
0.802742
0.84569
0.769556
0.809958
0.803378
0.815813
0.72461
0.814063
0.81919
0.753469
0.814632
0.817028
0.828273
0.825815
0.80137
0.801169
0.850862
0.767943
0.825929
0.844687
0.804702
0.510938
0.81403
0.828945
0.852738
0.813558
0.803214
0.808899
0.855404
0.780231
0.802717
0.801828
0.814102
0.729618
0.803251
0.830541
0.808823
0.795247
0.794421
0.84371
0.806765
0.845703
0.802106
0.824973
0.813802
0.804353
0.842256
0.813999
0.68195
0.819607
0.807264
0.813874
0.906263
0.801279
0.816628
0.800924
0.800928
0.817106
0.801029
0.803536
0.783752
0.747356
0.807439
0.81407
0.758933
0.792295
0.823751
0.813194
0.823014
0.806775
0.826474
0.875558
0.831286
0.580705
0.709926
0.841287
0.818156
0.844629
0.8157
0.850514
0.80804
0.812983
0.800015
0.83894
0.86131
0.853226
0.732979
0.815099
0.822898
0.743596
0.817834
0.776292
0.800704
0.734399
0.816972
0.831502
0.823729
0.863148
0.815195
0.814386
0.811164
0.815592
0.836297
0.812394
0.799348
0.810407
0.738986
0.812488
0.774241
0.83339
0.813473
0.640452
0.778083
0.811795
0.799846
0.820633
0.803168
0.815625
0.818168
0.804989
0.820196
0.804299
0.806596
0.60134
0.847526
0.825833
0.827393
0.815616
0.803338
0.703071
0.8073
0.907952
0.814574
0.801783
0.813932
0.782723
0.808017
0.814279
0.822063
0.814849
0.814324
0.817145
0.69445
0.778739
0.765667
0.813775
0.805805
0.80177
0.623278
0.806442
0.803291
0.70984
0.837858
0.818068
0.802726
0.808097
0.799986
0.818098
0.814558
0.81438
0.814062
0.710796
0.832249
0.800513
0.808171
0.843507
0.818287
0.817183
0.800807
0.7538
0.824511
0.788291
0.822199
0.789769
0.806434
0.821737
0.737879
0.818148
0.656151
0.872337
0.705681
0.845503
0.801696
0.875412
0.794169
0.802062
0.821462
0.836908
0.838944
0.826116
0.820636
0.815612
0.801935
0.804395
0.80864
0.728322
0.827742
0.800237
0.718964
0.831093
0.698838
0.800749
0.861602
0.805769
0.705046
0.798126
0.815101
0.702449
0.785725
0.820188
0.83237
0.807924
0.594006
0.731048
0.812608
0.802087
0.8141
0.801305
0.738215
0.815005
0.816644
0.813661
0.7761
0.803365
0.804673
0.804372
0.562968
0.813898
0.834601
0.583769
0.816117
0.817015
0.81567
0.819203
0.815402
0.825254
0.799831
0.79535
0.770981
0.823359
0.830139
0.825564
0.835829
0.76624
0.810039
0.726937
0.77277
0.809488
0.821856
0.814365
0.801104
0.859406
0.8141
0.801217
0.810656
0.816986
0.816136
0.837205
0.81548
0.813953
0.812151
0.814851
0.800918
0.821767
0.803945
0.823581
0.814537
0.579395
0.814579
0.835061
0.859174
0.838769
0.497185
0.817691
0.805177
0.501933
0.672238
0.648899
0.83483
0.808599
0.811824
0.813906
0.803259
0.817637
0.81144
0.538253
0.689491
0.818653
0.806782
0.816535
0.803627
0.8105
0.812028
0.820994
0.800094
0.695696
0.857124
0.803209
0.814932
0.81465
0.758606
0.49224
0.833508
0.814049
0.741545
0.802763
0.807047
0.595999
0.828082
0.815715
0.828399
0.819613
0.826759
0.804879
0.72224
0.645161
0.564607
0.826028
0.8093
0.78313
0.814113
0.780704
0.818745
0.873576
0.763169
0.822382
0.814512
0.826528
0.883809
0.815419
0.812908
0.803452
0.814039
0.693887
0.828879
0.800456
0.81097
0.802448
0.784611
0.854592
0.822792
0.840896
0.822297
0.757424
0.756581
0.804055
0.81891
0.803138
0.805393
0.802791
0.776611
0.815641
0.76258
0.821873
0.663591
0.814974
0.803146
0.73503
0.823745
0.818687
0.740931
0.801351
0.758135
0.882314
0.800847
0.814032
0.763604
0.800845
0.815271
0.804079
0.592247
0.821472
0.799311
0.802239
0.815509
0.826274
0.75823
0.80623
0.842534
0.82768
0.814539
0.836422
0.693224
0.701381
0.8141
0.745081
0.822979
0.772126
0.814021
0.802699
0.811027
0.752844
0.794442
0.765312
0.810874
0.803204
0.632814
0.779388
0.799393
0.850046
0.815361
0.829316
0.53089
0.825592
0.785585
0.859132
0.801078
0.818472
0.801022
0.786542
0.799436
0.826358
0.836198
0.822288
0.817968
0.705075
0.774736
0.816156
0.805527
0.81112
0.804037
0.703502
0.793519
0.803955
0.811359
0.827815
0.851568
0.832478
0.814534
0.800137
0.804824
0.802556
0.78015
0.613695
0.801191
0.732958
0.663602
0.823508
0.7995
0.777271
0.800636
0.75502
0.785643
0.812648
0.822797
0.804062
0.816897
0.818027
0.821167
0.814468
0.809113
0.713241
0.700678
0.642479
0.829935
0.869884
0.815894
0.841979
0.848289
0.864043
0.737737
0.817319
0.863347
0.810951
0.814071
0.816846
0.734127
0.813343
0.807421
0.806913
0.521711
0.814118
0.76198
0.814248
0.814002
0.803654
0.703316
0.814282
0.612658
0.825547
0.802864
0.822734
0.855584
0.803555
0.795621
0.821716
0.812594
0.806126
0.763021
0.515377
0.821666
0.80325
0.829759
0.826457
0.802998
0.807188
0.834974
0.722277
0.506347
0.886479
0.801351
0.816616
0.804462
0.708667
0.799329
0.800679
0.816018
0.738043
0.648098
0.883464
0.715457
0.837123
0.813042
0.833501
0.843172
0.793076
0.804882
0.814619
0.853134
0.739262
0.870971
0.815032
0.565342
0.803189
0.748552
0.853348
0.76138
0.804352
0.804078
0.80026
0.80191
0.80991
0.814092
0.856528
0.806676
0.802933
0.801413
0.800635
0.813432
0.817756
0.802701
0.813678
0.849672
0.803153
0.784208
0.802372
0.840393
0.727516
0.814677
0.814832
0.65621
0.714412
0.805759
0.823727
0.804365
0.516721
0.857437
0.814205
0.83378
0.805454
0.803407
0.801626
0.78706
0.589162
0.804493
0.81701
0.836506
0.821355
0.814112
0.799052
0.748462
0.801769
0.766992
0.7879
0.800009
0.791259
0.751096
0.801433
0.812106
0.811407
0.83269
0.850032
0.556778
0.842429
0.814042
0.821048
0.802571
0.822901
0.812271
0.894795
0.800842
0.868448
0.805876
0.760852
0.862432
0.802427
0.800381
0.824841
0.662008
0.646921
0.803506
0.804007
0.696996
0.655882
0.800037
0.82457
0.814167
0.823338
0.73454
0.817794
0.813954
0.826828
0.817691
0.812122
0.814063
0.755459
0.804574
0.816581
0.812526
0.677606
0.569075
0.8141
0.651536
0.722961
0.55793
0.841915
0.800761
0.532465
0.602894
0.828002
0.908184
0.818985
0.653945
0.815148
0.787185
0.802301
0.786823
0.821423
0.810894
0.788643
0.821795
0.801863
0.590351
0.818671
0.767576
0.816808
0.698521
0.822971
0.790419
0.814955
0.80075
0.664432
0.843912
0.80716
0.807322
0.499602
0.817712
0.80098
0.853233
0.709941
0.817959
0.590963
0.72164
0.801972
0.797367
0.734852
0.717219
0.714192
0.51274
0.601345
0.800716
0.523219
0.82335
0.529161
0.758037
0.674142
0.608678
0.545762
0.746355
0.80315
0.713201
0.82207
0.801383
0.803437
0.762023
0.889885
0.799748
0.825192
0.803592
0.813971
0.707163
0.808209
0.737686
0.822673
0.886267
0.834103
0.748753
0.823525
0.771335
0.880128
0.804329
0.75949
0.851137
0.777669
0.800063
0.806047
0.75907
0.746341
0.672377
0.805127
0.803099
0.818711
0.834082
0.613238
0.808657
0.542274
0.670043
0.621534
0.819247
0.821814
0.810004
0.804107
0.617481
0.872718
0.802755
0.803007
0.86388
0.813621
0.772716
0.813356
0.80248
0.818753
0.803196
0.718163
0.803901
0.659658
0.799659
0.804856
0.801794
0.640717
0.812178
0.810895
0.725998
0.818477
0.552616
0.579268
0.804296
0.69776
0.726962
0.574553
0.725262
0.814667
0.704104
0.773548
0.715287
0.813343
0.671719
0.762929
0.806883
0.811559
0.65693
0.802141
0.895335
0.796982
0.81768
0.589672
0.695226
0.801807
0.814108
0.815006
0.852039
0.813745
0.804442
0.803884
0.803449
0.715178
0.716449
0.617743
0.772439
0.539004
0.722776
0.810923
0.815365
0.80681
0.799973
0.557627
0.810047
0.803885
0.557535
0.547841
0.7475
0.803698
0.80695
0.552357
0.798604
0.572339
0.723176
0.609999
0.814001
0.802807
0.599415
0.610346
0.868216
0.810527
0.766222
0.719521
0.625854
0.656872
0.707003
0.816881
0.76059
0.765417
0.625984
0.754875
0.810268
0.816293
0.813629
0.816405
0.866828
0.755794
0.81974
0.803534
0.851686
0.814053
0.802878
0.814178
0.721205
0.813803
0.812866
0.816057
0.812049
0.816752
0.803366
0.81875
0.811303
0.810676
0.818102
0.800263
0.817441
0.819771
0.66899
0.819433
0.868741
0.819001
0.79321
0.647518
0.858971
0.819614
0.825599
0.800221
0.812397
0.757458
0.852981
0.569478
0.72898
0.810039
0.816588
0.804007
0.803469
0.832667
0.805619
0.805702
0.816204
0.781411
0.839104
0.842442
0.815903
0.665844
0.619977
0.816682
0.817476
0.78924
0.850086
0.847688
0.811589
0.814494
0.778578
0.815052
0.818665
0.815086
0.8196
0.81379
0.816739
0.851487
0.81688
0.815387
0.818411
0.818607
0.785306
0.814994
0.804721
0.804899
0.80523
0.819398
0.812647
0.789096
0.753776
0.813733
0.806432
0.809782
0.806537
0.858104
0.803913
0.81495
0.81383
0.805738
0.676316
0.804034
0.813883
0.815723
0.810512
0.813933
0.814358
0.814139
0.810346
0.864692
0.507149
0.81397
0.842147
0.813775
0.803184
0.808779
0.815951
0.840216
0.801107
0.801968
0.813155
0.698128
0.813994
0.808787
0.808064
0.813637
0.814008
0.814134
0.814431
0.517244
0.812255
0.718613
0.886055
0.821779
0.732713
0.678905
0.816296
0.804011
0.819311
0.648125
0.802035
0.814407
0.649567
0.800528
0.804335
0.816188
0.806846
0.857142
0.810012
0.608974
0.801368
0.77526
0.811419
0.889278
0.803949
0.815711
0.819835
0.832644
0.814464
0.823147
0.836883
0.636698
0.803356
0.657355
0.814771
0.814678
0.710693
0.814571
0.805612
0.711664
0.815668
0.704304
0.861447
0.784474
0.815284
0.814048
0.814474
0.670002
0.814691
0.63484
0.800735
0.792683
0.823025
0.81612
0.717746
0.766731
0.830686
0.813822
0.821798
0.822657
0.814497
0.826031
0.80013
0.554811
0.754703
0.760254
0.73056
0.838163
0.823129
0.834898
0.777097
0.802871
0.814155
0.814101
0.8141
0.775249
0.566368
0.803299
0.533922
0.808847
0.825037
0.800362
0.803879
0.813728
0.806211
0.783444
0.732921
0.814451
0.859481
0.814348
0.799917
0.736393
0.810209
0.789072
0.834153
0.510605
0.796208
0.80679
0.799547
0.693849
0.813941
0.81152
0.858146
0.571503
0.807538
0.803359
0.813868
0.616809
0.814188
0.803422
0.803506
0.803131
0.814287
0.814372
0.816972
0.81416
0.716113
0.804669
0.803288
0.814125
0.896328
0.814239
0.774814
0.84184
0.799333
0.803207
0.603456
0.814029
0.80345
0.826399
0.802291
0.866561
0.815489
0.854332
0.801009
0.821398
0.778392
0.561178
0.753913
0.795042
0.804812
0.814104
0.814801
0.55835
0.862088
0.858964
0.769517
0.757958
0.738385
0.812824
0.849217
0.814061
0.814204
0.814095
0.804406
0.72626
0.803621
0.799754
0.764179
0.824955
0.823724
0.862141
0.816531
0.814111
0.540783
0.809047
0.814072
0.801262
0.77472
0.818267
0.803178
0.813933
0.827554
0.798692
0.804089
0.801666
0.815883
0.839633
0.803021
0.799775
0.802209
0.765999
0.820648
0.569745
0.86865
0.803835
0.548727
0.803746
0.803773
0.820205
0.604021
0.60835
0.802119
0.804312
0.801464
0.861038
0.78026
0.815391
0.803054
0.867038
0.804852
0.804582
0.826805
0.816712
0.820808
0.822012
0.82108
0.867753
0.730301
0.852504
0.818028
0.655296
0.803062
0.80331
0.803767
0.821873
0.8242
0.80445
0.801676
0.800672
0.823401
0.803679
0.803765
0.800315
0.82508
0.8041
0.802312
0.806228
0.828492
0.80126
0.802088
0.825058
0.800177
0.816294
0.652924
0.827054
0.850231
0.805304
0.820357
0.803397
0.829382
0.838034
0.803498
0.822213
0.801024
0.807616
0.789794
0.802447
0.803649
0.806503
0.80635
0.80513
0.819334
0.815689
0.811466
0.83201
0.802844
0.802413
0.80053
0.789235
0.834337
0.803325
0.820089
0.816124
0.807506
0.805596
0.803016
0.839402
0.865957
0.800227
0.680309
0.801601
0.842645
0.817449
0.805815
0.804593
0.820143
0.845032
0.611244
0.829529
0.795268
0.851427
0.81952
0.812287
0.813699
0.808861
0.804085
0.813125
0.809027
0.593793
0.84843
0.794948
0.815155
0.854987
0.820065
0.763979
0.809063
0.815408
0.81628
0.803128
0.663294
0.809898
0.863495
0.803205
0.801171
0.776365
0.871478
0.800861
0.877311
0.807268
0.817998
0.821369
0.802953
0.804322
0.813692
0.816762
0.804154
0.814346
0.81736
0.88158
0.821131
0.809461
0.800835
0.828962
0.810658
0.83966
0.809301
0.807095
0.812814
0.817407
0.830416
0.814637
0.823194
0.833042
0.814847
0.702505
0.69502
0.814117
0.818566
0.804525
0.814148
0.520443
0.855202
0.800332
0.806372
0.814845
0.814478
0.80413
0.813521
0.801068
0.801691
0.808602
0.815342
0.758076
0.785315
0.823647
0.843571
0.835343
0.800887
0.805836
0.803456
0.813113
0.806175
0.800166
0.800387
0.801453
0.811446
0.798059
0.803424
0.836047
0.832071
0.731845
0.699408
0.807807
0.702057
0.800194
0.581003
0.804598
0.807354
0.803724
0.818973
0.834531
0.81491
0.813967
0.810464
0.804027
0.881757
0.817134
0.805506
0.772835
0.593249
0.810401
0.807283
0.770016
0.815363
0.814865
0.79177
0.800926
0.804195
0.636372
0.830904
0.803611
0.782454
0.779811
0.853074
0.810142
0.80355
0.80332
0.810846
0.811306
0.524248
0.80221
0.84001
0.814912
0.798836
0.591999
0.815055
0.81504
0.814089
0.834301
0.8149
0.804199
0.822622
0.806143
0.578181
0.808923
0.738128
0.798796
0.814645
0.72322
0.815849
0.846897
0.832087
0.666045
0.891078
0.78598
0.778364
0.797108
0.779761
0.809118
0.850903
0.808616
0.803132
0.814568
0.809807
0.783058
0.786315
0.814836
0.808989
0.835339
0.821953
0.836174
0.80208
0.800229
0.814147
0.856998
0.817128
0.818931
0.814388
0.609273
0.795795
0.824519
0.829784
0.866224
0.813738
0.81944
0.514341
0.810709
0.801171
0.81362
0.815455
0.847998
0.814129
0.811255
0.881715
0.765416
0.812918
0.814271
0.809945
0.805389
0.815184
0.657448
0.800711
0.849964
0.833982
0.811222
0.81436
0.814403
0.809721
0.702148
0.813314
0.800865
0.839093
0.819252
0.812309
0.831825
0.793537
0.812388
0.818601
0.809505
0.820064
0.745806
0.855655
0.819746
0.814461
0.814137
0.813799
0.816536
0.817953
0.813854
0.811646
0.841548
0.819382
0.800808
0.825716
0.82752
0.816706
0.814862
0.800984
0.801929
0.81414
0.819808
0.829861
0.813908
0.817264
0.800526
0.810839
0.813951
0.813875
0.802615
0.815597
0.814353
0.803472
0.813981
0.836184
0.800209
0.810331
0.822241
0.563308
0.815157
0.818959
0.816239
0.815839
0.822675
0.829375
0.816482
0.819623
0.702688
0.814153
0.801799
0.816502
0.819633
0.835554
0.822294
0.816041
0.829989
0.825616
0.811747
0.819365
0.820238
0.805045
0.814228
0.816489
0.819889
0.832699
0.813683
0.816578
0.802823
0.814057
0.814119
0.529083
0.630986
0.814535
0.822173
0.802289
0.823131
0.81678
0.842437
0.709297
0.814737
0.732071
0.818005
0.811227
0.814226
0.829868
0.814655
0.805612
0.814038
0.83056
0.840198
0.813839
0.720295
0.819651
0.816881
0.800502
0.803097
0.816209
0.856282
0.813731
0.814408
0.850101
0.829469
0.843636
0.579029
0.829712
0.814914
0.811788
0.818224
0.851503
0.818577
0.719449
0.800186
0.832202
0.800488
0.800344
0.805802
0.748719
0.814428
0.815268
0.727069
0.815268
0.827772
0.814333
0.814953
0.799892
0.81916
0.814099
0.824229
0.808856
0.808937
0.81579
0.700799
0.819854
0.81501
0.814093
0.642503
0.717226
0.601396
0.823694
0.53834
0.854837
0.728324
0.843367
0.813569
0.725398
0.821883
0.816708
0.743469
0.808043
0.81915
0.794529
0.817336
0.816736
0.816666
0.814096
0.808824
0.803775
0.738237
0.836932
0.820885
0.81743
0.799831
0.815807
0.802751
0.816875
0.814451
0.855544
0.818564
0.503999
0.814126
0.819572
0.819451
0.77847
0.816114
0.80687
0.818934
0.846257
0.598781
0.809766
0.799997
0.816212
0.818426
0.818489
0.813516
0.819388
0.81469
0.815434
0.803176
0.81512
0.84657
0.814845
0.792253
0.812458
0.624457
0.717884
0.814153
0.817821
0.803245
0.823016
0.735279
0.803205
0.803226
0.82096
0.702368
0.81841
0.800051
0.816307
0.86591
0.785855
0.822668
0.818781
0.823475
0.814987
0.770183
0.802599
0.814559
0.902425
0.827604
0.817279
0.832673
0.810646
0.869543
0.718147
0.699848
0.853172
0.802788
0.69946
0.851105
0.786406