# vtk DataFile Version 1.0
unstructured grid
ascii
DATASET UNSTRUCTURED_GRID
points 7812 float
-1 0 0
-1 1 0
2 0 0
2 1 0
0 0 0
1 0 0
-1 1 0.1
-1 0 0.1
0 0 0.1
1 0 0.1
2 0 0.1
2 1 0.1
-0.99 0 0
-0.98 0 0
-0.97 0 0
-0.96 0 0
-0.95 0 0
-0.94 0 0
-0.93 0 0
-0.92 0 0
-0.91 0 0
-0.9 0 0
-0.89 0 0
-0.88 0 0
-0.87 0 0
-0.86 0 0
-0.85 0 0
-0.84 0 0
-0.83 0 0
-0.82 0 0
-0.81 0 0
-0.8 0 0
-0.79 0 0
-0.78 0 0
-0.77 0 0
-0.76 0 0
-0.75 0 0
-0.74 0 0
-0.73 0 0
-0.72 0 0
-0.71 0 0
-0.7 0 0
-0.69 0 0
-0.68 0 0
-0.67 0 0
-0.66 0 0
-0.65 0 0
-0.64 0 0
-0.63 0 0
-0.62 0 0
-0.61 0 0
-0.6 0 0
-0.59 0 0
-0.58 0 0
-0.57 0 0
-0.56 0 0
-0.55 0 0
-0.54 0 0
-0.53 0 0
-0.52 0 0
-0.51 0 0
-0.5 0 0
-0.49 0 0
-0.48 0 0
-0.47 0 0
-0.46 0 0
-0.45 0 0
-0.44 0 0
-0.43 0 0
-0.42 0 0
-0.41 0 0
-0.4 0 0
-0.39 0 0
-0.38 0 0
-0.37 0 0
-0.36 0 0
-0.35 0 0
-0.34 0 0
-0.33 0 0
-0.32 0 0
-0.31 0 0
-0.3 0 0
-0.29 0 0
-0.28 0 0
-0.27 0 0
-0.26 0 0
-0.25 0 0
-0.24 0 0
-0.23 0 0
-0.22 0 0
-0.21 0 0
-0.2 0 0
-0.19 0 0
-0.18 0 0
-0.17 0 0
-0.16 0 0
-0.15 0 0
-0.14 0 0
-0.13 0 0
-0.12 0 0
-0.11 0 0
-0.1 0 0
-0.09 0 0
-0.08 0 0
-0.07 0 0
-0.06 0 0
-0.05 0 0
-0.04 0 0
-0.03 0 0
-0.02 0 0
-0.01 0 0
1.01 0 0
1.02 0 0
1.03 0 0
1.04 0 0
1.05 0 0
1.06 0 0
1.07 0 0
1.08 0 0
1.09 0 0
1.1 0 0
1.11 0 0
1.12 0 0
1.13 0 0
1.14 0 0
1.15 0 0
1.16 0 0
1.17 0 0
1.18 0 0
1.19 0 0
1.2 0 0
1.21 0 0
1.22 0 0
1.23 0 0
1.24 0 0
1.25 0 0
1.26 0 0
1.27 0 0
1.28 0 0
1.29 0 0
1.3 0 0
1.31 0 0
1.32 0 0
1.33 0 0
1.34 0 0
1.35 0 0
1.36 0 0
1.37 0 0
1.38 0 0
1.39 0 0
1.4 0 0
1.41 0 0
1.42 0 0
1.43 0 0
1.44 0 0
1.45 0 0
1.46 0 0
1.47 0 0
1.48 0 0
1.49 0 0
1.5 0 0
1.51 0 0
1.52 0 0
1.53 0 0
1.54 0 0
1.55 0 0
1.56 0 0
1.57 0 0
1.58 0 0
1.59 0 0
1.6 0 0
1.61 0 0
1.62 0 0
1.63 0 0
1.64 0 0
1.65 0 0
1.66 0 0
1.67 0 0
1.68 0 0
1.69 0 0
1.7 0 0
1.71 0 0
1.72 0 0
1.73 0 0
1.74 0 0
1.75 0 0
1.76 0 0
1.77 0 0
1.78 0 0
1.79 0 0
1.8 0 0
1.81 0 0
1.82 0 0
1.83 0 0
1.84 0 0
1.85 0 0
1.86 0 0
1.87 0 0
1.88 0 0
1.89 0 0
1.9 0 0
1.91 0 0
1.92 0 0
1.93 0 0
1.94 0 0
1.95 0 0
1.96 0 0
1.97 0 0
1.98 0 0
1.99 0 0
2 0.010289 0
2 0.0215307 0
2 0.0338135 0
2 0.0472336 0
2 0.0618965 0
2 0.0779171 0
2 0.0954213 0
2 0.114546 0
2 0.135442 0
2 0.158274 0
2 0.183219 0
2 0.210474 0
2 0.240253 0
2 0.27279 0
2 0.308339 0
2 0.347181 0
2 0.389619 0
2 0.435987 0
2 0.486649 0
2 0.542002 0
2 0.602481 0
2 0.66856 0
2 0.740758 0
2 0.819642 0
2 0.90583 0
1.9 1 0
1.8 1 0
1.7 1 0
1.6 1 0
1.5 1 0
1.4 1 0
1.3 1 0
1.2 1 0
1.1 1 0
1 1 0
0.9 1 0
0.8 1 0
0.7 1 0
0.6 1 0
0.5 1 0
0.4 1 0
0.3 1 0
0.2 1 0
0.1 1 0
3.69793e-12 1 0
-0.1 1 0
-0.2 1 0
-0.3 1 0
-0.4 1 0
-0.5 1 0
-0.6 1 0
-0.7 1 0
-0.8 1 0
-0.9 1 0
-1 0.90583 0
-1 0.819642 0
-1 0.740758 0
-1 0.66856 0
-1 0.602481 0
-1 0.542002 0
-1 0.486649 0
-1 0.435987 0
-1 0.389619 0
-1 0.347181 0
-1 0.308339 0
-1 0.27279 0
-1 0.240253 0
-1 0.210474 0
-1 0.183219 0
-1 0.158274 0
-1 0.135442 0
-1 0.114546 0
-1 0.0954213 0
-1 0.0779171 0
-1 0.0618965 0
-1 0.0472336 0
-1 0.0338135 0
-1 0.0215307 0
-1 0.010289 0
0.00921362 0.00379763 0
0.0184561 0.00752451 0
0.0277268 0.0111804 0
0.0370253 0.0147652 0
0.0463511 0.0182786 0
0.0557034 0.0217203 0
0.0650819 0.0250903 0
0.074486 0.0283883 0
0.083915 0.0316141 0
0.0933685 0.0347675 0
0.102846 0.0378484 0
0.112347 0.0408565 0
0.12187 0.0437917 0
0.131416 0.0466538 0
0.140983 0.0494427 0
0.150572 0.0521581 0
0.160181 0.0547999 0
0.16981 0.0573681 0
0.179458 0.0598623 0
0.189125 0.0622825 0
0.198811 0.0646285 0
0.208514 0.0669001 0
0.218234 0.0690974 0
0.227971 0.07122 0
0.237724 0.073268 0
0.247493 0.0752411 0
0.257276 0.0771393 0
0.267073 0.0789625 0
0.276884 0.0807105 0
0.286708 0.0823832 0
0.296545 0.0839806 0
0.306394 0.0855025 0
0.316254 0.0869488 0
0.326125 0.0883196 0
0.336006 0.0896146 0
0.345896 0.0908339 0
0.355796 0.0919773 0
0.365704 0.0930447 0
0.375621 0.0940362 0
0.385544 0.0949517 0
0.395474 0.095791 0
0.40541 0.0965542 0
0.415352 0.0972412 0
0.425299 0.097852 0
0.43525 0.0983865 0
0.445205 0.0988447 0
0.455164 0.0992266 0
0.465125 0.0995321 0
0.475088 0.0997613 0
0.485052 0.0999141 0
0.495017 0.0999904 0
0.504983 0.0999904 0
0.514948 0.0999141 0
0.524912 0.0997613 0
0.534875 0.0995321 0
0.544836 0.0992266 0
0.554795 0.0988447 0
0.56475 0.0983865 0
0.574701 0.097852 0
0.584648 0.0972412 0
0.59459 0.0965542 0
0.604526 0.095791 0
0.614456 0.0949517 0
0.624379 0.0940362 0
0.634296 0.0930447 0
0.644204 0.0919773 0
0.654104 0.0908339 0
0.663994 0.0896146 0
0.673875 0.0883196 0
0.683746 0.0869488 0
0.693606 0.0855025 0
0.703455 0.0839806 0
0.713292 0.0823832 0
0.723116 0.0807105 0
0.732927 0.0789625 0
0.742724 0.0771393 0
0.752508 0.0752411 0
0.762276 0.073268 0
0.772029 0.07122 0
0.781766 0.0690974 0
0.791486 0.0669001 0
0.801189 0.0646285 0
0.810875 0.0622825 0
0.820542 0.0598623 0
0.83019 0.0573681 0
0.839819 0.0547999 0
0.849428 0.0521581 0
0.859017 0.0494427 0
0.868584 0.0466538 0
0.87813 0.0437917 0
0.887653 0.0408565 0
0.897154 0.0378484 0
0.906631 0.0347675 0
0.916085 0.0316141 0
0.925514 0.0283883 0
0.934918 0.0250903 0
0.944297 0.0217203 0
0.953649 0.0182786 0
0.962975 0.0147652 0
0.972273 0.0111804 0
0.981544 0.00752451 0
0.990786 0.00379763 0
-1 0.90583 0.1
-1 0.819642 0.1
-1 0.740758 0.1
-1 0.66856 0.1
-1 0.602481 0.1
-1 0.542002 0.1
-1 0.486649 0.1
-1 0.435987 0.1
-1 0.389619 0.1
-1 0.347181 0.1
-1 0.308339 0.1
-1 0.27279 0.1
-1 0.240253 0.1
-1 0.210474 0.1
-1 0.183219 0.1
-1 0.158274 0.1
-1 0.135442 0.1
-1 0.114546 0.1
-1 0.0954213 0.1
-1 0.0779171 0.1
-1 0.0618965 0.1
-1 0.0472336 0.1
-1 0.0338135 0.1
-1 0.0215307 0.1
-1 0.010289 0.1
-0.99 0 0.1
-0.98 0 0.1
-0.97 0 0.1
-0.96 0 0.1
-0.95 0 0.1
-0.94 0 0.1
-0.93 0 0.1
-0.92 0 0.1
-0.91 0 0.1
-0.9 0 0.1
-0.89 0 0.1
-0.88 0 0.1
-0.87 0 0.1
-0.86 0 0.1
-0.85 0 0.1
-0.84 0 0.1
-0.83 0 0.1
-0.82 0 0.1
-0.81 0 0.1
-0.8 0 0.1
-0.79 0 0.1
-0.78 0 0.1
-0.77 0 0.1
-0.76 0 0.1
-0.75 0 0.1
-0.74 0 0.1
-0.73 0 0.1
-0.72 0 0.1
-0.71 0 0.1
-0.7 0 0.1
-0.69 0 0.1
-0.68 0 0.1
-0.67 0 0.1
-0.66 0 0.1
-0.65 0 0.1
-0.64 0 0.1
-0.63 0 0.1
-0.62 0 0.1
-0.61 0 0.1
-0.6 0 0.1
-0.59 0 0.1
-0.58 0 0.1
-0.57 0 0.1
-0.56 0 0.1
-0.55 0 0.1
-0.54 0 0.1
-0.53 0 0.1
-0.52 0 0.1
-0.51 0 0.1
-0.5 0 0.1
-0.49 0 0.1
-0.48 0 0.1
-0.47 0 0.1
-0.46 0 0.1
-0.45 0 0.1
-0.44 0 0.1
-0.43 0 0.1
-0.42 0 0.1
-0.41 0 0.1
-0.4 0 0.1
-0.39 0 0.1
-0.38 0 0.1
-0.37 0 0.1
-0.36 0 0.1
-0.35 0 0.1
-0.34 0 0.1
-0.33 0 0.1
-0.32 0 0.1
-0.31 0 0.1
-0.3 0 0.1
-0.29 0 0.1
-0.28 0 0.1
-0.27 0 0.1
-0.26 0 0.1
-0.25 0 0.1
-0.24 0 0.1
-0.23 0 0.1
-0.22 0 0.1
-0.21 0 0.1
-0.2 0 0.1
-0.19 0 0.1
-0.18 0 0.1
-0.17 0 0.1
-0.16 0 0.1
-0.15 0 0.1
-0.14 0 0.1
-0.13 0 0.1
-0.12 0 0.1
-0.11 0 0.1
-0.1 0 0.1
-0.09 0 0.1
-0.08 0 0.1
-0.07 0 0.1
-0.06 0 0.1
-0.05 0 0.1
-0.04 0 0.1
-0.03 0 0.1
-0.02 0 0.1
-0.01 0 0.1
0.00921362 0.00379763 0.1
0.0184561 0.00752451 0.1
0.0277268 0.0111804 0.1
0.0370253 0.0147652 0.1
0.0463511 0.0182786 0.1
0.0557034 0.0217203 0.1
0.0650819 0.0250903 0.1
0.074486 0.0283883 0.1
0.083915 0.0316141 0.1
0.0933685 0.0347675 0.1
0.102846 0.0378484 0.1
0.112347 0.0408565 0.1
0.12187 0.0437917 0.1
0.131416 0.0466538 0.1
0.140983 0.0494427 0.1
0.150572 0.0521581 0.1
0.160181 0.0547999 0.1
0.16981 0.0573681 0.1
0.179458 0.0598623 0.1
0.189125 0.0622825 0.1
0.198811 0.0646285 0.1
0.208514 0.0669001 0.1
0.218234 0.0690974 0.1
0.227971 0.07122 0.1
0.237724 0.073268 0.1
0.247493 0.0752411 0.1
0.257276 0.0771393 0.1
0.267073 0.0789625 0.1
0.276884 0.0807105 0.1
0.286708 0.0823832 0.1
0.296545 0.0839806 0.1
0.306394 0.0855025 0.1
0.316254 0.0869488 0.1
0.326125 0.0883196 0.1
0.336006 0.0896146 0.1
0.345896 0.0908339 0.1
0.355796 0.0919773 0.1
0.365704 0.0930447 0.1
0.375621 0.0940362 0.1
0.385544 0.0949517 0.1
0.395474 0.095791 0.1
0.40541 0.0965542 0.1
0.415352 0.0972412 0.1
0.425299 0.097852 0.1
0.43525 0.0983865 0.1
0.445205 0.0988447 0.1
0.455164 0.0992266 0.1
0.465125 0.0995321 0.1
0.475088 0.0997613 0.1
0.485052 0.0999141 0.1
0.495017 0.0999904 0.1
0.504983 0.0999904 0.1
0.514948 0.0999141 0.1
0.524912 0.0997613 0.1
0.534875 0.0995321 0.1
0.544836 0.0992266 0.1
0.554795 0.0988447 0.1
0.56475 0.0983865 0.1
0.574701 0.097852 0.1
0.584648 0.0972412 0.1
0.59459 0.0965542 0.1
0.604526 0.095791 0.1
0.614456 0.0949517 0.1
0.624379 0.0940362 0.1
0.634296 0.0930447 0.1
0.644204 0.0919773 0.1
0.654104 0.0908339 0.1
0.663994 0.0896146 0.1
0.673875 0.0883196 0.1
0.683746 0.0869488 0.1
0.693606 0.0855025 0.1
0.703455 0.0839806 0.1
0.713292 0.0823832 0.1
0.723116 0.0807105 0.1
0.732927 0.0789625 0.1
0.742724 0.0771393 0.1
0.752508 0.0752411 0.1
0.762276 0.073268 0.1
0.772029 0.07122 0.1
0.781766 0.0690974 0.1
0.791486 0.0669001 0.1
0.801189 0.0646285 0.1
0.810875 0.0622825 0.1
0.820542 0.0598623 0.1
0.83019 0.0573681 0.1
0.839819 0.0547999 0.1
0.849428 0.0521581 0.1
0.859017 0.0494427 0.1
0.868584 0.0466538 0.1
0.87813 0.0437917 0.1
0.887653 0.0408565 0.1
0.897154 0.0378484 0.1
0.906631 0.0347675 0.1
0.916085 0.0316141 0.1
0.925514 0.0283883 0.1
0.934918 0.0250903 0.1
0.944297 0.0217203 0.1
0.953649 0.0182786 0.1
0.962975 0.0147652 0.1
0.972273 0.0111804 0.1
0.981544 0.00752451 0.1
0.990786 0.00379763 0.1
1.01 0 0.1
1.02 0 0.1
1.03 0 0.1
1.04 0 0.1
1.05 0 0.1
1.06 0 0.1
1.07 0 0.1
1.08 0 0.1
1.09 0 0.1
1.1 0 0.1
1.11 0 0.1
1.12 0 0.1
1.13 0 0.1
1.14 0 0.1
1.15 0 0.1
1.16 0 0.1
1.17 0 0.1
1.18 0 0.1
1.19 0 0.1
1.2 0 0.1
1.21 0 0.1
1.22 0 0.1
1.23 0 0.1
1.24 0 0.1
1.25 0 0.1
1.26 0 0.1
1.27 0 0.1
1.28 0 0.1
1.29 0 0.1
1.3 0 0.1
1.31 0 0.1
1.32 0 0.1
1.33 0 0.1
1.34 0 0.1
1.35 0 0.1
1.36 0 0.1
1.37 0 0.1
1.38 0 0.1
1.39 0 0.1
1.4 0 0.1
1.41 0 0.1
1.42 0 0.1
1.43 0 0.1
1.44 0 0.1
1.45 0 0.1
1.46 0 0.1
1.47 0 0.1
1.48 0 0.1
1.49 0 0.1
1.5 0 0.1
1.51 0 0.1
1.52 0 0.1
1.53 0 0.1
1.54 0 0.1
1.55 0 0.1
1.56 0 0.1
1.57 0 0.1
1.58 0 0.1
1.59 0 0.1
1.6 0 0.1
1.61 0 0.1
1.62 0 0.1
1.63 0 0.1
1.64 0 0.1
1.65 0 0.1
1.66 0 0.1
1.67 0 0.1
1.68 0 0.1
1.69 0 0.1
1.7 0 0.1
1.71 0 0.1
1.72 0 0.1
1.73 0 0.1
1.74 0 0.1
1.75 0 0.1
1.76 0 0.1
1.77 0 0.1
1.78 0 0.1
1.79 0 0.1
1.8 0 0.1
1.81 0 0.1
1.82 0 0.1
1.83 0 0.1
1.84 0 0.1
1.85 0 0.1
1.86 0 0.1
1.87 0 0.1
1.88 0 0.1
[...]
CELL_DATA 7425
SCALARS rho float
LOOKUP_TABLE default
0.620158
0.806117
0.829627
0.836351
0.802179
0.829008
0.829103
0.825369
0.82472
0.751128
0.868618
0.811815
0.82522
0.836207
0.806471
0.827661
0.801171
0.824859
0.804321
0.772781
0.839798
0.823564
0.738154
0.836942
0.804785
0.729249
0.839588
0.852444
0.801418
0.810107
0.82773
0.724649
0.804484
0.679568
0.613955
0.836912
0.80429
0.825359
0.812897
0.836393
0.738542
0.728006
0.799266
0.681896
0.629223
0.755462
0.809555
0.825175
0.701747
0.719185
0.74838
0.806249
0.814065
0.801571
0.70292
0.660791
0.832477
0.801946
0.751053
0.718049
0.736961
0.808957
0.824843
0.801756
0.80009
0.828004
0.616793
0.783758
0.663786
0.81008
0.806521
0.803671
0.887433
0.822663
0.812585
0.824771
0.806148
0.801588
0.824837
0.759957
0.826741
0.808546
0.821804
0.791614
0.842673
0.803611
0.606369
0.838053
0.603022
0.855184
0.683927
0.742761
0.849314
0.803962
0.827828
0.774258
0.838449
0.791264
0.834829
0.805371
0.818865
0.740601
0.804063
0.836654
0.62707
0.812808
0.83333
0.728009
0.825997
0.801814
0.827199
0.787866
0.792496
0.813845
0.799042
0.789803
0.839616
0.803553
0.689094
0.687641
0.806148
0.787392
0.824705
0.793478
0.864988
0.842394
0.809017
0.81302
0.682878
0.606246
0.825523
0.682373
0.608121
0.872311
0.700967
0.802285
0.812853
0.739597
0.61458
0.741744
0.744743
0.812182
0.821284
0.699541
0.805424
0.782755
0.59579
0.800376
0.784583
0.836701
0.825114
0.683395
0.805622
0.746746
0.7007
0.804139
0.812196
0.839029
0.806845
0.69402
0.803882
0.682869
0.803648
0.838443
0.83035
0.803114
0.824762
0.794481
0.807794
0.803335
0.829758
0.8075
0.802808
0.801763
0.801826
0.75497
0.806482
0.774644
0.64102
0.676848
0.802244
0.80311
0.884033
0.839767
0.675611
0.832488
0.801207
0.830382
0.802366
0.824887
0.824481
0.804005
0.808474
0.700535
0.825997
0.829131
0.775505
0.807256
0.864924
0.809188
0.814092
0.822922
0.640003
0.842431
0.605258
0.613622
0.625565
0.663659
0.830702
0.883649
0.808803
0.799957
0.847643
0.82476
0.827155
0.830617
0.826133
0.658802
0.6673
0.825117
0.607228
0.638624
0.695804
0.822536
0.825225
0.824772
0.841298
0.824802
0.868574
0.701555
0.837458
0.739338
0.806779
0.804827
0.803069
0.731232
0.737812
0.642127
0.688869
0.869324
0.880267
0.817418
0.809011
0.809317
0.81399
0.737094
0.831362
0.803069
0.834752
0.797017
0.821548
0.7211
0.824683
0.833182
0.755731
0.581052
0.801958
0.738434
0.845497
0.825417
0.72612
0.826383
0.825884
0.855736
0.820961
0.807255
0.803976
0.834851
0.866688
0.808523
0.641311
0.855523
0.815594
0.806776
0.8364
0.844171
0.824556
0.830887
0.796235
0.826054
0.871078
0.855783
0.829894
0.844689
0.803972
0.827669
0.803656
0.761941
0.727635
0.613977
0.687765
0.812708
0.824645
0.826747
0.858744
0.783893
0.666674
0.836102
0.615971
0.784484
0.803501
0.66748
0.653349
0.659796
0.826148
0.82484
0.824757
0.824076
0.835775
0.777558
0.812913
0.80366
0.824803
0.848254
0.871852
0.84165
0.804311
0.681623
0.805457
0.841125
0.709936
0.801279
0.803015
0.870103
0.827624
0.620381
0.824874
0.756311
0.856291
0.749591
0.821624
0.910553
0.802671
0.79864
0.680763
0.657991
0.70496
0.793266
0.835533
0.825938
0.825096
0.887556
0.861546
0.802284
0.807847
0.827508
0.756355
0.804645
0.88401
0.802097
0.808026
0.803386
0.803277
0.824519
0.826539
0.827019
0.668365
0.83253
0.689314
0.8109
0.671113
0.812803
0.803103
0.842412
0.750664
0.817948
0.819327
0.827496
0.801751
0.803182
0.813018
0.727645
0.825981
0.824757
0.824482
0.801549
0.741315
0.591472
0.807686
0.822733
0.803878
0.824762
0.797896
0.652599
0.848516
0.824824
0.804728
0.795399
0.824855
0.806989
0.805372
0.826941
0.808802
0.832081
0.775279
0.820823
0.809166
0.5952
0.806111
0.6608
0.845151
0.658761
0.825609
0.882631
0.655005
0.820304
0.762299
0.805582
0.877918
0.615931
0.832551
0.831909
0.804337
0.834917
0.813345
0.832934
0.839224
0.833987
0.754853
0.836472
0.763448
0.812741
0.796586
0.803224
0.770899
0.806891
0.802636
0.824791
0.769485
0.806782
0.633281
0.641661
0.719606
0.824402
0.851225
0.870474
0.838058
0.801216
0.824509
0.807108
0.827844
0.699291
0.803291
0.751867
0.831331
0.825535
0.808843
0.703522
0.743235
0.590379
0.630773
0.803758
0.635782
0.803416
0.768096
0.776471
0.725907
0.774605
0.780159
0.820981
0.825952
0.82962
0.823207
0.735207
0.665713
0.846537
0.817684
0.787057
0.813244
0.804229
0.844525
0.742343
0.861611
0.766601
0.749392
0.778025
0.822455
0.598155
0.801364
0.849092
0.815861
0.825156
0.821161
0.801956
0.793054
0.842615
0.8038
0.85033
0.728073
0.701363
0.802069
0.804767
0.831637
0.729339
0.85487
0.803419
0.826707
0.801166
0.783475
0.811546
0.622044
0.696288
0.65425
0.824233
0.812192
0.835298
0.76106
0.812002
0.825856
0.830286
0.801625
0.75134
0.808147
0.817709
0.803852
0.731591
0.825026
0.828772
0.842211
0.822513
0.834572
0.867442
0.862883
0.760712
0.630605
0.844526
0.80818
0.849588
0.825439
0.825292
0.824995
0.825167
0.689536
0.80868
0.819329
0.824709
0.80114
0.81881
0.807663
0.864664
0.801288
0.824629
0.825779
0.877027
0.624625
0.824926
0.845907
0.887381
0.583629
0.82705
0.832468
0.798189
0.816395
0.80448
0.872944
0.820972
0.839867
0.816178
0.644731
0.803407
0.805177
0.721378
0.85881
0.761469
0.803929
0.825219
0.824378
0.863769
0.79741
0.840922
0.842859
0.79655
0.827497
0.845585
0.802442
0.813677
0.810097
0.806472
0.825048
0.803318
0.852096
0.772047
0.811376
0.804304
0.823643
0.741173
0.824741
0.828638
0.76428
0.82502
0.82547
0.830674
0.834292
0.803275
0.80258
0.856303
0.769748
0.828652
0.851224
0.805672
0.608452
0.824634
0.83715
0.858062
0.823499
0.803603
0.810671
0.860749
0.782099
0.803558
0.80358
0.824772
0.748503
0.804927
0.832242
0.811595
0.797278
0.805066
0.850521
0.807845
0.851376
0.802585
0.833628
0.824171
0.805198
0.848137
0.8246
0.707728
0.828991
0.808383
0.824243
0.90909
0.80258
0.825496
0.802093
0.802358
0.826906
0.802455
0.804386
0.785435
0.749285
0.817673
0.824753
0.770168
0.802853
0.832458
0.814449
0.831912
0.808416
0.834953
0.879827
0.839236
0.649295
0.723437
0.848297
0.827772
0.851073
0.825681
0.856374
0.810493
0.820699
0.801793
0.845936
0.866806
0.859284
0.749098
0.825358
0.831561
0.744842
0.820418
0.778815
0.801959
0.749539
0.826795
0.839439
0.825002
0.866173
0.825347
0.824877
0.821412
0.825617
0.843083
0.813662
0.801097
0.811637
0.754773
0.823124
0.776146
0.840602
0.816011
0.659663
0.781885
0.814105
0.80159
0.829868
0.805381
0.825652
0.827783
0.806773
0.82939
0.805174
0.809152
0.647309
0.854042
0.834314
0.83577
0.818089
0.804058
0.71771
0.810127
0.910755
0.824751
0.804097
0.824314
0.786298
0.810636
0.82449
0.831092
0.816144
0.824835
0.826949
0.66959
0.78949
0.778152
0.824331
0.807503
0.804068
0.646823
0.808978
0.805369
0.728161
0.839743
0.827683
0.804355
0.810392
0.80146
0.827606
0.822599
0.824875
0.824761
0.724221
0.839495
0.80219
0.810766
0.845375
0.820678
0.826912
0.80255
0.756069
0.832814
0.798774
0.83115
0.79257
0.809108
0.830816
0.742344
0.827045
0.696856
0.877132
0.721439
0.852153
0.81194
0.879661
0.796443
0.803216
0.830579
0.838795
0.840327
0.834174
0.829868
0.825428
0.811598
0.805908
0.810169
0.748137
0.829394
0.801221
0.719762
0.838383
0.67431
0.802916
0.864493
0.806838
0.727667
0.800286
0.82536
0.696788
0.787481
0.829402
0.839262
0.818225
0.675033
0.749162
0.814073
0.804456
0.824777
0.803123
0.750328
0.825185
0.826546
0.824332
0.785486
0.803969
0.80565
0.806977
0.592235
0.824597
0.836051
0.629755
0.826128
0.826845
0.82577
0.828649
0.825536
0.833825
0.8019
0.796937
0.77289
0.825001
0.831643
0.827155
0.838765
0.773232
0.820488
0.748212
0.775547
0.811885
0.830917
0.824825
0.80192
0.862082
0.82477
0.811423
0.821147
0.826716
0.82613
0.844579
0.825634
0.824573
0.813373
0.825168
0.803223
0.830762
0.804848
0.832414
0.824968
0.625425
0.824996
0.84264
0.861834
0.840321
0.632575
0.827374
0.81354
0.604684
0.700912
0.691854
0.841867
0.816691
0.813046
0.824436
0.80359
0.827339
0.8132
0.591203
0.717131
0.820216
0.807871
0.826406
0.804346
0.811818
0.82262
0.829903
0.801561
0.723675
0.860089
0.803559
0.816221
0.824952
0.768939
0.63152
0.841231
0.81591
0.742764
0.803104
0.809885
0.651628
0.829891
0.825656
0.836665
0.828997
0.82946
0.805812
0.743364
0.664599
0.594298
0.83456
0.811989
0.7849
0.824721
0.791566
0.828268
0.877917
0.773222
0.83137
0.824683
0.834903
0.887939
0.82554
0.823374
0.804766
0.815285
0.716629
0.837088
0.80197
0.813743
0.803307
0.787703
0.860583
0.83164
0.846842
0.83129
0.75898
0.76238
0.806479
0.828171
0.803591
0.806387
0.804242
0.787958
0.825681
0.770481
0.82438
0.681401
0.825188
0.804442
0.735406
0.830532
0.827333
0.752472
0.803057
0.769422
0.885613
0.801604
0.824739
0.774854
0.803074
0.825471
0.804907
0.621208
0.82337
0.807744
0.812464
0.825651
0.834447
0.766777
0.808617
0.845183
0.830239
0.816215
0.843875
0.667847
0.716144
0.824778
0.756421
0.831889
0.781713
0.824724
0.803451
0.819135
0.763836
0.796188
0.777048
0.821131
0.803581
0.652897
0.781891
0.800396
0.85283
0.825539
0.837483
0.60335
0.826816
0.788228
0.864794
0.801938
0.820258
0.80324
0.796051
0.801234
0.834416
0.842363
0.824165
0.827478
0.70229
0.785661
0.825412
0.806505
0.821779
0.80488
0.694904
0.802369
0.805559
0.813835
0.829914
0.856934
0.840317
0.824965
0.802097
0.806797
0.804183
0.784225
0.6386
0.811299
0.750506
0.683854
0.832025
0.80117
0.779175
0.802479
0.765718
0.788634
0.823376
0.824925
0.813033
0.826627
0.826422
0.828128
0.824925
0.817335
0.726462
0.715949
0.661711
0.838031
0.874748
0.82311
0.843635
0.854516
0.868852
0.753541
0.826155
0.868424
0.820082
0.824793
0.825092
0.749413
0.823294
0.810039
0.809403
0.592296
0.824752
0.768467
0.824741
0.815413
0.804342
0.699384
0.82476
0.637154
0.827364
0.804691
0.829571
0.861492
0.80429
0.797442
0.830787
0.822916
0.807657
0.769268
0.615888
0.830659
0.804389
0.832504
0.834883
0.813239
0.808295
0.841814
0.738797
0.633935
0.890327
0.810756
0.826525
0.80539
0.705406
0.801135
0.802602
0.826053
0.756751
0.666917
0.887319
0.730811
0.844499
0.82347
0.841221
0.849956
0.803688
0.80578
0.824922
0.858481
0.75093
0.875388
0.825302
0.596558
0.805534
0.750153
0.859406
0.774058
0.805242
0.804876
0.801957
0.802894
0.820359
0.824793
0.858884
0.809059
0.803352
0.802013
0.802391
0.824153
0.827448
0.803187
0.824399
0.856025
0.803506
0.793775
0.802965
0.842808
0.748702
0.825054
0.825076
0.687403
0.729856
0.807278
0.832256
0.807031
0.605423
0.860271
0.824416
0.836297
0.806422
0.803982
0.802493
0.797119
0.614118
0.805917
0.82684
0.837886
0.830488
0.824769
0.80942
0.760239
0.803552
0.78038
0.79088
0.801851
0.793456
0.752955
0.803151
0.814745
0.821824
0.839405
0.852632
0.600808
0.849368
0.824767
0.822291
0.804334
0.824168
0.823016
0.898268
0.808892
0.871499
0.807218
0.77354
0.867296
0.803409
0.80125
0.833202
0.680641
0.665959
0.804187
0.804865
0.667209
0.674444
0.80089
0.833199
0.824774
0.832198
0.74575
0.825678
0.824511
0.835269
0.826602
0.81337
0.824788
0.766394
0.80685
0.826398
0.823267
0.693982
0.601919
0.824826
0.670026
0.735614
0.593293
0.848794
0.802568
0.625782
0.627777
0.834741
0.910988
0.828434
0.672846
0.825332
0.796679
0.804089
0.789345
0.824095
0.820275
0.791579
0.830613
0.811924
0.621024
0.828174
0.778664
0.826506
0.69377
0.831836
0.800123
0.825195
0.8028
0.682701
0.849727
0.815187
0.80981
0.622492
0.827394
0.802673
0.856037
0.708166
0.827605
0.660092
0.744027
0.803683
0.806319
0.754337
0.735645
0.711404
0.629988
0.673421
0.802859
0.627225
0.832209
0.651697
0.768653
0.702968
0.67462
0.625654
0.757816
0.803559
0.709389
0.831099
0.802645
0.805055
0.772468
0.893625
0.801682
0.833763
0.804429
0.82467
0.721665
0.810488
0.749864
0.83162
0.89023
0.841161
0.761309
0.832289
0.781845
0.88411
0.805183
0.769883
0.857377
0.787799
0.800918
0.808603
0.769597
0.763487
0.704179
0.806052
0.803552
0.827974
0.84165
0.635415
0.811245
0.606759
0.687205
0.670745
0.821802
0.830835
0.820388
0.804968
0.640026
0.877058
0.803219
0.8034
0.869226
0.824349
0.778244
0.824085
0.803029
0.828272
0.803529
0.731802
0.805649
0.696815
0.801364
0.814184
0.802585
0.659692
0.820503
0.818715
0.73016
0.820878
0.598746
0.609068
0.805321
0.713075
0.739457
0.602963
0.74317
0.82504
0.693806
0.778282
0.713285
0.820704
0.689501
0.773299
0.808497
0.821712
0.683999
0.802852
0.898794
0.799209
0.827385
0.642071
0.711947
0.811979
0.824771
0.825221
0.857634
0.824278
0.805784
0.804965
0.804122
0.731324
0.715391
0.643245
0.783985
0.637405
0.722024
0.821265
0.825431
0.809173
0.801966
0.665267
0.820355
0.804712
0.604362
0.615733
0.758768
0.80451
0.816324
0.591728
0.800643
0.607431
0.745256
0.637011
0.815952
0.804543
0.62831
0.635231
0.873141
0.812332
0.77649
0.737797
0.66825
0.67536
0.699652
0.826536
0.77088
0.767128
0.649995
0.767049
0.820493
0.826225
0.82432
0.826356
0.869559
0.768784
0.829024
0.804977
0.857503
0.824775
0.803459
0.824705
0.719752
0.823469
0.822655
0.825752
0.821965
0.826366
0.803949
0.828143
0.821328
0.820807
0.827564
0.80123
0.826977
0.829111
0.686793
0.828815
0.873728
0.828434
0.795318
0.66739
0.864609
0.828997
0.834179
0.802104
0.823127
0.759203
0.859074
0.659167
0.749728
0.811311
0.826495
0.804886
0.804134
0.840481
0.80825
0.80743
0.826198
0.790439
0.846307
0.849149
0.824539
0.684017
0.677359
0.826563
0.827058
0.80024
0.856391
0.853766
0.814205
0.824197
0.788823
0.825162
0.828107
0.825228
0.828976
0.816303
0.826619
0.857664
0.826734
0.825163
0.827988
0.828089
0.7885
0.824735
0.806971
0.80748
0.807313
0.828812
0.823334
0.798576
0.755359
0.82418
0.807511
0.820169
0.80762
0.863242
0.805779
0.825028
0.824449
0.807633
0.655907
0.804892
0.824519
0.818207
0.81177
0.824584
0.824788
0.824714
0.811566
0.869476
0.621289
0.824632
0.848785
0.824376
0.804101
0.810273
0.826002
0.847307
0.803045
0.804336
0.820605
0.669549
0.824667
0.810855
0.81053
0.824147
0.824608
0.824696
0.824901
0.618082
0.814019
0.738621
0.889895
0.830517
0.733173
0.69962
0.82627
0.806253
0.821462
0.66723
0.803193
0.824887
0.668423
0.802455
0.805412
0.818826
0.814584
0.86293
0.811226
0.633826
0.802917
0.777088
0.812823
0.893032
0.812539
0.817038
0.821755
0.838976
0.824922
0.832037
0.844052
0.658296
0.812474
0.675977
0.825109
0.825038
0.70754
0.824955
0.815196
0.709749
0.824687
0.718509
0.866937
0.78677
0.825492
0.824717
0.824881
0.693939
0.825069
0.654013
0.802196
0.795237
0.83181
0.826134
0.727767
0.768735
0.838696
0.8243
0.828774
0.831598
0.824941
0.834556
0.80183
0.589115
0.75669
0.768572
0.730613
0.845457
0.825782
0.836494
0.789316
0.803557
0.824767
0.824764
0.824755
0.780164
0.597979
0.803895
0.627782
0.817237
0.827652
0.802231
0.804673
0.816431
0.807628
0.793675
0.738991
0.824909
0.864652
0.822702
0.801578
0.737459
0.812653
0.791793
0.840449
0.642073
0.797878
0.816882
0.801322
0.697882
0.824498
0.820776
0.860781
0.599746
0.808735
0.803918
0.824288
0.6623
0.824747
0.803972
0.804151
0.803783
0.824812
0.824866
0.826665
0.824764
0.71331
0.805626
0.803834
0.824762
0.899675
0.82478
0.78521
0.843695
0.80033
0.803665
0.628638
0.824689
0.804023
0.828987
0.804139
0.871715
0.823957
0.856652
0.802976
0.830456
0.782603
0.598731
0.767791
0.804924
0.814945
0.815353
0.825069
0.594322
0.866977
0.861556
0.781783
0.761769
0.739987
0.815524
0.851279
0.824709
0.816092
0.824741
0.805286
0.727071
0.804409
0.80146
0.765926
0.833507
0.832532
0.866991
0.826322
0.824765
0.66248
0.81023
0.82473
0.802847
0.784383
0.819574
0.803588
0.824384
0.835912
0.800528
0.805779
0.802973
0.824712
0.846632
0.805108
0.801356
0.804461
0.768079
0.829865
0.603181
0.873207
0.80467
0.586754
0.805656
0.812223
0.822535
0.675325
0.635101
0.803833
0.806582
0.803279
0.865967
0.782586
0.824589
0.803811
0.869999
0.805772
0.805461
0.83371
0.825907
0.823328
0.830939
0.830144
0.87233
0.743079
0.85797
0.827568
0.674241
0.804733
0.804139
0.804644
0.830916
0.832829
0.806104
0.80343
0.802415
0.832245
0.805287
0.804618
0.802126
0.833716
0.804921
0.803354
0.8073
0.836585
0.803437
0.803804
0.827797
0.801748
0.826268
0.672111
0.835462
0.856046
0.806879
0.829633
0.804223
0.837532
0.845318
0.804133
0.83117
0.802375
0.809915
0.792167
0.803443
0.80527
0.807556
0.807999
0.807234
0.828663
0.825797
0.812769
0.839883
0.804969
0.803166
0.802284
0.791064
0.841767
0.80417
0.82939
0.826127
0.809063
0.80752
0.803451
0.846312
0.868815
0.802036
0.696579
0.802823
0.849525
0.82717
0.808203
0.805466
0.821851
0.851382
0.676663
0.832125
0.804963
0.854285
0.82886
0.813692
0.815384
0.81111
0.804903
0.814631
0.810373
0.619443
0.85484
0.796973
0.825398
0.860906
0.829381
0.774163
0.810733
0.825585
0.825848
0.804729
0.681978
0.812399
0.868824
0.811542
0.802472
0.787773
0.875968
0.802021
0.881579
0.81518
0.827607
0.83049
0.805299
0.806015
0.824275
0.826617
0.80646
0.824757
0.819757
0.885709
0.822833
0.810695
0.802897
0.836464
0.811971
0.842141
0.811155
0.808206
0.815358
0.827162
0.837517
0.824914
0.831648
0.834751
0.817329
0.727951
0.700439
0.824667
0.828115
0.806923
0.824574
0.642247
0.860457
0.801858
0.807422
0.824883
0.824813
0.805052
0.824004
0.802769
0.803115
0.8107
0.823495
0.771686
0.794197
0.832415
0.846169
0.837006
0.802695
0.815278
0.804102
0.814529
0.807869
0.801936
0.801998
0.802726
0.819015
0.800002
0.805629
0.843513
0.834587
0.746618
0.668871
0.809511
0.728906
0.802164
0.660387
0.805608
0.808953
0.80576
0.828455
0.837012
0.825216
0.824601
0.811729
0.805363
0.885953
0.82694
0.80794
0.77768
0.662616
0.811613
0.809638
0.775446
0.825535
0.82519
0.794124
0.802612
0.805113
0.689404
0.83759
0.804311
0.793863
0.78393
0.858676
0.811336
0.805729
0.805645
0.813581
0.812636
0.628947
0.803538
0.847142
0.825223
0.80093
0.631868
0.817036
0.8253
0.824785
0.841933
0.825199
0.805342
0.831581
0.8086
0.607678
0.810289
0.755179
0.800623
0.825037
0.729803
0.825921
0.849477
0.833532
0.684378
0.894633
0.789232
0.789762
0.799213
0.782518
0.810999
0.853471
0.810898
0.804157
0.824986
0.820124
0.786683
0.789441
0.825049
0.811394
0.836726
0.830612
0.837626
0.81187
0.803024
0.824768
0.86279
0.825767
0.821105
0.824872
0.633167
0.797946
0.832751
0.836336
0.871391
0.82443
0.821398
0.631732
0.821059
0.802839
0.824033
0.818116
0.854116
0.824704
0.812516
0.885722
0.772458
0.814449
0.824741
0.820179
0.806717
0.825403
0.676177
0.802313
0.856272
0.835417
0.813533
0.823923
0.824877
0.810925
0.716694
0.822996
0.802918
0.846294
0.82858
0.814908
0.838912
0.803703
0.822195
0.827996
0.812044
0.829365
0.762145
0.857982
0.829086
0.816972
0.824723
0.824417
0.826154
0.827417
0.824489
0.821576
0.848285
0.828764
0.802697
0.827303
0.835269
0.81917
0.816492
0.802763
0.803197
0.824754
0.829163
0.831425
0.824558
0.826803
0.802532
0.820879
0.824613
0.824454
0.803395
0.825729
0.824799
0.805313
0.824655
0.843458
0.802
0.820473
0.82476
0.605529
0.825339
0.828392
0.825314
0.825538
0.831525
0.836932
0.826301
0.829005
0.717788
0.82477
0.803182
0.826431
0.82201
0.836987
0.831287
0.823284
0.838081
0.834195
0.822353
0.820625
0.822783
0.815011
0.824794
0.826419
0.821611
0.840509
0.824215
0.826484
0.803416
0.824735
0.824681
0.638889
0.667166
0.815881
0.831191
0.803999
0.831658
0.826656
0.843997
0.723635
0.82509
0.743363
0.826192
0.821389
0.824779
0.837158
0.825028
0.808178
0.824707
0.837495
0.842854
0.824345
0.733798
0.821322
0.826646
0.802078
0.803545
0.826202
0.861835
0.824333
0.824889
0.856146
0.83633
0.849444
0.646832
0.83769
0.825195
0.821858
0.827835
0.854126
0.828127
0.732416
0.801945
0.833666
0.802569
0.802013
0.807328
0.759867
0.824898
0.825375
0.744839
0.825334
0.829325
0.824763
0.825063
0.801705
0.828547
0.824762
0.826684
0.81006
0.81825
0.825437
0.680271
0.829198
0.825152
0.824772
0.672322
0.715222
0.626249
0.82533
0.651703
0.85746
0.740705
0.844912
0.824079
0.746641
0.828843
0.826367
0.754928
0.80959
0.828607
0.796241
0.826922
0.826615
0.826546
0.82475
0.819164
0.804504
0.75
0.839427
0.829844
0.827048
0.801393
0.817414
0.805185
0.826729
0.824812
0.857895
0.828006
0.644448
0.823837
0.828948
0.828862
0.782168
0.817702
0.807978
0.82046
0.848866
0.62753
0.812134
0.801904
0.826183
0.827951
0.827973
0.824082
0.828801
0.82444
0.825254
0.803854
0.824904
0.853169
0.824923
0.794142
0.822784
0.648227
0.717743
0.824765
0.827469
0.804379
0.831921
0.736711
0.803546
0.803489
0.830149
0.662974
0.827986
0.802007
0.82628
0.868827
0.788983
0.831616
0.828297
0.825973
0.825265
0.775158
0.803337
0.824922
0.905445
0.829182
0.827059
0.834096
0.821213
0.872545
0.71701
0.672771
0.855264
0.803321
0.666271
0.853182
0.789475