# vtk DataFile Version 1.0
unstructured grid
ascii
DATASET UNSTRUCTURED_GRID
points 7812 float
-1 0 0
-1 1 0
2 0 0
2 1 0
0 0 0
1 0 0
-1 1 0.1
-1 0 0.1
0 0 0.1
1 0 0.1
2 0 0.1
2 1 0.1
-0.99 0 0
-0.98 0 0
-0.97 0 0
-0.96 0 0
-0.95 0 0
-0.94 0 0
-0.93 0 0
-0.92 0 0
-0.91 0 0
-0.9 0 0
-0.89 0 0
-0.88 0 0
-0.87 0 0
-0.86 0 0
-0.85 0 0
-0.84 0 0
-0.83 0 0
-0.82 0 0
-0.81 0 0
-0.8 0 0
-0.79 0 0
-0.78 0 0
-0.77 0 0
-0.76 0 0
-0.75 0 0
-0.74 0 0
-0.73 0 0
-0.72 0 0
-0.71 0 0
-0.7 0 0
-0.69 0 0
-0.68 0 0
-0.67 0 0
-0.66 0 0
-0.65 0 0
-0.64 0 0
-0.63 0 0
-0.62 0 0
-0.61 0 0
-0.6 0 0
-0.59 0 0
-0.58 0 0
-0.57 0 0
-0.56 0 0
-0.55 0 0
-0.54 0 0
-0.53 0 0
-0.52 0 0
-0.51 0 0
-0.5 0 0
-0.49 0 0
-0.48 0 0
-0.47 0 0
-0.46 0 0
-0.45 0 0
-0.44 0 0
-0.43 0 0
-0.42 0 0
-0.41 0 0
-0.4 0 0
-0.39 0 0
-0.38 0 0
-0.37 0 0
-0.36 0 0
-0.35 0 0
-0.34 0 0
-0.33 0 0
-0.32 0 0
-0.31 0 0
-0.3 0 0
-0.29 0 0
-0.28 0 0
-0.27 0 0
-0.26 0 0
-0.25 0 0
-0.24 0 0
-0.23 0 0
-0.22 0 0
-0.21 0 0
-0.2 0 0
-0.19 0 0
-0.18 0 0
-0.17 0 0
-0.16 0 0
-0.15 0 0
-0.14 0 0
-0.13 0 0
-0.12 0 0
-0.11 0 0
-0.1 0 0
-0.09 0 0
-0.08 0 0
-0.07 0 0
-0.06 0 0
-0.05 0 0
-0.04 0 0
-0.03 0 0
-0.02 0 0
-0.01 0 0
1.01 0 0
1.02 0 0
1.03 0 0
1.04 0 0
1.05 0 0
1.06 0 0
1.07 0 0
1.08 0 0
1.09 0 0
1.1 0 0
1.11 0 0
1.12 0 0
1.13 0 0
1.14 0 0
1.15 0 0
1.16 0 0
1.17 0 0
1.18 0 0
1.19 0 0
1.2 0 0
1.21 0 0
1.22 0 0
1.23 0 0
1.24 0 0
1.25 0 0
1.26 0 0
1.27 0 0
1.28 0 0
1.29 0 0
1.3 0 0
1.31 0 0
1.32 0 0
1.33 0 0
1.34 0 0
1.35 0 0
1.36 0 0
1.37 0 0
1.38 0 0
1.39 0 0
1.4 0 0
1.41 0 0
1.42 0 0
1.43 0 0
1.44 0 0
1.45 0 0
1.46 0 0
1.47 0 0
1.48 0 0
1.49 0 0
1.5 0 0
1.51 0 0
1.52 0 0
1.53 0 0
1.54 0 0
1.55 0 0
1.56 0 0
1.57 0 0
1.58 0 0
1.59 0 0
1.6 0 0
1.61 0 0
1.62 0 0
1.63 0 0
1.64 0 0
1.65 0 0
1.66 0 0
1.67 0 0
1.68 0 0
1.69 0 0
1.7 0 0
1.71 0 0
1.72 0 0
1.73 0 0
1.74 0 0
1.75 0 0
1.76 0 0
1.77 0 0
1.78 0 0
1.79 0 0
1.8 0 0
1.81 0 0
1.82 0 0
1.83 0 0
1.84 0 0
1.85 0 0
1.86 0 0
1.87 0 0
1.88 0 0
1.89 0 0
1.9 0 0
1.91 0 0
1.92 0 0
1.93 0 0
1.94 0 0
1.95 0 0
1.96 0 0
1.97 0 0
1.98 0 0
1.99 0 0
2 0.010289 0
2 0.0215307 0
2 0.0338135 0
2 0.0472336 0
2 0.0618965 0
2 0.0779171 0
2 0.0954213 0
2 0.114546 0
2 0.135442 0
2 0.158274 0
2 0.183219 0
2 0.210474 0
2 0.240253 0
2 0.27279 0
2 0.308339 0
2 0.347181 0
2 0.389619 0
2 0.435987 0
2 0.486649 0
2 0.542002 0
2 0.602481 0
2 0.66856 0
2 0.740758 0
2 0.819642 0
2 0.90583 0
1.9 1 0
1.8 1 0
1.7 1 0
1.6 1 0
1.5 1 0
1.4 1 0
1.3 1 0
1.2 1 0
1.1 1 0
1 1 0
0.9 1 0
0.8 1 0
0.7 1 0
0.6 1 0
0.5 1 0
0.4 1 0
0.3 1 0
0.2 1 0
0.1 1 0
3.69793e-12 1 0
-0.1 1 0
-0.2 1 0
-0.3 1 0
-0.4 1 0
-0.5 1 0
-0.6 1 0
-0.7 1 0
-0.8 1 0
-0.9 1 0
-1 0.90583 0
-1 0.819642 0
-1 0.740758 0
-1 0.66856 0
-1 0.602481 0
-1 0.542002 0
-1 0.486649 0
-1 0.435987 0
-1 0.389619 0
-1 0.347181 0
-1 0.308339 0
-1 0.27279 0
-1 0.240253 0
-1 0.210474 0
-1 0.183219 0
-1 0.158274 0
-1 0.135442 0
-1 0.114546 0
-1 0.0954213 0
-1 0.0779171 0
-1 0.0618965 0
-1 0.0472336 0
-1 0.0338135 0
-1 0.0215307 0
-1 0.010289 0
0.00921362 0.00379763 0
0.0184561 0.00752451 0
0.0277268 0.0111804 0
0.0370253 0.0147652 0
0.0463511 0.0182786 0
0.0557034 0.0217203 0
0.0650819 0.0250903 0
0.074486 0.0283883 0
0.083915 0.0316141 0
0.0933685 0.0347675 0
0.102846 0.0378484 0
0.112347 0.0408565 0
0.12187 0.0437917 0
0.131416 0.0466538 0
0.140983 0.0494427 0
0.150572 0.0521581 0
0.160181 0.0547999 0
0.16981 0.0573681 0
0.179458 0.0598623 0
0.189125 0.0622825 0
0.198811 0.0646285 0
0.208514 0.0669001 0
0.218234 0.0690974 0
0.227971 0.07122 0
0.237724 0.073268 0
0.247493 0.0752411 0
0.257276 0.0771393 0
0.267073 0.0789625 0
0.276884 0.0807105 0
0.286708 0.0823832 0
0.296545 0.0839806 0
0.306394 0.0855025 0
0.316254 0.0869488 0
0.326125 0.0883196 0
0.336006 0.0896146 0
0.345896 0.0908339 0
0.355796 0.0919773 0
0.365704 0.0930447 0
0.375621 0.0940362 0
0.385544 0.0949517 0
0.395474 0.095791 0
0.40541 0.0965542 0
0.415352 0.0972412 0
0.425299 0.097852 0
0.43525 0.0983865 0
0.445205 0.0988447 0
0.455164 0.0992266 0
0.465125 0.0995321 0
0.475088 0.0997613 0
0.485052 0.0999141 0
0.495017 0.0999904 0
0.504983 0.0999904 0
0.514948 0.0999141 0
0.524912 0.0997613 0
0.534875 0.0995321 0
0.544836 0.0992266 0
0.554795 0.0988447 0
0.56475 0.0983865 0
0.574701 0.097852 0
0.584648 0.0972412 0
0.59459 0.0965542 0
0.604526 0.095791 0
0.614456 0.0949517 0
0.624379 0.0940362 0
0.634296 0.0930447 0
0.644204 0.0919773 0
0.654104 0.0908339 0
0.663994 0.0896146 0
0.673875 0.0883196 0
0.683746 0.0869488 0
0.693606 0.0855025 0
0.703455 0.0839806 0
0.713292 0.0823832 0
0.723116 0.0807105 0
0.732927 0.0789625 0
0.742724 0.0771393 0
0.752508 0.0752411 0
0.762276 0.073268 0
0.772029 0.07122 0
0.781766 0.0690974 0
0.791486 0.0669001 0
0.801189 0.0646285 0
0.810875 0.0622825 0
0.820542 0.0598623 0
0.83019 0.0573681 0
0.839819 0.0547999 0
0.849428 0.0521581 0
0.859017 0.0494427 0
0.868584 0.0466538 0
0.87813 0.0437917 0
0.887653 0.0408565 0
0.897154 0.0378484 0
0.906631 0.0347675 0
0.916085 0.0316141 0
0.925514 0.0283883 0
0.934918 0.0250903 0
0.944297 0.0217203 0
0.953649 0.0182786 0
0.962975 0.0147652 0
0.972273 0.0111804 0
0.981544 0.00752451 0
0.990786 0.00379763 0
-1 0.90583 0.1
-1 0.819642 0.1
-1 0.740758 0.1
-1 0.66856 0.1
-1 0.602481 0.1
-1 0.542002 0.1
-1 0.486649 0.1
-1 0.435987 0.1
-1 0.389619 0.1
-1 0.347181 0.1
-1 0.308339 0.1
-1 0.27279 0.1
-1 0.240253 0.1
-1 0.210474 0.1
-1 0.183219 0.1
-1 0.158274 0.1
-1 0.135442 0.1
-1 0.114546 0.1
-1 0.0954213 0.1
-1 0.0779171 0.1
-1 0.0618965 0.1
-1 0.0472336 0.1
-1 0.0338135 0.1
-1 0.0215307 0.1
-1 0.010289 0.1
-0.99 0 0.1
-0.98 0 0.1
-0.97 0 0.1
-0.96 0 0.1
-0.95 0 0.1
-0.94 0 0.1
-0.93 0 0.1
-0.92 0 0.1
-0.91 0 0.1
-0.9 0 0.1
-0.89 0 0.1
-0.88 0 0.1
-0.87 0 0.1
-0.86 0 0.1
-0.85 0 0.1
-0.84 0 0.1
-0.83 0 0.1
-0.82 0 0.1
-0.81 0 0.1
-0.8 0 0.1
-0.79 0 0.1
-0.78 0 0.1
-0.77 0 0.1
-0.76 0 0.1
-0.75 0 0.1
-0.74 0 0.1
-0.73 0 0.1
-0.72 0 0.1
-0.71 0 0.1
-0.7 0 0.1
-0.69 0 0.1
-0.68 0 0.1
-0.67 0 0.1
-0.66 0 0.1
-0.65 0 0.1
-0.64 0 0.1
-0.63 0 0.1
-0.62 0 0.1
-0.61 0 0.1
-0.6 0 0.1
-0.59 0 0.1
-0.58 0 0.1
-0.57 0 0.1
-0.56 0 0.1
-0.55 0 0.1
-0.54 0 0.1
-0.53 0 0.1
-0.52 0 0.1
-0.51 0 0.1
-0.5 0 0.1
-0.49 0 0.1
-0.48 0 0.1
-0.47 0 0.1
-0.46 0 0.1
-0.45 0 0.1
-0.44 0 0.1
-0.43 0 0.1
-0.42 0 0.1
-0.41 0 0.1
-0.4 0 0.1
-0.39 0 0.1
-0.38 0 0.1
-0.37 0 0.1
-0.36 0 0.1
-0.35 0 0.1
-0.34 0 0.1
-0.33 0 0.1
-0.32 0 0.1
-0.31 0 0.1
-0.3 0 0.1
-0.29 0 0.1
-0.28 0 0.1
-0.27 0 0.1
-0.26 0 0.1
-0.25 0 0.1
-0.24 0 0.1
-0.23 0 0.1
-0.22 0 0.1
-0.21 0 0.1
-0.2 0 0.1
-0.19 0 0.1
-0.18 0 0.1
-0.17 0 0.1
-0.16 0 0.1
-0.15 0 0.1
-0.14 0 0.1
-0.13 0 0.1
-0.12 0 0.1
-0.11 0 0.1
-0.1 0 0.1
-0.09 0 0.1
-0.08 0 0.1
-0.07 0 0.1
-0.06 0 0.1
-0.05 0 0.1
-0.04 0 0.1
-0.03 0 0.1
-0.02 0 0.1
-0.01 0 0.1
0.00921362 0.00379763 0.1
0.0184561 0.00752451 0.1
0.0277268 0.0111804 0.1
0.0370253 0.0147652 0.1
0.0463511 0.0182786 0.1
0.0557034 0.0217203 0.1
0.0650819 0.0250903 0.1
0.074486 0.0283883 0.1
0.083915 0.0316141 0.1
0.0933685 0.0347675 0.1
0.102846 0.0378484 0.1
0.112347 0.0408565 0.1
0.12187 0.0437917 0.1
0.131416 0.0466538 0.1
0.140983 0.0494427 0.1
0.150572 0.0521581 0.1
0.160181 0.0547999 0.1
0.16981 0.0573681 0.1
0.179458 0.0598623 0.1
0.189125 0.0622825 0.1
0.198811 0.0646285 0.1
0.208514 0.0669001 0.1
0.218234 0.0690974 0.1
0.227971 0.07122 0.1
0.237724 0.073268 0.1
0.247493 0.0752411 0.1
0.257276 0.0771393 0.1
0.267073 0.0789625 0.1
0.276884 0.0807105 0.1
0.286708 0.0823832 0.1
0.296545 0.0839806 0.1
0.306394 0.0855025 0.1
0.316254 0.0869488 0.1
0.326125 0.0883196 0.1
0.336006 0.0896146 0.1
0.345896 0.0908339 0.1
0.355796 0.0919773 0.1
0.365704 0.0930447 0.1
0.375621 0.0940362 0.1
0.385544 0.0949517 0.1
0.395474 0.095791 0.1
0.40541 0.0965542 0.1
0.415352 0.0972412 0.1
0.425299 0.097852 0.1
0.43525 0.0983865 0.1
0.445205 0.0988447 0.1
0.455164 0.0992266 0.1
0.465125 0.0995321 0.1
0.475088 0.0997613 0.1
0.485052 0.0999141 0.1
0.495017 0.0999904 0.1
0.504983 0.0999904 0.1
0.514948 0.0999141 0.1
0.524912 0.0997613 0.1
0.534875 0.0995321 0.1
0.544836 0.0992266 0.1
0.554795 0.0988447 0.1
0.56475 0.0983865 0.1
0.574701 0.097852 0.1
0.584648 0.0972412 0.1
0.59459 0.0965542 0.1
0.604526 0.095791 0.1
0.614456 0.0949517 0.1
0.624379 0.0940362 0.1
0.634296 0.0930447 0.1
0.644204 0.0919773 0.1
0.654104 0.0908339 0.1
0.663994 0.0896146 0.1
0.673875 0.0883196 0.1
0.683746 0.0869488 0.1
0.693606 0.0855025 0.1
0.703455 0.0839806 0.1
0.713292 0.0823832 0.1
0.723116 0.0807105 0.1
0.732927 0.0789625 0.1
0.742724 0.0771393 0.1
0.752508 0.0752411 0.1
0.762276 0.073268 0.1
0.772029 0.07122 0.1
0.781766 0.0690974 0.1
0.791486 0.0669001 0.1
0.801189 0.0646285 0.1
0.810875 0.0622825 0.1
0.820542 0.0598623 0.1
0.83019 0.0573681 0.1
0.839819 0.0547999 0.1
0.849428 0.0521581 0.1
0.859017 0.0494427 0.1
0.868584 0.0466538 0.1
0.87813 0.0437917 0.1
0.887653 0.0408565 0.1
0.897154 0.0378484 0.1
0.906631 0.0347675 0.1
0.916085 0.0316141 0.1
0.925514 0.0283883 0.1
0.934918 0.0250903 0.1
0.944297 0.0217203 0.1
0.953649 0.0182786 0.1
0.962975 0.0147652 0.1
0.972273 0.0111804 0.1
0.981544 0.00752451 0.1
0.990786 0.00379763 0.1
1.01 0 0.1
1.02 0 0.1
1.03 0 0.1
1.04 0 0.1
1.05 0 0.1
1.06 0 0.1
1.07 0 0.1
1.08 0 0.1
1.09 0 0.1
1.1 0 0.1
1.11 0 0.1
1.12 0 0.1
1.13 0 0.1
1.14 0 0.1
1.15 0 0.1
1.16 0 0.1
1.17 0 0.1
1.18 0 0.1
1.19 0 0.1
1.2 0 0.1
1.21 0 0.1
1.22 0 0.1
1.23 0 0.1
1.24 0 0.1
1.25 0 0.1
1.26 0 0.1
1.27 0 0.1
1.28 0 0.1
1.29 0 0.1
1.3 0 0.1
1.31 0 0.1
1.32 0 0.1
1.33 0 0.1
1.34 0 0.1
1.35 0 0.1
1.36 0 0.1
1.37 0 0.1
1.38 0 0.1
1.39 0 0.1
1.4 0 0.1
1.41 0 0.1
1.42 0 0.1
1.43 0 0.1
1.44 0 0.1
1.45 0 0.1
1.46 0 0.1
1.47 0 0.1
1.48 0 0.1
1.49 0 0.1
1.5 0 0.1
1.51 0 0.1
1.52 0 0.1
1.53 0 0.1
1.54 0 0.1
1.55 0 0.1
1.56 0 0.1
1.57 0 0.1
1.58 0 0.1
1.59 0 0.1
1.6 0 0.1
1.61 0 0.1
1.62 0 0.1
1.63 0 0.1
1.64 0 0.1
1.65 0 0.1
1.66 0 0.1
1.67 0 0.1
1.68 0 0.1
1.69 0 0.1
1.7 0 0.1
1.71 0 0.1
1.72 0 0.1
1.73 0 0.1
1.74 0 0.1
1.75 0 0.1
1.76 0 0.1
1.77 0 0.1
1.78 0 0.1
1.79 0 0.1
1.8 0 0.1
1.81 0 0.1
1.82 0 0.1
1.83 0 0.1
1.84 0 0.1
1.85 0 0.1
1.86 0 0.1
1.87 0 0.1
1.88 0 0.1
[...]
CELL_DATA 7425
SCALARS rho float
LOOKUP_TABLE default
0.58698
0.805023
0.819474
0.827454
0.799349
0.819074
0.820852
0.814035
0.812875
0.738555
0.863456
0.810005
0.813796
0.82731
0.803647
0.817065
0.798686
0.81316
0.803458
0.767203
0.831211
0.822021
0.724701
0.827982
0.803863
0.70283
0.831144
0.848164
0.800149
0.807897
0.819308
0.725557
0.803604
0.651939
0.518915
0.827948
0.803497
0.814012
0.811114
0.827946
0.715823
0.702927
0.789917
0.702477
0.586248
0.748151
0.799234
0.813729
0.660914
0.719332
0.746298
0.805139
0.812333
0.799009
0.709949
0.619244
0.822839
0.800043
0.738425
0.700807
0.709229
0.807643
0.813129
0.799317
0.798758
0.817524
0.584179
0.773213
0.704909
0.807812
0.804123
0.803197
0.883377
0.821093
0.810816
0.812934
0.805035
0.800426
0.813136
0.757717
0.815888
0.807222
0.810186
0.788612
0.835857
0.801029
0.574266
0.829898
0.542239
0.848433
0.7072
0.72966
0.845129
0.803167
0.817313
0.758095
0.835983
0.787985
0.825557
0.802405
0.808009
0.738664
0.803277
0.828178
0.597073
0.811043
0.824305
0.707322
0.814902
0.799096
0.816623
0.784496
0.789735
0.812413
0.789648
0.78628
0.831194
0.803099
0.700327
0.62902
0.805034
0.777199
0.812838
0.790372
0.858895
0.838745
0.807678
0.80421
0.661072
0.503724
0.81438
0.654893
0.514809
0.867559
0.661208
0.799443
0.811079
0.723447
0.581823
0.724635
0.723104
0.809546
0.809538
0.707451
0.803092
0.779568
0.565295
0.788424
0.782531
0.8277
0.816703
0.704156
0.802838
0.744296
0.70536
0.803265
0.810406
0.830345
0.797495
0.651767
0.802483
0.703756
0.801034
0.829677
0.820379
0.802363
0.812958
0.784748
0.806258
0.800579
0.819628
0.804404
0.791092
0.799059
0.799826
0.73997
0.803627
0.758602
0.593813
0.707173
0.799611
0.792632
0.879768
0.831785
0.611053
0.822852
0.798565
0.827239
0.799806
0.813303
0.812499
0.803182
0.806924
0.704745
0.814917
0.819177
0.770044
0.797069
0.860989
0.807746
0.811783
0.81106
0.612726
0.838795
0.572841
0.531465
0.595329
0.600115
0.828076
0.879302
0.807511
0.798637
0.841336
0.812861
0.816596
0.820688
0.81511
0.637901
0.548299
0.813626
0.545272
0.592276
0.703595
0.811608
0.813968
0.812935
0.833074
0.8128
0.864073
0.710166
0.835164
0.712392
0.80515
0.803911
0.801938
0.713802
0.720258
0.619399
0.705836
0.863578
0.875241
0.806148
0.807679
0.798786
0.811474
0.715608
0.82153
0.800116
0.825624
0.794596
0.809746
0.721443
0.812701
0.823662
0.739619
0.528274
0.7998
0.736448
0.843242
0.814249
0.726665
0.815487
0.814746
0.849908
0.809413
0.80379
0.803245
0.825581
0.860718
0.805361
0.61916
0.848838
0.811908
0.805587
0.827473
0.837286
0.812887
0.821358
0.793472
0.814979
0.866472
0.849903
0.827261
0.836678
0.802646
0.817074
0.803185
0.759665
0.701059
0.58072
0.701156
0.802266
0.812784
0.815896
0.854586
0.779613
0.645643
0.827011
0.520494
0.774213
0.800909
0.646302
0.494709
0.638999
0.815104
0.813132
0.81286
0.812625
0.826645
0.774393
0.811459
0.802655
0.812796
0.840654
0.86697
0.833496
0.802703
0.706584
0.795825
0.834235
0.691475
0.798674
0.802029
0.864746
0.817014
0.592907
0.813292
0.740342
0.852181
0.731872
0.810008
0.907639
0.799795
0.795565
0.658845
0.635463
0.711907
0.780493
0.82647
0.814841
0.813592
0.882264
0.85804
0.799464
0.799102
0.826001
0.739094
0.8025
0.879354
0.801371
0.80462
0.800629
0.802557
0.812866
0.81563
0.816284
0.63602
0.829911
0.645241
0.808408
0.639137
0.802545
0.802221
0.840208
0.728516
0.816324
0.808484
0.816894
0.799438
0.802485
0.811215
0.696469
0.824441
0.812954
0.812828
0.800669
0.736793
0.559786
0.806398
0.810918
0.803181
0.812786
0.794663
0.502537
0.845936
0.813214
0.803838
0.785659
0.813159
0.804619
0.802975
0.816149
0.807495
0.822433
0.768538
0.812597
0.807752
0.562507
0.803045
0.64001
0.838712
0.636123
0.814607
0.877867
0.592862
0.818036
0.748865
0.8044
0.873312
0.533419
0.823047
0.822182
0.803486
0.825666
0.811014
0.823383
0.830571
0.824764
0.739555
0.827451
0.761661
0.810154
0.794214
0.793561
0.758508
0.805582
0.80208
0.814384
0.752098
0.804657
0.604292
0.614086
0.688798
0.81271
0.844145
0.864797
0.829816
0.798509
0.812535
0.804837
0.818448
0.680403
0.800927
0.742859
0.824002
0.81471
0.805312
0.712026
0.72713
0.533445
0.60549
0.801229
0.611268
0.792507
0.765326
0.76998
0.727162
0.762378
0.767444
0.809338
0.814838
0.81947
0.811362
0.710309
0.601835
0.838975
0.806847
0.783107
0.809751
0.802528
0.836498
0.717939
0.855239
0.763659
0.72814
0.764421
0.81142
0.544782
0.798757
0.84156
0.813236
0.813687
0.80962
0.799093
0.780207
0.835651
0.8031
0.842919
0.721014
0.707598
0.800292
0.795086
0.821945
0.70859
0.847911
0.800349
0.815965
0.798661
0.779132
0.808183
0.594483
0.67733
0.632311
0.812838
0.803758
0.826286
0.749179
0.81058
0.814706
0.820315
0.798906
0.729165
0.796797
0.814213
0.803191
0.702929
0.813494
0.818831
0.83997
0.810676
0.825265
0.862259
0.857235
0.743818
0.603283
0.837986
0.805751
0.84334
0.814132
0.822856
0.813424
0.813706
0.632818
0.805109
0.809232
0.812716
0.791842
0.810535
0.804696
0.860397
0.798592
0.81263
0.814622
0.871887
0.597503
0.813361
0.842326
0.883293
0.530256
0.816318
0.829883
0.796121
0.814729
0.79489
0.867562
0.812138
0.831286
0.812632
0.619235
0.802379
0.804136
0.690631
0.853103
0.759773
0.801786
0.813883
0.812613
0.859585
0.79533
0.833561
0.834662
0.78421
0.825128
0.842259
0.799674
0.810417
0.806885
0.805303
0.814767
0.802624
0.845175
0.769206
0.809764
0.803145
0.815157
0.723033
0.812791
0.818274
0.752533
0.813489
0.816288
0.827487
0.825048
0.800658
0.800613
0.850462
0.767943
0.825055
0.844157
0.804546
0.505355
0.812798
0.828214
0.852351
0.81256
0.803145
0.808506
0.855009
0.780071
0.802575
0.801181
0.812833
0.726954
0.802675
0.829953
0.807941
0.79495
0.793436
0.843148
0.806594
0.845279
0.802015
0.82418
0.812671
0.804207
0.841812
0.812767
0.67928
0.818701
0.807086
0.812743
0.90613
0.800766
0.815825
0.800446
0.800354
0.816121
0.80046
0.803348
0.783726
0.747317
0.806422
0.812795
0.757949
0.791329
0.822954
0.813002
0.822186
0.806278
0.825706
0.875278
0.830587
0.574479
0.708727
0.840702
0.817209
0.844111
0.814677
0.850061
0.807266
0.812347
0.79929
0.838358
0.860894
0.852748
0.731425
0.813998
0.82211
0.744005
0.817026
0.77589
0.800184
0.732981
0.815982
0.830805
0.823442
0.861723
0.814127
0.813204
0.8101
0.814558
0.835744
0.812184
0.798603
0.810218
0.737451
0.811251
0.774184
0.832787
0.812692
0.638698
0.777603
0.811078
0.799123
0.819753
0.802414
0.814591
0.817221
0.804413
0.819325
0.804154
0.805779
0.597012
0.846996
0.825066
0.826639
0.814848
0.803213
0.70176
0.806414
0.90782
0.813503
0.800966
0.812795
0.782247
0.807185
0.813199
0.821216
0.81462
0.813133
0.816158
0.702318
0.777779
0.764504
0.812566
0.805277
0.800963
0.621214
0.805645
0.802575
0.708091
0.837129
0.817121
0.802152
0.807391
0.799353
0.817174
0.813879
0.813195
0.812778
0.709606
0.831643
0.800264
0.807339
0.842737
0.817548
0.816215
0.800125
0.753631
0.823773
0.787347
0.821365
0.789386
0.805566
0.820882
0.737498
0.817336
0.650202
0.871997
0.704243
0.844959
0.800732
0.875132
0.793646
0.801647
0.8206
0.836159
0.838372
0.825411
0.819756
0.814632
0.801064
0.804166
0.808214
0.725561
0.827199
0.800072
0.719727
0.830483
0.706796
0.799939
0.860284
0.805567
0.701187
0.797823
0.814
0.705154
0.785653
0.819313
0.83181
0.806884
0.57232
0.728464
0.812367
0.801262
0.812827
0.800617
0.73715
0.81393
0.815637
0.812395
0.775304
0.803258
0.80448
0.803505
0.560281
0.812615
0.834068
0.579563
0.815083
0.816024
0.814614
0.818286
0.814337
0.824474
0.799017
0.795105
0.771036
0.822859
0.829629
0.825069
0.834797
0.765285
0.808917
0.724236
0.772347
0.808737
0.821004
0.813194
0.800963
0.858173
0.812832
0.800264
0.809508
0.816018
0.815107
0.836577
0.81441
0.812713
0.811966
0.813732
0.800077
0.820926
0.803754
0.822762
0.813378
0.575297
0.813425
0.834408
0.857959
0.838141
0.49038
0.816731
0.804472
0.496246
0.669184
0.642847
0.834248
0.807922
0.811636
0.812708
0.803201
0.816672
0.81092
0.534337
0.686286
0.818205
0.806613
0.815535
0.803499
0.810217
0.810817
0.82017
0.799468
0.692046
0.855811
0.803147
0.814698
0.813537
0.757716
0.485311
0.832838
0.8135
0.742024
0.802698
0.806138
0.590612
0.827473
0.814703
0.827659
0.818708
0.825906
0.804719
0.719221
0.643449
0.561899
0.825253
0.808446
0.782976
0.812877
0.779726
0.817815
0.873288
0.762307
0.821541
0.813442
0.825775
0.883539
0.814359
0.811746
0.80325
0.81385
0.691578
0.828147
0.799831
0.810093
0.802189
0.784221
0.854121
0.821974
0.840444
0.821455
0.757604
0.755851
0.803244
0.818031
0.803058
0.805232
0.802571
0.775577
0.814602
0.761502
0.821072
0.661957
0.813888
0.802946
0.735798
0.823209
0.817912
0.739921
0.801149
0.757145
0.880513
0.800713
0.812742
0.762612
0.80002
0.814187
0.803939
0.589704
0.820888
0.798606
0.801276
0.814442
0.825552
0.75705
0.805457
0.841532
0.82686
0.814061
0.835784
0.701279
0.700057
0.812828
0.744092
0.82215
0.771311
0.812734
0.802504
0.810345
0.75189
0.794177
0.764254
0.809809
0.803139
0.631083
0.778965
0.799224
0.848907
0.814283
0.82859
0.526181
0.82531
0.78509
0.858698
0.80093
0.81794
0.800218
0.785724
0.798684
0.825652
0.835723
0.821712
0.817044
0.707102
0.773762
0.81529
0.805368
0.809883
0.803897
0.707119
0.792772
0.803425
0.810581
0.827103
0.851176
0.831793
0.813375
0.799366
0.804176
0.80198
0.779594
0.611466
0.800255
0.731168
0.661786
0.822741
0.798785
0.777272
0.799917
0.754095
0.785267
0.811358
0.822114
0.803281
0.81593
0.817291
0.820614
0.813299
0.808419
0.712069
0.699299
0.64079
0.829218
0.869536
0.815316
0.841295
0.847794
0.863707
0.73552
0.816519
0.862979
0.810126
0.812772
0.816133
0.732685
0.812344
0.806581
0.806121
0.516949
0.812869
0.761112
0.813065
0.813764
0.803532
0.705713
0.813106
0.610467
0.824977
0.802224
0.822193
0.855123
0.80342
0.795349
0.820861
0.811491
0.80567
0.762189
0.509452
0.820826
0.80307
0.828844
0.825697
0.802025
0.80701
0.834417
0.720714
0.500005
0.886239
0.800519
0.815607
0.80431
0.710598
0.798565
0.79994
0.814979
0.735919
0.646385
0.883226
0.714053
0.836494
0.811894
0.83283
0.842613
0.792101
0.804732
0.813506
0.852744
0.738242
0.870676
0.813928
0.562619
0.802387
0.748957
0.85287
0.760205
0.804205
0.803943
0.79957
0.801562
0.808789
0.812807
0.855444
0.805915
0.802861
0.801302
0.799944
0.81214
0.816793
0.80261
0.812383
0.849161
0.803093
0.783387
0.802226
0.839496
0.724821
0.813537
0.813738
0.635799
0.713001
0.805525
0.822956
0.803479
0.511365
0.856211
0.813125
0.832906
0.805292
0.803305
0.801314
0.786173
0.587027
0.804276
0.816019
0.835949
0.820491
0.81285
0.798086
0.746822
0.80155
0.76568
0.787503
0.799266
0.790936
0.751059
0.800781
0.811378
0.810279
0.832151
0.848961
0.552998
0.841852
0.812741
0.820826
0.801945
0.822633
0.810974
0.894594
0.80018
0.866974
0.805669
0.759679
0.862091
0.802265
0.800231
0.824094
0.660276
0.645161
0.803385
0.803842
0.705502
0.654182
0.799888
0.823783
0.812932
0.822517
0.732825
0.817127
0.812744
0.826065
0.816877
0.811924
0.812762
0.75451
0.803825
0.815595
0.811229
0.676114
0.56624
0.812799
0.649883
0.721843
0.554891
0.841345
0.800057
0.526566
0.600607
0.827466
0.908052
0.818068
0.652189
0.81407
0.786369
0.801659
0.786322
0.820566
0.810029
0.788251
0.820984
0.800932
0.587465
0.817746
0.766596
0.815848
0.701142
0.822149
0.789571
0.81386
0.799978
0.662751
0.843472
0.806494
0.806537
0.493135
0.816751
0.800322
0.852051
0.711438
0.817006
0.583428
0.718686
0.801345
0.796601
0.732564
0.715407
0.716139
0.506566
0.588657
0.799914
0.517106
0.822528
0.519657
0.75712
0.671035
0.598556
0.540219
0.745356
0.803075
0.715388
0.821223
0.800893
0.802891
0.761123
0.889656
0.798975
0.824413
0.803415
0.812687
0.705864
0.807498
0.736615
0.821838
0.886014
0.833519
0.747629
0.822719
0.77042
0.879877
0.804184
0.758595
0.850639
0.776791
0.799915
0.805212
0.758161
0.744469
0.664759
0.804971
0.803016
0.817833
0.833432
0.611348
0.807833
0.537789
0.668476
0.615908
0.818429
0.820969
0.808908
0.803964
0.615539
0.872431
0.80267
0.80294
0.86348
0.812322
0.771964
0.812059
0.802357
0.817823
0.80314
0.71695
0.803313
0.65499
0.798938
0.804025
0.801524
0.639042
0.811466
0.810248
0.725608
0.817718
0.548866
0.576502
0.804132
0.696378
0.72586
0.571908
0.723476
0.813529
0.707865
0.772925
0.716791
0.81275
0.670079
0.762037
0.80641
0.810521
0.654313
0.80193
0.895135
0.796672
0.816714
0.584818
0.693693
0.800858
0.812843
0.81392
0.851618
0.812548
0.804236
0.803713
0.803328
0.713684
0.71762
0.615458
0.771388
0.532318
0.724031
0.80983
0.814322
0.806054
0.799193
0.534653
0.808977
0.803746
0.553706
0.542979
0.746518
0.803561
0.806105
0.5491
0.798169
0.569376
0.720262
0.607603
0.813481
0.802199
0.596858
0.608129
0.867862
0.809993
0.765339
0.717717
0.621352
0.655204
0.710038
0.815931
0.759706
0.765506
0.623859
0.753785
0.809223
0.81528
0.812352
0.815386
0.865467
0.754595
0.818854
0.803315
0.851238
0.812754
0.802764
0.812981
0.722707
0.812868
0.81191
0.815102
0.811069
0.815811
0.803263
0.817847
0.810302
0.809652
0.817187
0.8001
0.816513
0.818873
0.66735
0.818529
0.86838
0.818088
0.792901
0.645781
0.858539
0.818709
0.824817
0.799473
0.811107
0.757507
0.8525
0.558591
0.726451
0.809843
0.81558
0.803861
0.803351
0.831985
0.804947
0.805154
0.815175
0.780652
0.838496
0.841894
0.815139
0.664192
0.611721
0.815679
0.816538
0.788221
0.849581
0.847212
0.810763
0.813546
0.777684
0.813998
0.817752
0.814022
0.818696
0.81301
0.815737
0.850996
0.815883
0.814418
0.817471
0.817685
0.784855
0.814035
0.803978
0.804047
0.804549
0.818488
0.81138
0.788279
0.753996
0.812572
0.806261
0.808686
0.80636
0.857732
0.803286
0.813906
0.812591
0.805132
0.555166
0.803873
0.812634
0.814931
0.810292
0.812677
0.8132
0.81292
0.810158
0.864358
0.501115
0.812707
0.841608
0.812545
0.802942
0.80838
0.814908
0.839621
0.800376
0.801134
0.812552
0.70657
0.812724
0.808153
0.807271
0.812451
0.812777
0.812921
0.813257
0.511391
0.811838
0.715542
0.885817
0.820981
0.733484
0.670675
0.815271
0.803433
0.818645
0.646358
0.801622
0.813228
0.647848
0.799781
0.804073
0.815343
0.806215
0.856694
0.809831
0.606762
0.800774
0.775175
0.811192
0.889048
0.803218
0.815491
0.819258
0.832155
0.813294
0.822321
0.836282
0.634826
0.802557
0.655648
0.813645
0.813545
0.712654
0.81343
0.804739
0.713212
0.814844
0.701
0.861031
0.784023
0.814198
0.81278
0.813324
0.667714
0.813551
0.633165
0.800141
0.792336
0.822217
0.815086
0.715867
0.766687
0.82998
0.812648
0.821242
0.821824
0.813332
0.825256
0.799432
0.55187
0.754918
0.759114
0.731519
0.837544
0.82226
0.834287
0.775934
0.80275
0.812917
0.812837
0.812841
0.774582
0.563605
0.803193
0.528117
0.808132
0.824181
0.799631
0.803746
0.812869
0.805993
0.782542
0.732125
0.813281
0.859103
0.813627
0.799223
0.73696
0.809515
0.788686
0.833666
0.503375
0.795955
0.805815
0.798802
0.68866
0.812731
0.810673
0.856936
0.568875
0.807313
0.80326
0.812717
0.612184
0.812977
0.803324
0.803392
0.803016
0.813089
0.813188
0.816013
0.812927
0.718036
0.804484
0.803191
0.812874
0.89614
0.813034
0.773908
0.841069
0.799165
0.803126
0.601166
0.812767
0.803348
0.825564
0.801943
0.866182
0.81475
0.853293
0.800268
0.820547
0.77783
0.558058
0.752593
0.794162
0.803846
0.813915
0.813699
0.555272
0.861744
0.857783
0.768374
0.757638
0.738491
0.811973
0.84831
0.812806
0.813648
0.81284
0.804259
0.726772
0.803488
0.799038
0.764228
0.824178
0.82291
0.861802
0.815551
0.812852
0.5235
0.808869
0.812811
0.800649
0.773898
0.818043
0.803103
0.812769
0.826802
0.798423
0.803532
0.801173
0.815089
0.83905
0.8023
0.799098
0.801415
0.766098
0.819771
0.566859
0.868339
0.803673
0.545502
0.803097
0.803059
0.819479
0.590891
0.605975
0.801493
0.803559
0.800782
0.860688
0.779864
0.814538
0.802924
0.865587
0.804697
0.804436
0.826251
0.815854
0.820003
0.821182
0.820229
0.867439
0.729171
0.852098
0.817097
0.653537
0.802486
0.80317
0.803622
0.821024
0.823414
0.803916
0.801023
0.799985
0.822581
0.803145
0.803588
0.799592
0.824291
0.803957
0.801961
0.806058
0.827778
0.800464
0.801463
0.824172
0.799521
0.81527
0.651132
0.826296
0.849785
0.804822
0.81947
0.803212
0.828658
0.837416
0.803386
0.821377
0.80048
0.8069
0.789525
0.802127
0.803105
0.806338
0.805851
0.804443
0.81844
0.81463
0.811207
0.831321
0.802107
0.802199
0.799835
0.788981
0.833705
0.803126
0.819198
0.815093
0.807063
0.804974
0.80294
0.838831
0.864599
0.799502
0.678828
0.801138
0.842075
0.816481
0.805047
0.804447
0.819642
0.844526
0.600891
0.828658
0.794411
0.85024
0.818624
0.811961
0.813226
0.808155
0.803939
0.812731
0.808721
0.591675
0.847913
0.794548
0.814058
0.854525
0.819172
0.763105
0.808586
0.814331
0.815351
0.802942
0.661557
0.809118
0.863097
0.802506
0.800655
0.775323
0.871173
0.800385
0.877028
0.806615
0.817052
0.820508
0.802143
0.803765
0.812472
0.815765
0.803392
0.813196
0.816624
0.881311
0.820647
0.809272
0.80006
0.828327
0.810454
0.838744
0.80875
0.80692
0.81203
0.816432
0.829832
0.813533
0.822437
0.83244
0.814075
0.699456
0.690389
0.81291
0.817631
0.803728
0.812993
0.513578
0.854818
0.799699
0.806205
0.813813
0.813354
0.803938
0.812347
0.80041
0.801153
0.807956
0.814645
0.756778
0.78457
0.822839
0.842561
0.834731
0.800188
0.804984
0.803342
0.81288
0.805648
0.799452
0.799726
0.80096
0.81083
0.797777
0.802672
0.835408
0.831219
0.729651
0.659875
0.807546
0.698295
0.799419
0.571577
0.804385
0.806883
0.803034
0.818051
0.833666
0.813795
0.812719
0.810236
0.803822
0.88148
0.816148
0.804718
0.772194
0.585351
0.810212
0.806542
0.769292
0.814288
0.813743
0.791432
0.800675
0.80401
0.623628
0.830371
0.803488
0.781395
0.779249
0.852651
0.809964
0.802806
0.802523
0.810118
0.811026
0.518268
0.801737
0.839411
0.813794
0.798538
0.588483
0.814461
0.81394
0.812806
0.833642
0.813786
0.803898
0.821785
0.805498
0.575589
0.808596
0.736383
0.798476
0.8135
0.722097
0.8148
0.84587
0.831551
0.664357
0.890869
0.78554
0.777318
0.79684
0.779489
0.808554
0.849838
0.807898
0.802836
0.813413
0.808736
0.782561
0.785879
0.813751
0.808233
0.834779
0.821167
0.835612
0.801191
0.799594
0.812904
0.85655
0.816359
0.818264
0.813208
0.607182
0.795488
0.823791
0.829271
0.865843
0.812459
0.818849
0.508294
0.809615
0.800528
0.812474
0.814634
0.847516
0.81291
0.811059
0.881459
0.764452
0.812503
0.813098
0.808899
0.805185
0.814095
0.655779
0.800471
0.849459
0.833446
0.810504
0.813443
0.813228
0.809539
0.698685
0.812377
0.800091
0.838485
0.818359
0.811501
0.83124
0.792622
0.81143
0.817698
0.808709
0.819173
0.744115
0.854611
0.818848
0.813677
0.812913
0.81256
0.815595
0.817038
0.812605
0.810665
0.840997
0.818478
0.800084
0.825218
0.826855
0.815935
0.814408
0.800297
0.801465
0.812901
0.818908
0.829338
0.812651
0.816336
0.799754
0.809837
0.812688
0.812656
0.802481
0.814533
0.813189
0.80321
0.812711
0.835569
0.799997
0.809307
0.821418
0.559708
0.81408
0.818046
0.815403
0.814885
0.821857
0.828732
0.815496
0.818718
0.701327
0.812913
0.801284
0.815489
0.818892
0.834995
0.821453
0.815459
0.829272
0.824834
0.810531
0.819147
0.819419
0.804108
0.813012
0.815476
0.819385
0.832018
0.812485
0.81557
0.802702
0.812784
0.812906
0.522142
0.627389
0.814311
0.821327
0.801671
0.822362
0.815778
0.841787
0.708014
0.813606
0.730317
0.817299
0.810188
0.813017
0.82926
0.813516
0.804783
0.81277
0.829997
0.839173
0.812653
0.719095
0.819203
0.815905
0.799858
0.803018
0.81518
0.855862
0.812501
0.81323
0.849627
0.828916
0.843199
0.573024
0.829011
0.813806
0.810769
0.817277
0.850378
0.817642
0.718302
0.799474
0.831684
0.799698
0.799664
0.805349
0.747749
0.813254
0.814212
0.725289
0.814224
0.827263
0.813175
0.813899
0.799152
0.818256
0.812835
0.823435
0.808673
0.808092
0.814848
0.705278
0.818956
0.813946
0.812819
0.639681
0.718858
0.599202
0.823197
0.529062
0.853685
0.727234
0.842719
0.812383
0.722504
0.821329
0.815757
0.742468
0.807616
0.818232
0.794385
0.816399
0.815734
0.815663
0.812836
0.807758
0.803647
0.737208
0.836019
0.820053
0.816484
0.799163
0.81536
0.801922
0.815878
0.813319
0.854482
0.81765
0.496545
0.813178
0.818668
0.818541
0.778007
0.815673
0.806699
0.818505
0.845229
0.596236
0.809022
0.799233
0.815189
0.817497
0.817567
0.812305
0.818477
0.81373
0.814453
0.803058
0.81415
0.846031
0.8138
0.791977
0.811354
0.622371
0.718762
0.812915
0.816868
0.802901
0.822187
0.735425
0.803143
0.803178
0.820087
0.616429
0.81747
0.79928
0.815283
0.864517
0.785447
0.821832
0.817852
0.822666
0.81388
0.769536
0.802405
0.813424
0.902271
0.82709
0.816298
0.832136
0.809464
0.868048
0.719436
0.684874
0.852218
0.802691
0.6573