# vtk DataFile Version 1.0
unstructured grid
ascii
DATASET UNSTRUCTURED_GRID
points 7812 float
-1 0 0
-1 1 0
2 0 0
2 1 0
0 0 0
1 0 0
-1 1 0.1
-1 0 0.1
0 0 0.1
1 0 0.1
2 0 0.1
2 1 0.1
-0.99 0 0
-0.98 0 0
-0.97 0 0
-0.96 0 0
-0.95 0 0
-0.94 0 0
-0.93 0 0
-0.92 0 0
-0.91 0 0
-0.9 0 0
-0.89 0 0
-0.88 0 0
-0.87 0 0
-0.86 0 0
-0.85 0 0
-0.84 0 0
-0.83 0 0
-0.82 0 0
-0.81 0 0
-0.8 0 0
-0.79 0 0
-0.78 0 0
-0.77 0 0
-0.76 0 0
-0.75 0 0
-0.74 0 0
-0.73 0 0
-0.72 0 0
-0.71 0 0
-0.7 0 0
-0.69 0 0
-0.68 0 0
-0.67 0 0
-0.66 0 0
-0.65 0 0
-0.64 0 0
-0.63 0 0
-0.62 0 0
-0.61 0 0
-0.6 0 0
-0.59 0 0
-0.58 0 0
-0.57 0 0
-0.56 0 0
-0.55 0 0
-0.54 0 0
-0.53 0 0
-0.52 0 0
-0.51 0 0
-0.5 0 0
-0.49 0 0
-0.48 0 0
-0.47 0 0
-0.46 0 0
-0.45 0 0
-0.44 0 0
-0.43 0 0
-0.42 0 0
-0.41 0 0
-0.4 0 0
-0.39 0 0
-0.38 0 0
-0.37 0 0
-0.36 0 0
-0.35 0 0
-0.34 0 0
-0.33 0 0
-0.32 0 0
-0.31 0 0
-0.3 0 0
-0.29 0 0
-0.28 0 0
-0.27 0 0
-0.26 0 0
-0.25 0 0
-0.24 0 0
-0.23 0 0
-0.22 0 0
-0.21 0 0
-0.2 0 0
-0.19 0 0
-0.18 0 0
-0.17 0 0
-0.16 0 0
-0.15 0 0
-0.14 0 0
-0.13 0 0
-0.12 0 0
-0.11 0 0
-0.1 0 0
-0.09 0 0
-0.08 0 0
-0.07 0 0
-0.06 0 0
-0.05 0 0
-0.04 0 0
-0.03 0 0
-0.02 0 0
-0.01 0 0
1.01 0 0
1.02 0 0
1.03 0 0
1.04 0 0
1.05 0 0
1.06 0 0
1.07 0 0
1.08 0 0
1.09 0 0
1.1 0 0
1.11 0 0
1.12 0 0
1.13 0 0
1.14 0 0
1.15 0 0
1.16 0 0
1.17 0 0
1.18 0 0
1.19 0 0
1.2 0 0
1.21 0 0
1.22 0 0
1.23 0 0
1.24 0 0
1.25 0 0
1.26 0 0
1.27 0 0
1.28 0 0
1.29 0 0
1.3 0 0
1.31 0 0
1.32 0 0
1.33 0 0
1.34 0 0
1.35 0 0
1.36 0 0
1.37 0 0
1.38 0 0
1.39 0 0
1.4 0 0
1.41 0 0
1.42 0 0
1.43 0 0
1.44 0 0
1.45 0 0
1.46 0 0
1.47 0 0
1.48 0 0
1.49 0 0
1.5 0 0
1.51 0 0
1.52 0 0
1.53 0 0
1.54 0 0
1.55 0 0
1.56 0 0
1.57 0 0
1.58 0 0
1.59 0 0
1.6 0 0
1.61 0 0
1.62 0 0
1.63 0 0
1.64 0 0
1.65 0 0
1.66 0 0
1.67 0 0
1.68 0 0
1.69 0 0
1.7 0 0
1.71 0 0
1.72 0 0
1.73 0 0
1.74 0 0
1.75 0 0
1.76 0 0
1.77 0 0
1.78 0 0
1.79 0 0
1.8 0 0
1.81 0 0
1.82 0 0
1.83 0 0
1.84 0 0
1.85 0 0
1.86 0 0
1.87 0 0
1.88 0 0
1.89 0 0
1.9 0 0
1.91 0 0
1.92 0 0
1.93 0 0
1.94 0 0
1.95 0 0
1.96 0 0
1.97 0 0
1.98 0 0
1.99 0 0
2 0.010289 0
2 0.0215307 0
2 0.0338135 0
2 0.0472336 0
2 0.0618965 0
2 0.0779171 0
2 0.0954213 0
2 0.114546 0
2 0.135442 0
2 0.158274 0
2 0.183219 0
2 0.210474 0
2 0.240253 0
2 0.27279 0
2 0.308339 0
2 0.347181 0
2 0.389619 0
2 0.435987 0
2 0.486649 0
2 0.542002 0
2 0.602481 0
2 0.66856 0
2 0.740758 0
2 0.819642 0
2 0.90583 0
1.9 1 0
1.8 1 0
1.7 1 0
1.6 1 0
1.5 1 0
1.4 1 0
1.3 1 0
1.2 1 0
1.1 1 0
1 1 0
0.9 1 0
0.8 1 0
0.7 1 0
0.6 1 0
0.5 1 0
0.4 1 0
0.3 1 0
0.2 1 0
0.1 1 0
3.69793e-12 1 0
-0.1 1 0
-0.2 1 0
-0.3 1 0
-0.4 1 0
-0.5 1 0
-0.6 1 0
-0.7 1 0
-0.8 1 0
-0.9 1 0
-1 0.90583 0
-1 0.819642 0
-1 0.740758 0
-1 0.66856 0
-1 0.602481 0
-1 0.542002 0
-1 0.486649 0
-1 0.435987 0
-1 0.389619 0
-1 0.347181 0
-1 0.308339 0
-1 0.27279 0
-1 0.240253 0
-1 0.210474 0
-1 0.183219 0
-1 0.158274 0
-1 0.135442 0
-1 0.114546 0
-1 0.0954213 0
-1 0.0779171 0
-1 0.0618965 0
-1 0.0472336 0
-1 0.0338135 0
-1 0.0215307 0
-1 0.010289 0
0.00921362 0.00379763 0
0.0184561 0.00752451 0
0.0277268 0.0111804 0
0.0370253 0.0147652 0
0.0463511 0.0182786 0
0.0557034 0.0217203 0
0.0650819 0.0250903 0
0.074486 0.0283883 0
0.083915 0.0316141 0
0.0933685 0.0347675 0
0.102846 0.0378484 0
0.112347 0.0408565 0
0.12187 0.0437917 0
0.131416 0.0466538 0
0.140983 0.0494427 0
0.150572 0.0521581 0
0.160181 0.0547999 0
0.16981 0.0573681 0
0.179458 0.0598623 0
0.189125 0.0622825 0
0.198811 0.0646285 0
0.208514 0.0669001 0
0.218234 0.0690974 0
0.227971 0.07122 0
0.237724 0.073268 0
0.247493 0.0752411 0
0.257276 0.0771393 0
0.267073 0.0789625 0
0.276884 0.0807105 0
0.286708 0.0823832 0
0.296545 0.0839806 0
0.306394 0.0855025 0
0.316254 0.0869488 0
0.326125 0.0883196 0
0.336006 0.0896146 0
0.345896 0.0908339 0
0.355796 0.0919773 0
0.365704 0.0930447 0
0.375621 0.0940362 0
0.385544 0.0949517 0
0.395474 0.095791 0
0.40541 0.0965542 0
0.415352 0.0972412 0
0.425299 0.097852 0
0.43525 0.0983865 0
0.445205 0.0988447 0
0.455164 0.0992266 0
0.465125 0.0995321 0
0.475088 0.0997613 0
0.485052 0.0999141 0
0.495017 0.0999904 0
0.504983 0.0999904 0
0.514948 0.0999141 0
0.524912 0.0997613 0
0.534875 0.0995321 0
0.544836 0.0992266 0
0.554795 0.0988447 0
0.56475 0.0983865 0
0.574701 0.097852 0
0.584648 0.0972412 0
0.59459 0.0965542 0
0.604526 0.095791 0
0.614456 0.0949517 0
0.624379 0.0940362 0
0.634296 0.0930447 0
0.644204 0.0919773 0
0.654104 0.0908339 0
0.663994 0.0896146 0
0.673875 0.0883196 0
0.683746 0.0869488 0
0.693606 0.0855025 0
0.703455 0.0839806 0
0.713292 0.0823832 0
0.723116 0.0807105 0
0.732927 0.0789625 0
0.742724 0.0771393 0
0.752508 0.0752411 0
0.762276 0.073268 0
0.772029 0.07122 0
0.781766 0.0690974 0
0.791486 0.0669001 0
0.801189 0.0646285 0
0.810875 0.0622825 0
0.820542 0.0598623 0
0.83019 0.0573681 0
0.839819 0.0547999 0
0.849428 0.0521581 0
0.859017 0.0494427 0
0.868584 0.0466538 0
0.87813 0.0437917 0
0.887653 0.0408565 0
0.897154 0.0378484 0
0.906631 0.0347675 0
0.916085 0.0316141 0
0.925514 0.0283883 0
0.934918 0.0250903 0
0.944297 0.0217203 0
0.953649 0.0182786 0
0.962975 0.0147652 0
0.972273 0.0111804 0
0.981544 0.00752451 0
0.990786 0.00379763 0
-1 0.90583 0.1
-1 0.819642 0.1
-1 0.740758 0.1
-1 0.66856 0.1
-1 0.602481 0.1
-1 0.542002 0.1
-1 0.486649 0.1
-1 0.435987 0.1
-1 0.389619 0.1
-1 0.347181 0.1
-1 0.308339 0.1
-1 0.27279 0.1
-1 0.240253 0.1
-1 0.210474 0.1
-1 0.183219 0.1
-1 0.158274 0.1
-1 0.135442 0.1
-1 0.114546 0.1
-1 0.0954213 0.1
-1 0.0779171 0.1
-1 0.0618965 0.1
-1 0.0472336 0.1
-1 0.0338135 0.1
-1 0.0215307 0.1
-1 0.010289 0.1
-0.99 0 0.1
-0.98 0 0.1
-0.97 0 0.1
-0.96 0 0.1
-0.95 0 0.1
-0.94 0 0.1
-0.93 0 0.1
-0.92 0 0.1
-0.91 0 0.1
-0.9 0 0.1
-0.89 0 0.1
-0.88 0 0.1
-0.87 0 0.1
-0.86 0 0.1
-0.85 0 0.1
-0.84 0 0.1
-0.83 0 0.1
-0.82 0 0.1
-0.81 0 0.1
-0.8 0 0.1
-0.79 0 0.1
-0.78 0 0.1
-0.77 0 0.1
-0.76 0 0.1
-0.75 0 0.1
-0.74 0 0.1
-0.73 0 0.1
-0.72 0 0.1
-0.71 0 0.1
-0.7 0 0.1
-0.69 0 0.1
-0.68 0 0.1
-0.67 0 0.1
-0.66 0 0.1
-0.65 0 0.1
-0.64 0 0.1
-0.63 0 0.1
-0.62 0 0.1
-0.61 0 0.1
-0.6 0 0.1
-0.59 0 0.1
-0.58 0 0.1
-0.57 0 0.1
-0.56 0 0.1
-0.55 0 0.1
-0.54 0 0.1
-0.53 0 0.1
-0.52 0 0.1
-0.51 0 0.1
-0.5 0 0.1
-0.49 0 0.1
-0.48 0 0.1
-0.47 0 0.1
-0.46 0 0.1
-0.45 0 0.1
-0.44 0 0.1
-0.43 0 0.1
-0.42 0 0.1
-0.41 0 0.1
-0.4 0 0.1
-0.39 0 0.1
-0.38 0 0.1
-0.37 0 0.1
-0.36 0 0.1
-0.35 0 0.1
-0.34 0 0.1
-0.33 0 0.1
-0.32 0 0.1
-0.31 0 0.1
-0.3 0 0.1
-0.29 0 0.1
-0.28 0 0.1
-0.27 0 0.1
-0.26 0 0.1
-0.25 0 0.1
-0.24 0 0.1
-0.23 0 0.1
-0.22 0 0.1
-0.21 0 0.1
-0.2 0 0.1
-0.19 0 0.1
-0.18 0 0.1
-0.17 0 0.1
-0.16 0 0.1
-0.15 0 0.1
-0.14 0 0.1
-0.13 0 0.1
-0.12 0 0.1
-0.11 0 0.1
-0.1 0 0.1
-0.09 0 0.1
-0.08 0 0.1
-0.07 0 0.1
-0.06 0 0.1
-0.05 0 0.1
-0.04 0 0.1
-0.03 0 0.1
-0.02 0 0.1
-0.01 0 0.1
0.00921362 0.00379763 0.1
0.0184561 0.00752451 0.1
0.0277268 0.0111804 0.1
0.0370253 0.0147652 0.1
0.0463511 0.0182786 0.1
0.0557034 0.0217203 0.1
0.0650819 0.0250903 0.1
0.074486 0.0283883 0.1
0.083915 0.0316141 0.1
0.0933685 0.0347675 0.1
0.102846 0.0378484 0.1
0.112347 0.0408565 0.1
0.12187 0.0437917 0.1
0.131416 0.0466538 0.1
0.140983 0.0494427 0.1
0.150572 0.0521581 0.1
0.160181 0.0547999 0.1
0.16981 0.0573681 0.1
0.179458 0.0598623 0.1
0.189125 0.0622825 0.1
0.198811 0.0646285 0.1
0.208514 0.0669001 0.1
0.218234 0.0690974 0.1
0.227971 0.07122 0.1
0.237724 0.073268 0.1
0.247493 0.0752411 0.1
0.257276 0.0771393 0.1
0.267073 0.0789625 0.1
0.276884 0.0807105 0.1
0.286708 0.0823832 0.1
0.296545 0.0839806 0.1
0.306394 0.0855025 0.1
0.316254 0.0869488 0.1
0.326125 0.0883196 0.1
0.336006 0.0896146 0.1
0.345896 0.0908339 0.1
0.355796 0.0919773 0.1
0.365704 0.0930447 0.1
0.375621 0.0940362 0.1
0.385544 0.0949517 0.1
0.395474 0.095791 0.1
0.40541 0.0965542 0.1
0.415352 0.0972412 0.1
0.425299 0.097852 0.1
0.43525 0.0983865 0.1
0.445205 0.0988447 0.1
0.455164 0.0992266 0.1
0.465125 0.0995321 0.1
0.475088 0.0997613 0.1
0.485052 0.0999141 0.1
0.495017 0.0999904 0.1
0.504983 0.0999904 0.1
0.514948 0.0999141 0.1
0.524912 0.0997613 0.1
0.534875 0.0995321 0.1
0.544836 0.0992266 0.1
0.554795 0.0988447 0.1
0.56475 0.0983865 0.1
0.574701 0.097852 0.1
0.584648 0.0972412 0.1
0.59459 0.0965542 0.1
0.604526 0.095791 0.1
0.614456 0.0949517 0.1
0.624379 0.0940362 0.1
0.634296 0.0930447 0.1
0.644204 0.0919773 0.1
0.654104 0.0908339 0.1
0.663994 0.0896146 0.1
0.673875 0.0883196 0.1
0.683746 0.0869488 0.1
0.693606 0.0855025 0.1
0.703455 0.0839806 0.1
0.713292 0.0823832 0.1
0.723116 0.0807105 0.1
0.732927 0.0789625 0.1
0.742724 0.0771393 0.1
0.752508 0.0752411 0.1
0.762276 0.073268 0.1
0.772029 0.07122 0.1
0.781766 0.0690974 0.1
0.791486 0.0669001 0.1
0.801189 0.0646285 0.1
0.810875 0.0622825 0.1
0.820542 0.0598623 0.1
0.83019 0.0573681 0.1
0.839819 0.0547999 0.1
0.849428 0.0521581 0.1
0.859017 0.0494427 0.1
0.868584 0.0466538 0.1
0.87813 0.0437917 0.1
0.887653 0.0408565 0.1
0.897154 0.0378484 0.1
0.906631 0.0347675 0.1
0.916085 0.0316141 0.1
0.925514 0.0283883 0.1
0.934918 0.0250903 0.1
0.944297 0.0217203 0.1
0.953649 0.0182786 0.1
0.962975 0.0147652 0.1
0.972273 0.0111804 0.1
0.981544 0.00752451 0.1
0.990786 0.00379763 0.1
1.01 0 0.1
1.02 0 0.1
1.03 0 0.1
1.04 0 0.1
1.05 0 0.1
1.06 0 0.1
1.07 0 0.1
1.08 0 0.1
1.09 0 0.1
1.1 0 0.1
1.11 0 0.1
1.12 0 0.1
1.13 0 0.1
1.14 0 0.1
1.15 0 0.1
1.16 0 0.1
1.17 0 0.1
1.18 0 0.1
1.19 0 0.1
1.2 0 0.1
1.21 0 0.1
1.22 0 0.1
1.23 0 0.1
1.24 0 0.1
1.25 0 0.1
1.26 0 0.1
1.27 0 0.1
1.28 0 0.1
1.29 0 0.1
1.3 0 0.1
1.31 0 0.1
1.32 0 0.1
1.33 0 0.1
1.34 0 0.1
1.35 0 0.1
1.36 0 0.1
1.37 0 0.1
1.38 0 0.1
1.39 0 0.1
1.4 0 0.1
1.41 0 0.1
1.42 0 0.1
1.43 0 0.1
1.44 0 0.1
1.45 0 0.1
1.46 0 0.1
1.47 0 0.1
1.48 0 0.1
1.49 0 0.1
1.5 0 0.1
1.51 0 0.1
1.52 0 0.1
1.53 0 0.1
1.54 0 0.1
1.55 0 0.1
1.56 0 0.1
1.57 0 0.1
1.58 0 0.1
1.59 0 0.1
1.6 0 0.1
1.61 0 0.1
1.62 0 0.1
1.63 0 0.1
1.64 0 0.1
1.65 0 0.1
1.66 0 0.1
1.67 0 0.1
1.68 0 0.1
1.69 0 0.1
1.7 0 0.1
1.71 0 0.1
1.72 0 0.1
1.73 0 0.1
1.74 0 0.1
1.75 0 0.1
1.76 0 0.1
1.77 0 0.1
1.78 0 0.1
1.79 0 0.1
1.8 0 0.1
1.81 0 0.1
1.82 0 0.1
1.83 0 0.1
1.84 0 0.1
1.85 0 0.1
1.86 0 0.1
1.87 0 0.1
1.88 0 0.1
[...]
CELL_DATA 7425
SCALARS rho float
LOOKUP_TABLE default
0.587141
0.805032
0.819523
0.827494
0.7994
0.819121
0.820889
0.814093
0.812939
0.738612
0.863477
0.810025
0.813855
0.827351
0.803693
0.817117
0.798734
0.813222
0.803465
0.767238
0.83125
0.822039
0.724763
0.828023
0.803871
0.702983
0.831183
0.848239
0.800159
0.807925
0.819345
0.725502
0.803611
0.652072
0.519219
0.827989
0.803503
0.81407
0.811134
0.827984
0.715948
0.703149
0.789958
0.702206
0.586441
0.748198
0.799282
0.813788
0.661416
0.71928
0.74631
0.805148
0.812348
0.799057
0.709831
0.626562
0.822885
0.800078
0.738483
0.700888
0.709425
0.807653
0.813191
0.799363
0.798768
0.817575
0.584333
0.77326
0.704748
0.807842
0.80416
0.803201
0.883392
0.821111
0.810835
0.812998
0.805044
0.800435
0.813198
0.757748
0.815942
0.807233
0.810246
0.788659
0.835886
0.801074
0.574418
0.829935
0.542467
0.848462
0.706782
0.72972
0.845203
0.803174
0.817364
0.758182
0.836026
0.788007
0.8256
0.802455
0.808061
0.738655
0.803283
0.828216
0.597206
0.811062
0.824346
0.707426
0.814957
0.799146
0.816674
0.784525
0.789781
0.812424
0.78969
0.786304
0.831232
0.803103
0.700132
0.630151
0.805043
0.777245
0.812902
0.790393
0.858921
0.838814
0.807689
0.80425
0.661173
0.50403
0.814436
0.655027
0.515096
0.867651
0.66175
0.799494
0.811094
0.723524
0.581976
0.72477
0.723224
0.809586
0.8096
0.707331
0.803129
0.779594
0.565444
0.788481
0.782538
0.827741
0.81674
0.704209
0.802884
0.744299
0.705231
0.803272
0.810426
0.830385
0.797537
0.652032
0.802502
0.703483
0.80108
0.829717
0.820426
0.802371
0.813021
0.784792
0.80627
0.800628
0.819676
0.804455
0.791148
0.799109
0.799864
0.740079
0.803674
0.758687
0.594032
0.706597
0.799659
0.79268
0.879785
0.831821
0.615066
0.822897
0.798615
0.827299
0.799853
0.813364
0.812565
0.80319
0.806937
0.704609
0.814973
0.819225
0.770079
0.797116
0.861084
0.807759
0.811813
0.811124
0.612851
0.838865
0.572996
0.531745
0.595463
0.600466
0.828122
0.879319
0.807521
0.798647
0.841363
0.812926
0.816647
0.820735
0.815165
0.637999
0.549126
0.813685
0.545509
0.592489
0.703459
0.811661
0.814025
0.812999
0.833111
0.812867
0.86416
0.709999
0.8352
0.71258
0.805162
0.803918
0.801954
0.713885
0.7204
0.619498
0.705582
0.863602
0.875341
0.806203
0.80769
0.798835
0.81151
0.715783
0.821577
0.800168
0.825666
0.794614
0.809809
0.72142
0.812767
0.823707
0.739734
0.528477
0.799841
0.736428
0.843277
0.814305
0.726611
0.815541
0.814802
0.849933
0.809472
0.803844
0.803251
0.825624
0.860743
0.805413
0.619256
0.848867
0.811962
0.805597
0.827514
0.837315
0.812948
0.821402
0.793491
0.815034
0.866562
0.849927
0.827308
0.836714
0.802663
0.817125
0.803189
0.759696
0.701212
0.58087
0.700948
0.802314
0.812849
0.815949
0.854665
0.779641
0.645739
0.827053
0.520791
0.774259
0.800954
0.646399
0.495281
0.639096
0.81516
0.813194
0.812924
0.812684
0.826687
0.774416
0.811471
0.802662
0.812863
0.840688
0.867058
0.833532
0.802726
0.706186
0.795868
0.834264
0.691563
0.798724
0.802042
0.864768
0.817065
0.593035
0.813352
0.740456
0.852257
0.731961
0.810069
0.907648
0.799846
0.795617
0.658946
0.635563
0.711748
0.780556
0.826512
0.814896
0.813652
0.882367
0.858126
0.799514
0.799141
0.82602
0.739182
0.802516
0.879373
0.801377
0.804674
0.800678
0.802564
0.812927
0.815684
0.816336
0.636175
0.829958
0.645512
0.808444
0.639291
0.802592
0.802232
0.84024
0.728649
0.816339
0.808537
0.816945
0.799482
0.802492
0.811237
0.69671
0.824459
0.813017
0.812889
0.800676
0.736809
0.559934
0.806409
0.810981
0.803186
0.812852
0.794707
0.503117
0.845987
0.813275
0.803845
0.785702
0.813221
0.804654
0.803013
0.816202
0.807505
0.822479
0.768584
0.812633
0.807765
0.56266
0.803096
0.640107
0.838739
0.636223
0.814662
0.877886
0.593176
0.818064
0.748928
0.804409
0.87333
0.533696
0.823091
0.822228
0.803493
0.825709
0.811044
0.823428
0.83061
0.824807
0.739665
0.827493
0.76166
0.810193
0.794231
0.793604
0.758566
0.805594
0.802085
0.814434
0.752194
0.804688
0.604423
0.614213
0.688987
0.812771
0.844176
0.864821
0.829853
0.79856
0.812601
0.80487
0.818491
0.680492
0.800968
0.742922
0.824033
0.814763
0.805368
0.711829
0.727207
0.533662
0.605602
0.801272
0.611376
0.792558
0.765356
0.770024
0.727098
0.762435
0.767505
0.809399
0.814894
0.819518
0.811426
0.710453
0.602197
0.839009
0.806899
0.783133
0.809808
0.802553
0.836534
0.718118
0.855266
0.763676
0.728294
0.764488
0.811475
0.544994
0.798807
0.841594
0.813276
0.813747
0.809679
0.799145
0.78027
0.835681
0.803106
0.842952
0.721073
0.707484
0.800324
0.79513
0.82199
0.708694
0.847941
0.800402
0.816018
0.79871
0.779161
0.808239
0.594611
0.67742
0.632409
0.812896
0.803795
0.826328
0.749233
0.810591
0.814762
0.820363
0.798957
0.729299
0.796851
0.814271
0.803197
0.70315
0.813554
0.818878
0.840004
0.81074
0.825309
0.86228
0.857258
0.743905
0.603407
0.838014
0.805787
0.843366
0.81419
0.822893
0.813484
0.813765
0.633838
0.805163
0.809279
0.812783
0.791883
0.810572
0.804745
0.860489
0.798643
0.812697
0.814678
0.871908
0.597629
0.813421
0.8424
0.883309
0.530464
0.816371
0.829929
0.796136
0.814743
0.794933
0.867584
0.812178
0.831325
0.812689
0.619349
0.802392
0.804145
0.690822
0.853126
0.759767
0.801802
0.813941
0.812676
0.859674
0.795346
0.833593
0.834699
0.78427
0.825163
0.842332
0.799724
0.810472
0.806939
0.805312
0.814816
0.802631
0.845206
0.76924
0.809777
0.803158
0.815195
0.723123
0.812857
0.818324
0.752586
0.813549
0.81633
0.827547
0.825091
0.800704
0.800648
0.850486
0.767934
0.825112
0.844188
0.804554
0.505657
0.812862
0.828255
0.852374
0.812614
0.803148
0.808524
0.855033
0.780076
0.802583
0.801223
0.812899
0.72711
0.802711
0.829988
0.807995
0.794967
0.793492
0.84318
0.806604
0.845304
0.80202
0.824224
0.812731
0.804215
0.841839
0.812831
0.679432
0.818751
0.807097
0.812803
0.906139
0.800798
0.81587
0.800476
0.80039
0.816174
0.800496
0.803358
0.783728
0.747342
0.806477
0.81286
0.758006
0.791384
0.822998
0.813014
0.822232
0.806307
0.825749
0.875295
0.830627
0.574816
0.708795
0.840735
0.81726
0.844141
0.814732
0.850088
0.80732
0.812384
0.799337
0.838391
0.860918
0.852776
0.731513
0.814056
0.822154
0.743972
0.817085
0.775928
0.800217
0.733062
0.816036
0.830844
0.823461
0.861817
0.814184
0.813265
0.810157
0.814614
0.835777
0.812197
0.798651
0.810229
0.737539
0.811315
0.774179
0.832822
0.812748
0.638797
0.77763
0.811129
0.79917
0.819801
0.802464
0.814646
0.817272
0.804449
0.819373
0.804162
0.805834
0.597252
0.847027
0.825109
0.826681
0.814905
0.80322
0.701834
0.806466
0.90783
0.81356
0.801019
0.812855
0.782274
0.80724
0.813256
0.821263
0.814634
0.813195
0.816211
0.701921
0.777835
0.764571
0.812629
0.805309
0.801015
0.621329
0.805699
0.802622
0.70819
0.837178
0.817173
0.802188
0.80744
0.799394
0.817224
0.813918
0.813257
0.812844
0.709674
0.831678
0.800278
0.807395
0.84279
0.817604
0.816268
0.800169
0.753655
0.823815
0.787401
0.821411
0.789408
0.805622
0.820929
0.737519
0.817381
0.650546
0.872018
0.704325
0.844991
0.800785
0.87515
0.793694
0.801671
0.820648
0.836209
0.838399
0.825451
0.819804
0.814685
0.801113
0.804179
0.808237
0.725723
0.827226
0.800081
0.719675
0.830518
0.706178
0.79999
0.860373
0.805579
0.701416
0.79784
0.814058
0.705017
0.785657
0.819361
0.831842
0.80694
0.573466
0.728616
0.812382
0.801315
0.812893
0.800662
0.737211
0.813987
0.815691
0.81246
0.77535
0.803264
0.80449
0.80356
0.560431
0.812681
0.834093
0.579796
0.815139
0.816077
0.81467
0.818336
0.814394
0.824517
0.799069
0.795118
0.771031
0.822885
0.829654
0.825094
0.834862
0.76534
0.808977
0.724394
0.772368
0.808789
0.821051
0.813256
0.80097
0.858267
0.812897
0.800318
0.809568
0.81607
0.815162
0.836613
0.814467
0.812777
0.811977
0.813791
0.80013
0.820973
0.803765
0.822808
0.813438
0.575524
0.813486
0.834445
0.858049
0.838171
0.490741
0.816783
0.804513
0.496554
0.669358
0.643196
0.834282
0.807962
0.811647
0.812771
0.803204
0.816724
0.810949
0.534553
0.68647
0.818228
0.806623
0.815589
0.803506
0.810233
0.81088
0.820216
0.799509
0.692258
0.855899
0.80315
0.814713
0.813596
0.757767
0.485679
0.832876
0.813533
0.74199
0.802701
0.80619
0.590909
0.827511
0.814757
0.827701
0.818757
0.825965
0.804728
0.719398
0.643545
0.56205
0.825296
0.808502
0.782975
0.812941
0.779782
0.817865
0.873306
0.762356
0.821587
0.813499
0.825817
0.883556
0.814415
0.811807
0.803261
0.813861
0.691709
0.828188
0.799871
0.810149
0.802204
0.784243
0.854149
0.822019
0.840471
0.821501
0.757594
0.755892
0.803297
0.818079
0.803063
0.805241
0.802583
0.775636
0.814658
0.761564
0.821132
0.662049
0.813946
0.802957
0.73573
0.823241
0.817956
0.739978
0.801161
0.757202
0.880621
0.80072
0.812809
0.762669
0.800073
0.814245
0.803947
0.589845
0.820925
0.798647
0.801329
0.814498
0.825593
0.757118
0.80551
0.841604
0.82692
0.814087
0.83582
0.700881
0.700132
0.812893
0.744148
0.822196
0.771357
0.812801
0.802516
0.810384
0.751944
0.794192
0.764315
0.809866
0.803142
0.63118
0.779006
0.799233
0.848984
0.81434
0.82863
0.526438
0.825329
0.785127
0.858724
0.800938
0.81797
0.80027
0.785771
0.798733
0.825692
0.835751
0.821749
0.817094
0.706999
0.773818
0.815337
0.805377
0.809947
0.803905
0.706904
0.792815
0.803458
0.810637
0.827158
0.851199
0.831832
0.813436
0.799416
0.804218
0.802016
0.779625
0.611591
0.800307
0.731271
0.661889
0.822784
0.798832
0.777271
0.799964
0.754148
0.785289
0.811424
0.822168
0.803326
0.815982
0.817333
0.820646
0.81336
0.808459
0.712135
0.699377
0.640885
0.829258
0.869557
0.815349
0.841335
0.847823
0.863728
0.73565
0.816564
0.863001
0.810173
0.812838
0.816174
0.732768
0.812398
0.806637
0.806175
0.517208
0.812933
0.761162
0.813127
0.813779
0.803539
0.705588
0.813167
0.610589
0.825012
0.802265
0.822225
0.85515
0.803427
0.795364
0.820908
0.811549
0.805696
0.762237
0.509772
0.820872
0.80308
0.828904
0.825739
0.802079
0.80702
0.834449
0.720803
0.500341
0.886254
0.800567
0.815661
0.804318
0.710505
0.798615
0.799988
0.815035
0.736043
0.646482
0.883242
0.714133
0.83653
0.811954
0.832869
0.842646
0.792157
0.804741
0.813565
0.852768
0.7383
0.870694
0.813986
0.562771
0.802439
0.74893
0.852898
0.760273
0.804213
0.80395
0.799614
0.801582
0.808848
0.812873
0.855527
0.805967
0.802865
0.801308
0.799988
0.812206
0.816845
0.802615
0.81245
0.849191
0.803096
0.783434
0.802234
0.839567
0.724979
0.813597
0.813796
0.637257
0.713081
0.805539
0.822999
0.803533
0.511656
0.856295
0.813182
0.832973
0.805301
0.803311
0.801333
0.786224
0.587146
0.804288
0.816072
0.835974
0.820539
0.812915
0.79814
0.746916
0.801563
0.765756
0.787526
0.799314
0.790954
0.751082
0.800823
0.811436
0.810339
0.832183
0.849042
0.553205
0.841885
0.812808
0.820841
0.801985
0.822651
0.811041
0.894607
0.800219
0.867067
0.805681
0.759746
0.862112
0.802274
0.800239
0.824136
0.660374
0.64526
0.803392
0.803851
0.705095
0.654278
0.799896
0.823827
0.812996
0.822562
0.732925
0.817166
0.812807
0.826108
0.816923
0.811936
0.812829
0.754564
0.803875
0.815649
0.811295
0.676198
0.566398
0.812866
0.649976
0.721906
0.555065
0.841378
0.800103
0.526884
0.600734
0.827498
0.908062
0.818118
0.652288
0.814127
0.786416
0.8017
0.786368
0.820626
0.810078
0.788273
0.821029
0.800984
0.587626
0.817796
0.766652
0.8159
0.700971
0.822195
0.78962
0.813918
0.800028
0.662845
0.843498
0.806533
0.806591
0.493482
0.816803
0.800364
0.852131
0.711364
0.817057
0.583837
0.718859
0.801385
0.796646
0.732698
0.715511
0.716014
0.506898
0.589372
0.799966
0.517435
0.822574
0.520106
0.757172
0.671211
0.599125
0.540519
0.745413
0.80308
0.715228
0.82127
0.800923
0.802924
0.761174
0.889671
0.799025
0.824456
0.803425
0.812753
0.705937
0.807547
0.736676
0.821884
0.88603
0.833553
0.747693
0.822763
0.770472
0.879893
0.804192
0.758646
0.850668
0.776842
0.799923
0.805267
0.758213
0.744578
0.665225
0.80498
0.803021
0.817881
0.833469
0.611454
0.807889
0.538035
0.668564
0.616222
0.818489
0.821015
0.808966
0.803972
0.615647
0.872449
0.802675
0.802944
0.863504
0.812389
0.772007
0.812126
0.802364
0.817874
0.803143
0.717018
0.80335
0.655256
0.798985
0.804072
0.80154
0.639136
0.811507
0.810286
0.72563
0.817775
0.549071
0.576656
0.804141
0.696456
0.725922
0.572056
0.723578
0.813589
0.707609
0.77296
0.716718
0.812785
0.670172
0.762088
0.806437
0.810576
0.654461
0.801942
0.895149
0.79669
0.816766
0.585087
0.693779
0.800911
0.812908
0.813977
0.851643
0.812611
0.804247
0.803722
0.803335
0.713769
0.717574
0.615586
0.771449
0.532673
0.723944
0.809888
0.814377
0.806106
0.799243
0.53582
0.809034
0.803753
0.553917
0.543245
0.746574
0.803569
0.806152
0.549278
0.798202
0.569541
0.720433
0.607737
0.813518
0.802238
0.597
0.608253
0.867883
0.810024
0.765389
0.71782
0.621605
0.655298
0.709823
0.815982
0.759756
0.765501
0.623977
0.753847
0.809279
0.815334
0.812418
0.815441
0.865567
0.754664
0.818903
0.803328
0.851265
0.812821
0.802771
0.813043
0.722591
0.812919
0.811962
0.815154
0.811122
0.815862
0.803268
0.817896
0.810356
0.809707
0.817237
0.800109
0.816564
0.818922
0.667442
0.818578
0.868402
0.818138
0.792919
0.645879
0.858565
0.818758
0.82486
0.799521
0.811174
0.757504
0.852528
0.559161
0.726598
0.809854
0.815634
0.803869
0.803358
0.832024
0.805
0.805187
0.81523
0.780696
0.838531
0.841926
0.815182
0.664285
0.612188
0.815733
0.816589
0.788279
0.84961
0.84724
0.81082
0.813598
0.777735
0.814054
0.817802
0.814078
0.818745
0.813067
0.815791
0.851025
0.815936
0.81447
0.817522
0.817736
0.78488
0.814087
0.804028
0.804102
0.804593
0.818537
0.811445
0.788326
0.753973
0.812633
0.806271
0.808745
0.80637
0.857755
0.803326
0.813961
0.812655
0.80517
0.562894
0.803882
0.812699
0.814988
0.810305
0.812742
0.813261
0.812983
0.810169
0.864378
0.501441
0.812772
0.841639
0.812609
0.802956
0.808402
0.814963
0.839655
0.800424
0.801188
0.812588
0.706116
0.812789
0.808195
0.807325
0.812513
0.812841
0.812984
0.813318
0.511707
0.811857
0.715722
0.885832
0.821026
0.733425
0.671201
0.815326
0.803484
0.818693
0.646457
0.801647
0.813289
0.647945
0.799829
0.804087
0.815402
0.806252
0.856721
0.809841
0.606885
0.800811
0.775171
0.811206
0.889063
0.80326
0.815504
0.819295
0.832184
0.813356
0.822367
0.836316
0.63493
0.802603
0.655744
0.813705
0.813605
0.712557
0.81349
0.804788
0.713144
0.81489
0.701201
0.861056
0.784067
0.814256
0.812846
0.813385
0.667843
0.813611
0.633259
0.800179
0.792356
0.822262
0.815141
0.715979
0.766692
0.830019
0.81271
0.821275
0.82187
0.813393
0.825299
0.799477
0.552033
0.754902
0.759179
0.731438
0.83758
0.822321
0.834317
0.776001
0.802757
0.812981
0.812903
0.812906
0.774619
0.563759
0.803199
0.528429
0.808174
0.824242
0.799679
0.803753
0.812926
0.806005
0.782594
0.73217
0.813342
0.859126
0.813669
0.799268
0.736924
0.809575
0.788707
0.833695
0.50376
0.795969
0.805868
0.798851
0.688996
0.812794
0.81072
0.857026
0.569022
0.807325
0.803265
0.812777
0.612441
0.81304
0.80333
0.803398
0.803022
0.813152
0.81325
0.816065
0.812991
0.717893
0.804495
0.803197
0.812939
0.896153
0.813097
0.77396
0.841119
0.799174
0.80313
0.601293
0.812832
0.803353
0.825624
0.801958
0.866205
0.814792
0.853374
0.800316
0.820594
0.777862
0.558234
0.752669
0.794213
0.803899
0.813926
0.813757
0.555446
0.861765
0.857873
0.768439
0.757655
0.738508
0.812031
0.848376
0.812871
0.813682
0.812905
0.804267
0.726763
0.803495
0.799084
0.764212
0.824222
0.822955
0.861823
0.815604
0.812917
0.524302
0.808879
0.812876
0.800688
0.773945
0.818057
0.803107
0.81283
0.826845
0.798439
0.803566
0.801203
0.815134
0.839083
0.802347
0.799142
0.801467
0.76609
0.819819
0.56702
0.868359
0.803682
0.54568
0.803139
0.8031
0.819534
0.591637
0.606108
0.801533
0.80361
0.800826
0.860709
0.779908
0.814585
0.802931
0.865684
0.804706
0.804444
0.826283
0.815902
0.820063
0.821228
0.820276
0.867459
0.729236
0.852122
0.817147
0.653636
0.802522
0.803178
0.80363
0.821071
0.823457
0.803949
0.801065
0.800029
0.822627
0.803178
0.803598
0.799639
0.824335
0.803965
0.801982
0.806067
0.827818
0.800515
0.801503
0.824229
0.799563
0.815325
0.651233
0.826338
0.849812
0.80485
0.819518
0.803223
0.828699
0.837451
0.803392
0.821423
0.800514
0.80695
0.789541
0.802146
0.803138
0.806347
0.80588
0.804489
0.818489
0.814687
0.811223
0.83136
0.802155
0.802211
0.79988
0.788991
0.833741
0.803137
0.819247
0.815148
0.807087
0.805014
0.802945
0.838864
0.864694
0.799548
0.678911
0.801166
0.842108
0.816533
0.805099
0.804455
0.819669
0.844555
0.601477
0.828721
0.79446
0.850324
0.818673
0.811979
0.813252
0.808204
0.803947
0.812751
0.808738
0.591793
0.847944
0.79458
0.814116
0.854552
0.819221
0.763155
0.808612
0.814388
0.815402
0.802954
0.661655
0.809173
0.863121
0.802547
0.800687
0.775383
0.871192
0.800415
0.877045
0.806653
0.817103
0.820555
0.802196
0.803799
0.812535
0.815819
0.803443
0.813256
0.816679
0.881328
0.82067
0.809283
0.800111
0.828364
0.810466
0.838814
0.808783
0.80693
0.812087
0.816484
0.829866
0.813591
0.822479
0.832475
0.814131
0.699632
0.690701
0.812973
0.817682
0.803781
0.813053
0.513943
0.854841
0.799739
0.806214
0.813868
0.813414
0.803949
0.812408
0.800452
0.801187
0.807999
0.814685
0.756852
0.784613
0.822884
0.84264
0.834766
0.800233
0.805032
0.803349
0.812894
0.80568
0.799499
0.799769
0.80099
0.810866
0.797793
0.802722
0.835444
0.831284
0.729779
0.665074
0.807562
0.698516
0.799469
0.572078
0.804397
0.80691
0.803079
0.818101
0.833733
0.813853
0.812784
0.810249
0.803834
0.881497
0.816201
0.804771
0.77223
0.585781
0.810224
0.806594
0.769334
0.814346
0.813803
0.791451
0.800689
0.80402
0.624402
0.830402
0.803495
0.781456
0.779281
0.852676
0.809974
0.802855
0.802575
0.81017
0.811042
0.51859
0.801765
0.839445
0.813853
0.798555
0.588678
0.814499
0.813998
0.812872
0.83368
0.813845
0.803915
0.821832
0.805556
0.575734
0.808614
0.736484
0.79849
0.813561
0.722163
0.814856
0.845947
0.831576
0.664453
0.890883
0.785565
0.777378
0.796856
0.779504
0.808588
0.84992
0.807948
0.802853
0.813474
0.808793
0.782589
0.785904
0.813809
0.808286
0.834805
0.821211
0.835639
0.801241
0.799634
0.812968
0.856577
0.816402
0.818313
0.813269
0.607298
0.795505
0.823833
0.829301
0.865866
0.812525
0.818888
0.50862
0.809673
0.800569
0.812534
0.814691
0.847545
0.812973
0.811071
0.881475
0.764507
0.812525
0.813159
0.808955
0.805197
0.814153
0.655873
0.800484
0.849488
0.833472
0.810555
0.813493
0.813289
0.809549
0.698896
0.812428
0.800141
0.83852
0.818408
0.811558
0.831273
0.792674
0.811483
0.817747
0.808764
0.819222
0.744213
0.854693
0.818898
0.813733
0.812976
0.812624
0.815647
0.817088
0.81267
0.810718
0.841029
0.818527
0.800131
0.825243
0.826892
0.815992
0.814432
0.800341
0.801493
0.812966
0.818957
0.829364
0.812716
0.816387
0.799803
0.809891
0.812753
0.812719
0.802488
0.814589
0.81325
0.803226
0.812777
0.835605
0.800009
0.809362
0.821479
0.559909
0.814137
0.818096
0.81545
0.814936
0.821902
0.828769
0.815549
0.818768
0.701404
0.812977
0.801316
0.815543
0.818948
0.835022
0.821499
0.815494
0.829312
0.824878
0.810594
0.819161
0.819479
0.80416
0.813075
0.81553
0.819412
0.832056
0.812548
0.815624
0.802709
0.81285
0.812969
0.522511
0.627591
0.814325
0.821374
0.80171
0.822406
0.815832
0.84182
0.708086
0.813666
0.730419
0.817339
0.810244
0.81308
0.829295
0.813576
0.804837
0.812835
0.83003
0.839253
0.812715
0.719163
0.819223
0.815958
0.799899
0.803023
0.815235
0.855888
0.812565
0.813291
0.849655
0.828949
0.843225
0.573349
0.829051
0.813865
0.810824
0.817328
0.850464
0.817692
0.718367
0.79952
0.831708
0.799749
0.799708
0.805375
0.747805
0.813315
0.814269
0.725391
0.81428
0.827288
0.813236
0.813955
0.7992
0.818306
0.8129
0.823495
0.808684
0.808139
0.814899
0.705331
0.819005
0.814003
0.812885
0.639839
0.718745
0.599324
0.823223
0.529497
0.85377
0.727296
0.842752
0.812445
0.722674
0.821362
0.815809
0.742524
0.807639
0.818282
0.794394
0.81645
0.815788
0.815717
0.812901
0.807815
0.803654
0.737266
0.836088
0.820099
0.816536
0.799206
0.815383
0.801976
0.815931
0.813379
0.854565
0.8177
0.496941
0.813229
0.818717
0.81859
0.778033
0.815695
0.806709
0.818527
0.845306
0.596378
0.809075
0.799282
0.815244
0.817547
0.817617
0.812368
0.818527
0.813782
0.814506
0.803064
0.814203
0.846062
0.813856
0.791989
0.811412
0.622487
0.718728
0.812979
0.81692
0.80292
0.822233
0.735439
0.803146
0.803181
0.820135
0.624015
0.817521
0.79933
0.815338
0.864611
0.78547
0.821879
0.817903
0.822727
0.813939
0.769573
0.802416
0.813484
0.902282
0.827116
0.816351
0.832161
0.809525
0.868148
0.719376
0.687328
0.852288