# vtk DataFile Version 1.0
unstructured grid
ascii
DATASET UNSTRUCTURED_GRID
points 7812 float
-1 0 0
-1 1 0
2 0 0
2 1 0
0 0 0
1 0 0
-1 1 0.1
-1 0 0.1
0 0 0.1
1 0 0.1
2 0 0.1
2 1 0.1
-0.99 0 0
-0.98 0 0
-0.97 0 0
-0.96 0 0
-0.95 0 0
-0.94 0 0
-0.93 0 0
-0.92 0 0
-0.91 0 0
-0.9 0 0
-0.89 0 0
-0.88 0 0
-0.87 0 0
-0.86 0 0
-0.85 0 0
-0.84 0 0
-0.83 0 0
-0.82 0 0
-0.81 0 0
-0.8 0 0
-0.79 0 0
-0.78 0 0
-0.77 0 0
-0.76 0 0
-0.75 0 0
-0.74 0 0
-0.73 0 0
-0.72 0 0
-0.71 0 0
-0.7 0 0
-0.69 0 0
-0.68 0 0
-0.67 0 0
-0.66 0 0
-0.65 0 0
-0.64 0 0
-0.63 0 0
-0.62 0 0
-0.61 0 0
-0.6 0 0
-0.59 0 0
-0.58 0 0
-0.57 0 0
-0.56 0 0
-0.55 0 0
-0.54 0 0
-0.53 0 0
-0.52 0 0
-0.51 0 0
-0.5 0 0
-0.49 0 0
-0.48 0 0
-0.47 0 0
-0.46 0 0
-0.45 0 0
-0.44 0 0
-0.43 0 0
-0.42 0 0
-0.41 0 0
-0.4 0 0
-0.39 0 0
-0.38 0 0
-0.37 0 0
-0.36 0 0
-0.35 0 0
-0.34 0 0
-0.33 0 0
-0.32 0 0
-0.31 0 0
-0.3 0 0
-0.29 0 0
-0.28 0 0
-0.27 0 0
-0.26 0 0
-0.25 0 0
-0.24 0 0
-0.23 0 0
-0.22 0 0
-0.21 0 0
-0.2 0 0
-0.19 0 0
-0.18 0 0
-0.17 0 0
-0.16 0 0
-0.15 0 0
-0.14 0 0
-0.13 0 0
-0.12 0 0
-0.11 0 0
-0.1 0 0
-0.09 0 0
-0.08 0 0
-0.07 0 0
-0.06 0 0
-0.05 0 0
-0.04 0 0
-0.03 0 0
-0.02 0 0
-0.01 0 0
1.01 0 0
1.02 0 0
1.03 0 0
1.04 0 0
1.05 0 0
1.06 0 0
1.07 0 0
1.08 0 0
1.09 0 0
1.1 0 0
1.11 0 0
1.12 0 0
1.13 0 0
1.14 0 0
1.15 0 0
1.16 0 0
1.17 0 0
1.18 0 0
1.19 0 0
1.2 0 0
1.21 0 0
1.22 0 0
1.23 0 0
1.24 0 0
1.25 0 0
1.26 0 0
1.27 0 0
1.28 0 0
1.29 0 0
1.3 0 0
1.31 0 0
1.32 0 0
1.33 0 0
1.34 0 0
1.35 0 0
1.36 0 0
1.37 0 0
1.38 0 0
1.39 0 0
1.4 0 0
1.41 0 0
1.42 0 0
1.43 0 0
1.44 0 0
1.45 0 0
1.46 0 0
1.47 0 0
1.48 0 0
1.49 0 0
1.5 0 0
1.51 0 0
1.52 0 0
1.53 0 0
1.54 0 0
1.55 0 0
1.56 0 0
1.57 0 0
1.58 0 0
1.59 0 0
1.6 0 0
1.61 0 0
1.62 0 0
1.63 0 0
1.64 0 0
1.65 0 0
1.66 0 0
1.67 0 0
1.68 0 0
1.69 0 0
1.7 0 0
1.71 0 0
1.72 0 0
1.73 0 0
1.74 0 0
1.75 0 0
1.76 0 0
1.77 0 0
1.78 0 0
1.79 0 0
1.8 0 0
1.81 0 0
1.82 0 0
1.83 0 0
1.84 0 0
1.85 0 0
1.86 0 0
1.87 0 0
1.88 0 0
1.89 0 0
1.9 0 0
1.91 0 0
1.92 0 0
1.93 0 0
1.94 0 0
1.95 0 0
1.96 0 0
1.97 0 0
1.98 0 0
1.99 0 0
2 0.010289 0
2 0.0215307 0
2 0.0338135 0
2 0.0472336 0
2 0.0618965 0
2 0.0779171 0
2 0.0954213 0
2 0.114546 0
2 0.135442 0
2 0.158274 0
2 0.183219 0
2 0.210474 0
2 0.240253 0
2 0.27279 0
2 0.308339 0
2 0.347181 0
2 0.389619 0
2 0.435987 0
2 0.486649 0
2 0.542002 0
2 0.602481 0
2 0.66856 0
2 0.740758 0
2 0.819642 0
2 0.90583 0
1.9 1 0
1.8 1 0
1.7 1 0
1.6 1 0
1.5 1 0
1.4 1 0
1.3 1 0
1.2 1 0
1.1 1 0
1 1 0
0.9 1 0
0.8 1 0
0.7 1 0
0.6 1 0
0.5 1 0
0.4 1 0
0.3 1 0
0.2 1 0
0.1 1 0
3.69793e-12 1 0
-0.1 1 0
-0.2 1 0
-0.3 1 0
-0.4 1 0
-0.5 1 0
-0.6 1 0
-0.7 1 0
-0.8 1 0
-0.9 1 0
-1 0.90583 0
-1 0.819642 0
-1 0.740758 0
-1 0.66856 0
-1 0.602481 0
-1 0.542002 0
-1 0.486649 0
-1 0.435987 0
-1 0.389619 0
-1 0.347181 0
-1 0.308339 0
-1 0.27279 0
-1 0.240253 0
-1 0.210474 0
-1 0.183219 0
-1 0.158274 0
-1 0.135442 0
-1 0.114546 0
-1 0.0954213 0
-1 0.0779171 0
-1 0.0618965 0
-1 0.0472336 0
-1 0.0338135 0
-1 0.0215307 0
-1 0.010289 0
0.00921362 0.00379763 0
0.0184561 0.00752451 0
0.0277268 0.0111804 0
0.0370253 0.0147652 0
0.0463511 0.0182786 0
0.0557034 0.0217203 0
0.0650819 0.0250903 0
0.074486 0.0283883 0
0.083915 0.0316141 0
0.0933685 0.0347675 0
0.102846 0.0378484 0
0.112347 0.0408565 0
0.12187 0.0437917 0
0.131416 0.0466538 0
0.140983 0.0494427 0
0.150572 0.0521581 0
0.160181 0.0547999 0
0.16981 0.0573681 0
0.179458 0.0598623 0
0.189125 0.0622825 0
0.198811 0.0646285 0
0.208514 0.0669001 0
0.218234 0.0690974 0
0.227971 0.07122 0
0.237724 0.073268 0
0.247493 0.0752411 0
0.257276 0.0771393 0
0.267073 0.0789625 0
0.276884 0.0807105 0
0.286708 0.0823832 0
0.296545 0.0839806 0
0.306394 0.0855025 0
0.316254 0.0869488 0
0.326125 0.0883196 0
0.336006 0.0896146 0
0.345896 0.0908339 0
0.355796 0.0919773 0
0.365704 0.0930447 0
0.375621 0.0940362 0
0.385544 0.0949517 0
0.395474 0.095791 0
0.40541 0.0965542 0
0.415352 0.0972412 0
0.425299 0.097852 0
0.43525 0.0983865 0
0.445205 0.0988447 0
0.455164 0.0992266 0
0.465125 0.0995321 0
0.475088 0.0997613 0
0.485052 0.0999141 0
0.495017 0.0999904 0
0.504983 0.0999904 0
0.514948 0.0999141 0
0.524912 0.0997613 0
0.534875 0.0995321 0
0.544836 0.0992266 0
0.554795 0.0988447 0
0.56475 0.0983865 0
0.574701 0.097852 0
0.584648 0.0972412 0
0.59459 0.0965542 0
0.604526 0.095791 0
0.614456 0.0949517 0
0.624379 0.0940362 0
0.634296 0.0930447 0
0.644204 0.0919773 0
0.654104 0.0908339 0
0.663994 0.0896146 0
0.673875 0.0883196 0
0.683746 0.0869488 0
0.693606 0.0855025 0
0.703455 0.0839806 0
0.713292 0.0823832 0
0.723116 0.0807105 0
0.732927 0.0789625 0
0.742724 0.0771393 0
0.752508 0.0752411 0
0.762276 0.073268 0
0.772029 0.07122 0
0.781766 0.0690974 0
0.791486 0.0669001 0
0.801189 0.0646285 0
0.810875 0.0622825 0
0.820542 0.0598623 0
0.83019 0.0573681 0
0.839819 0.0547999 0
0.849428 0.0521581 0
0.859017 0.0494427 0
0.868584 0.0466538 0
0.87813 0.0437917 0
0.887653 0.0408565 0
0.897154 0.0378484 0
0.906631 0.0347675 0
0.916085 0.0316141 0
0.925514 0.0283883 0
0.934918 0.0250903 0
0.944297 0.0217203 0
0.953649 0.0182786 0
0.962975 0.0147652 0
0.972273 0.0111804 0
0.981544 0.00752451 0
0.990786 0.00379763 0
-1 0.90583 0.1
-1 0.819642 0.1
-1 0.740758 0.1
-1 0.66856 0.1
-1 0.602481 0.1
-1 0.542002 0.1
-1 0.486649 0.1
-1 0.435987 0.1
-1 0.389619 0.1
-1 0.347181 0.1
-1 0.308339 0.1
-1 0.27279 0.1
-1 0.240253 0.1
-1 0.210474 0.1
-1 0.183219 0.1
-1 0.158274 0.1
-1 0.135442 0.1
-1 0.114546 0.1
-1 0.0954213 0.1
-1 0.0779171 0.1
-1 0.0618965 0.1
-1 0.0472336 0.1
-1 0.0338135 0.1
-1 0.0215307 0.1
-1 0.010289 0.1
-0.99 0 0.1
-0.98 0 0.1
-0.97 0 0.1
-0.96 0 0.1
-0.95 0 0.1
-0.94 0 0.1
-0.93 0 0.1
-0.92 0 0.1
-0.91 0 0.1
-0.9 0 0.1
-0.89 0 0.1
-0.88 0 0.1
-0.87 0 0.1
-0.86 0 0.1
-0.85 0 0.1
-0.84 0 0.1
-0.83 0 0.1
-0.82 0 0.1
-0.81 0 0.1
-0.8 0 0.1
-0.79 0 0.1
-0.78 0 0.1
-0.77 0 0.1
-0.76 0 0.1
-0.75 0 0.1
-0.74 0 0.1
-0.73 0 0.1
-0.72 0 0.1
-0.71 0 0.1
-0.7 0 0.1
-0.69 0 0.1
-0.68 0 0.1
-0.67 0 0.1
-0.66 0 0.1
-0.65 0 0.1
-0.64 0 0.1
-0.63 0 0.1
-0.62 0 0.1
-0.61 0 0.1
-0.6 0 0.1
-0.59 0 0.1
-0.58 0 0.1
-0.57 0 0.1
-0.56 0 0.1
-0.55 0 0.1
-0.54 0 0.1
-0.53 0 0.1
-0.52 0 0.1
-0.51 0 0.1
-0.5 0 0.1
-0.49 0 0.1
-0.48 0 0.1
-0.47 0 0.1
-0.46 0 0.1
-0.45 0 0.1
-0.44 0 0.1
-0.43 0 0.1
-0.42 0 0.1
-0.41 0 0.1
-0.4 0 0.1
-0.39 0 0.1
-0.38 0 0.1
-0.37 0 0.1
-0.36 0 0.1
-0.35 0 0.1
-0.34 0 0.1
-0.33 0 0.1
-0.32 0 0.1
-0.31 0 0.1
-0.3 0 0.1
-0.29 0 0.1
-0.28 0 0.1
-0.27 0 0.1
-0.26 0 0.1
-0.25 0 0.1
-0.24 0 0.1
-0.23 0 0.1
-0.22 0 0.1
-0.21 0 0.1
-0.2 0 0.1
-0.19 0 0.1
-0.18 0 0.1
-0.17 0 0.1
-0.16 0 0.1
-0.15 0 0.1
-0.14 0 0.1
-0.13 0 0.1
-0.12 0 0.1
-0.11 0 0.1
-0.1 0 0.1
-0.09 0 0.1
-0.08 0 0.1
-0.07 0 0.1
-0.06 0 0.1
-0.05 0 0.1
-0.04 0 0.1
-0.03 0 0.1
-0.02 0 0.1
-0.01 0 0.1
0.00921362 0.00379763 0.1
0.0184561 0.00752451 0.1
0.0277268 0.0111804 0.1
0.0370253 0.0147652 0.1
0.0463511 0.0182786 0.1
0.0557034 0.0217203 0.1
0.0650819 0.0250903 0.1
0.074486 0.0283883 0.1
0.083915 0.0316141 0.1
0.0933685 0.0347675 0.1
0.102846 0.0378484 0.1
0.112347 0.0408565 0.1
0.12187 0.0437917 0.1
0.131416 0.0466538 0.1
0.140983 0.0494427 0.1
0.150572 0.0521581 0.1
0.160181 0.0547999 0.1
0.16981 0.0573681 0.1
0.179458 0.0598623 0.1
0.189125 0.0622825 0.1
0.198811 0.0646285 0.1
0.208514 0.0669001 0.1
0.218234 0.0690974 0.1
0.227971 0.07122 0.1
0.237724 0.073268 0.1
0.247493 0.0752411 0.1
0.257276 0.0771393 0.1
0.267073 0.0789625 0.1
0.276884 0.0807105 0.1
0.286708 0.0823832 0.1
0.296545 0.0839806 0.1
0.306394 0.0855025 0.1
0.316254 0.0869488 0.1
0.326125 0.0883196 0.1
0.336006 0.0896146 0.1
0.345896 0.0908339 0.1
0.355796 0.0919773 0.1
0.365704 0.0930447 0.1
0.375621 0.0940362 0.1
0.385544 0.0949517 0.1
0.395474 0.095791 0.1
0.40541 0.0965542 0.1
0.415352 0.0972412 0.1
0.425299 0.097852 0.1
0.43525 0.0983865 0.1
0.445205 0.0988447 0.1
0.455164 0.0992266 0.1
0.465125 0.0995321 0.1
0.475088 0.0997613 0.1
0.485052 0.0999141 0.1
0.495017 0.0999904 0.1
0.504983 0.0999904 0.1
0.514948 0.0999141 0.1
0.524912 0.0997613 0.1
0.534875 0.0995321 0.1
0.544836 0.0992266 0.1
0.554795 0.0988447 0.1
0.56475 0.0983865 0.1
0.574701 0.097852 0.1
0.584648 0.0972412 0.1
0.59459 0.0965542 0.1
0.604526 0.095791 0.1
0.614456 0.0949517 0.1
0.624379 0.0940362 0.1
0.634296 0.0930447 0.1
0.644204 0.0919773 0.1
0.654104 0.0908339 0.1
0.663994 0.0896146 0.1
0.673875 0.0883196 0.1
0.683746 0.0869488 0.1
0.693606 0.0855025 0.1
0.703455 0.0839806 0.1
0.713292 0.0823832 0.1
0.723116 0.0807105 0.1
0.732927 0.0789625 0.1
0.742724 0.0771393 0.1
0.752508 0.0752411 0.1
0.762276 0.073268 0.1
0.772029 0.07122 0.1
0.781766 0.0690974 0.1
0.791486 0.0669001 0.1
0.801189 0.0646285 0.1
0.810875 0.0622825 0.1
0.820542 0.0598623 0.1
0.83019 0.0573681 0.1
0.839819 0.0547999 0.1
0.849428 0.0521581 0.1
0.859017 0.0494427 0.1
0.868584 0.0466538 0.1
0.87813 0.0437917 0.1
0.887653 0.0408565 0.1
0.897154 0.0378484 0.1
0.906631 0.0347675 0.1
0.916085 0.0316141 0.1
0.925514 0.0283883 0.1
0.934918 0.0250903 0.1
0.944297 0.0217203 0.1
0.953649 0.0182786 0.1
0.962975 0.0147652 0.1
0.972273 0.0111804 0.1
0.981544 0.00752451 0.1
0.990786 0.00379763 0.1
1.01 0 0.1
1.02 0 0.1
1.03 0 0.1
1.04 0 0.1
1.05 0 0.1
1.06 0 0.1
1.07 0 0.1
1.08 0 0.1
1.09 0 0.1
1.1 0 0.1
1.11 0 0.1
1.12 0 0.1
1.13 0 0.1
1.14 0 0.1
1.15 0 0.1
1.16 0 0.1
1.17 0 0.1
1.18 0 0.1
1.19 0 0.1
1.2 0 0.1
1.21 0 0.1
1.22 0 0.1
1.23 0 0.1
1.24 0 0.1
1.25 0 0.1
1.26 0 0.1
1.27 0 0.1
1.28 0 0.1
1.29 0 0.1
1.3 0 0.1
1.31 0 0.1
1.32 0 0.1
1.33 0 0.1
1.34 0 0.1
1.35 0 0.1
1.36 0 0.1
1.37 0 0.1
1.38 0 0.1
1.39 0 0.1
1.4 0 0.1
1.41 0 0.1
1.42 0 0.1
1.43 0 0.1
1.44 0 0.1
1.45 0 0.1
1.46 0 0.1
1.47 0 0.1
1.48 0 0.1
1.49 0 0.1
1.5 0 0.1
1.51 0 0.1
1.52 0 0.1
1.53 0 0.1
1.54 0 0.1
1.55 0 0.1
1.56 0 0.1
1.57 0 0.1
1.58 0 0.1
1.59 0 0.1
1.6 0 0.1
1.61 0 0.1
1.62 0 0.1
1.63 0 0.1
1.64 0 0.1
1.65 0 0.1
1.66 0 0.1
1.67 0 0.1
1.68 0 0.1
1.69 0 0.1
1.7 0 0.1
1.71 0 0.1
1.72 0 0.1
1.73 0 0.1
1.74 0 0.1
1.75 0 0.1
1.76 0 0.1
1.77 0 0.1
1.78 0 0.1
1.79 0 0.1
1.8 0 0.1
1.81 0 0.1
1.82 0 0.1
1.83 0 0.1
1.84 0 0.1
1.85 0 0.1
1.86 0 0.1
1.87 0 0.1
1.88 0 0.1
[...]
CELL_DATA 7425
SCALARS rho float
LOOKUP_TABLE default
0.593659
0.805324
0.821441
0.829144
0.800865
0.820989
0.822403
0.816311
0.815333
0.740953
0.864378
0.810696
0.8161
0.829
0.80501
0.819138
0.80009
0.815561
0.80371
0.768514
0.832837
0.822552
0.727271
0.829686
0.804122
0.708919
0.832739
0.850654
0.800493
0.808861
0.820894
0.723596
0.80386
0.657432
0.532349
0.829653
0.803719
0.816292
0.811799
0.82954
0.72086
0.710674
0.791673
0.690728
0.594378
0.749878
0.801228
0.816041
0.677204
0.717771
0.746275
0.805445
0.81284
0.800427
0.704967
0.691314
0.82469
0.801092
0.740834
0.704176
0.716564
0.807994
0.815536
0.800664
0.799119
0.819568
0.590622
0.775211
0.686676
0.808818
0.80525
0.803336
0.884078
0.821629
0.811355
0.81539
0.805346
0.800744
0.815538
0.757988
0.818027
0.807577
0.812541
0.789627
0.837112
0.802353
0.58061
0.831431
0.551993
0.849679
0.694745
0.73216
0.847525
0.803408
0.819366
0.761582
0.837323
0.78881
0.827328
0.803871
0.810124
0.738447
0.803498
0.829778
0.602627
0.811699
0.826021
0.711591
0.817107
0.800576
0.818689
0.785636
0.790655
0.8128
0.791414
0.787165
0.832784
0.803232
0.692932
0.662291
0.805339
0.779125
0.815306
0.791144
0.860008
0.840745
0.808048
0.805872
0.665267
0.517296
0.816597
0.660404
0.527488
0.870596
0.678366
0.800959
0.811589
0.726632
0.588248
0.729469
0.727915
0.810749
0.811939
0.701913
0.80421
0.780534
0.571496
0.790794
0.78299
0.829413
0.818287
0.69412
0.804201
0.744485
0.701201
0.803508
0.811091
0.831991
0.799267
0.662201
0.803103
0.692175
0.802374
0.831341
0.822304
0.80264
0.8154
0.786583
0.806674
0.802006
0.82159
0.805897
0.793402
0.800535
0.800937
0.74396
0.805007
0.76205
0.603
0.691467
0.801027
0.794659
0.880511
0.833283
0.684471
0.824702
0.800044
0.828793
0.801178
0.815661
0.815017
0.803433
0.807346
0.700763
0.817118
0.821097
0.771351
0.799034
0.863483
0.808185
0.8128
0.813519
0.617949
0.840788
0.579317
0.543799
0.600937
0.614763
0.829385
0.880062
0.807852
0.798995
0.842486
0.815343
0.818658
0.822604
0.817294
0.641956
0.589655
0.815952
0.55543
0.601239
0.698104
0.813753
0.816219
0.81539
0.834623
0.815329
0.866927
0.704423
0.836405
0.719469
0.805585
0.804169
0.802449
0.717251
0.725322
0.623578
0.697185
0.864621
0.878561
0.808363
0.808039
0.800825
0.812605
0.721849
0.823424
0.801649
0.827363
0.795217
0.812171
0.719845
0.81522
0.825487
0.743867
0.536902
0.80099
0.736241
0.844578
0.816474
0.724823
0.817636
0.816963
0.850963
0.811738
0.805482
0.803459
0.827352
0.861806
0.806872
0.623221
0.850071
0.813698
0.805917
0.82917
0.838555
0.815275
0.823183
0.794163
0.817178
0.869426
0.850968
0.828573
0.838184
0.803214
0.819146
0.803323
0.760007
0.70715
0.58702
0.692842
0.804283
0.81525
0.818034
0.857101
0.780638
0.649624
0.828743
0.533739
0.776153
0.802244
0.650311
0.586864
0.643001
0.817295
0.815536
0.815341
0.814934
0.828386
0.775291
0.811852
0.802931
0.815327
0.842075
0.870083
0.83503
0.80343
0.693087
0.79766
0.835504
0.695099
0.80013
0.802455
0.865709
0.81909
0.598223
0.815649
0.744549
0.854635
0.735532
0.812363
0.908114
0.801309
0.79671
0.663053
0.639658
0.706864
0.783072
0.828196
0.817046
0.815923
0.885853
0.860252
0.800969
0.800737
0.826559
0.742697
0.803071
0.880177
0.801583
0.806271
0.802053
0.802805
0.815248
0.817784
0.818391
0.64247
0.831242
0.655994
0.809438
0.645532
0.804523
0.802577
0.841479
0.733729
0.816816
0.810597
0.818968
0.80072
0.802727
0.811821
0.705265
0.824991
0.815395
0.81521
0.800919
0.737373
0.565955
0.806746
0.813354
0.803384
0.815302
0.795857
0.558317
0.847461
0.815581
0.804089
0.787496
0.815559
0.805723
0.804135
0.818271
0.80784
0.824286
0.770228
0.814138
0.808168
0.568827
0.804545
0.644009
0.839889
0.640343
0.816784
0.878712
0.606109
0.819048
0.751477
0.804718
0.874123
0.545674
0.824867
0.824053
0.803723
0.827433
0.812043
0.825215
0.83221
0.826524
0.743609
0.829168
0.761722
0.811329
0.794824
0.795399
0.760906
0.805988
0.802246
0.816404
0.755937
0.805621
0.609765
0.619372
0.696224
0.815106
0.845458
0.865826
0.831367
0.800018
0.81505
0.805878
0.820241
0.684104
0.80215
0.745149
0.825355
0.816838
0.807024
0.706276
0.730317
0.542713
0.610207
0.802517
0.615814
0.794635
0.765916
0.771608
0.724962
0.764749
0.769959
0.811697
0.817049
0.821436
0.813815
0.716041
0.616897
0.840387
0.808954
0.78407
0.811423
0.803319
0.838007
0.724541
0.856409
0.764307
0.733827
0.767163
0.813595
0.553818
0.80021
0.842967
0.814432
0.816006
0.811943
0.800635
0.782804
0.836937
0.803307
0.844301
0.722905
0.702722
0.801263
0.796932
0.823807
0.712884
0.8492
0.801927
0.818074
0.800075
0.780175
0.809786
0.599836
0.681042
0.636401
0.815129
0.805332
0.828001
0.751439
0.810958
0.816927
0.82224
0.800398
0.734407
0.799016
0.81589
0.803385
0.710986
0.815834
0.820747
0.841271
0.813121
0.827044
0.863185
0.858255
0.747357
0.608488
0.839184
0.806867
0.844478
0.8164
0.824019
0.815778
0.816023
0.663535
0.806843
0.811174
0.81524
0.793589
0.812083
0.806117
0.863057
0.80009
0.815157
0.816845
0.872808
0.602759
0.815713
0.844328
0.884001
0.53911
0.818425
0.831203
0.796658
0.815215
0.796714
0.868531
0.813811
0.83291
0.814338
0.624016
0.802799
0.804441
0.698087
0.854133
0.759529
0.802351
0.816159
0.815038
0.862188
0.79587
0.834929
0.836206
0.786678
0.826269
0.844111
0.801146
0.811952
0.808407
0.80563
0.816756
0.802854
0.846456
0.769885
0.810154
0.803581
0.816756
0.72673
0.815296
0.82029
0.754767
0.815829
0.818034
0.829076
0.826813
0.802015
0.801656
0.851519
0.768028
0.826865
0.845468
0.804849
0.518742
0.815253
0.829913
0.853382
0.814712
0.803279
0.809347
0.856048
0.780466
0.802846
0.80241
0.815333
0.732724
0.803766
0.831117
0.809709
0.79555
0.795722
0.844522
0.80693
0.846387
0.802185
0.825989
0.814997
0.804488
0.842966
0.815221
0.685431
0.8207
0.807438
0.815069
0.906613
0.801726
0.817677
0.801339
0.801431
0.818242
0.801524
0.803702
0.783775
0.747311
0.808634
0.815303
0.7603
0.793596
0.824774
0.813393
0.824056
0.807222
0.827472
0.876078
0.832226
0.589282
0.711545
0.842121
0.819273
0.845399
0.816855
0.851217
0.808798
0.813915
0.800666
0.839773
0.86197
0.853951
0.735068
0.816282
0.823918
0.743299
0.818657
0.776697
0.801158
0.736319
0.81811
0.83244
0.824003
0.864521
0.816367
0.815595
0.81235
0.816752
0.837108
0.812599
0.800016
0.810601
0.741049
0.813714
0.774407
0.834249
0.814262
0.642764
0.778605
0.81249
0.800494
0.821711
0.803878
0.816785
0.819285
0.805514
0.821271
0.804434
0.8074
0.607082
0.848303
0.826831
0.82838
0.816381
0.803449
0.704835
0.808218
0.908299
0.815749
0.802551
0.815128
0.783237
0.808841
0.815458
0.82312
0.815072
0.815535
0.818281
0.685302
0.780076
0.767262
0.814991
0.806283
0.802534
0.626042
0.807239
0.80395
0.712179
0.838596
0.819185
0.803239
0.808794
0.800542
0.819205
0.815527
0.815589
0.815297
0.712405
0.833113
0.800767
0.808982
0.844276
0.819031
0.818312
0.801419
0.753923
0.825493
0.789593
0.823248
0.790178
0.807284
0.822799
0.738227
0.819197
0.663175
0.872916
0.707609
0.846296
0.802917
0.875928
0.794658
0.802421
0.822527
0.83765
0.839485
0.827071
0.821714
0.816751
0.803102
0.80463
0.809023
0.731572
0.828312
0.800388
0.718223
0.831962
0.690306
0.801492
0.862912
0.805951
0.709239
0.79845
0.816284
0.6993
0.785796
0.821264
0.833196
0.809123
0.619303
0.734034
0.812864
0.802868
0.815332
0.801923
0.739675
0.81618
0.817791
0.814892
0.777226
0.803465
0.804845
0.805204
0.566504
0.815133
0.835121
0.589309
0.817274
0.818154
0.816836
0.820303
0.816572
0.826262
0.800571
0.795587
0.770935
0.823851
0.830634
0.826052
0.836922
0.767299
0.811246
0.730268
0.773253
0.810219
0.822916
0.81557
0.801231
0.860606
0.815331
0.802438
0.811866
0.818115
0.817291
0.83808
0.816652
0.815177
0.81234
0.81604
0.801699
0.82282
0.804113
0.824616
0.815739
0.584832
0.815779
0.83596
0.860362
0.839389
0.507573
0.818815
0.806191
0.509907
0.676191
0.656146
0.83567
0.809578
0.812017
0.815119
0.803316
0.818763
0.811922
0.543564
0.693547
0.819075
0.806944
0.817678
0.803745
0.810756
0.813249
0.82204
0.800646
0.700141
0.858415
0.803268
0.81516
0.815837
0.759844
0.502832
0.834423
0.814577
0.74121
0.802821
0.807966
0.603191
0.82871
0.816866
0.829373
0.820707
0.827696
0.805026
0.725757
0.647454
0.568173
0.827031
0.810149
0.783336
0.815336
0.782061
0.819853
0.874103
0.764374
0.823434
0.815686
0.827515
0.884311
0.816588
0.814114
0.803653
0.814236
0.696925
0.829848
0.801007
0.811857
0.802673
0.785032
0.855309
0.82383
0.841613
0.823349
0.75719
0.75737
0.804825
0.819992
0.803216
0.805546
0.803013
0.77804
0.816802
0.763785
0.822683
0.665745
0.816152
0.803343
0.734259
0.824561
0.819711
0.742316
0.801569
0.759511
0.883966
0.800966
0.815268
0.764985
0.801605
0.816448
0.804208
0.595614
0.822052
0.800333
0.803456
0.816679
0.827241
0.759549
0.806968
0.84357
0.828549
0.814992
0.837306
0.683961
0.703159
0.815332
0.746443
0.824023
0.773276
0.815257
0.802871
0.812007
0.754166
0.794702
0.766778
0.812061
0.803269
0.635145
0.779803
0.799546
0.851202
0.816535
0.83028
0.537409
0.825864
0.78611
0.859812
0.801211
0.818988
0.801777
0.787703
0.800116
0.827313
0.836941
0.822861
0.819076
0.702893
0.776093
0.817243
0.805677
0.81235
0.804165
0.699594
0.794593
0.804427
0.812118
0.828536
0.852216
0.833406
0.815736
0.800838
0.805424
0.803071
0.78075
0.616656
0.802404
0.73533
0.666039
0.824513
0.800139
0.777285
0.801286
0.756305
0.786048
0.813888
0.823488
0.805151
0.818027
0.819027
0.822006
0.815672
0.810108
0.714826
0.702526
0.644743
0.830891
0.87047
0.816761
0.842661
0.849034
0.864626
0.740299
0.818364
0.863959
0.812038
0.815309
0.817832
0.736076
0.814498
0.808244
0.807689
0.528213
0.815344
0.762936
0.815457
0.814254
0.803766
0.700739
0.815489
0.615572
0.826124
0.803442
0.823556
0.856292
0.803679
0.795893
0.822776
0.813785
0.80653
0.763934
0.523721
0.822719
0.803423
0.830735
0.827449
0.804213
0.807357
0.835792
0.724383
0.515853
0.886948
0.802494
0.817763
0.804603
0.706389
0.800013
0.801353
0.817178
0.740774
0.650365
0.883935
0.717348
0.837998
0.814244
0.834415
0.843981
0.794381
0.805021
0.815807
0.853781
0.740662
0.871508
0.816216
0.56894
0.803944
0.748143
0.854073
0.762993
0.804489
0.804202
0.800878
0.80221
0.811117
0.815328
0.85758
0.807411
0.803008
0.801509
0.801259
0.814671
0.818881
0.802792
0.814917
0.850431
0.803214
0.785374
0.802508
0.841305
0.730836
0.815872
0.816014
0.672368
0.71631
0.806
0.824732
0.805221
0.524159
0.858683
0.815383
0.83468
0.805605
0.803502
0.801899
0.788303
0.59199
0.804713
0.818149
0.83703
0.822422
0.815341
0.800299
0.750326
0.802006
0.768763
0.788327
0.80068
0.791585
0.751061
0.802013
0.81287
0.812609
0.833496
0.85111
0.561824
0.843255
0.815281
0.821277
0.803134
0.823164
0.813513
0.89522
0.80181
0.86988
0.806086
0.762462
0.863021
0.802576
0.800515
0.825828
0.664283
0.649233
0.803619
0.804155
0.687324
0.658131
0.800169
0.825585
0.815389
0.824377
0.736396
0.818741
0.815171
0.827822
0.818742
0.812321
0.815302
0.756775
0.805287
0.817719
0.813767
0.679581
0.57284
0.815339
0.653743
0.724478
0.561902
0.842734
0.801394
0.540857
0.60592
0.828814
0.908532
0.820085
0.656249
0.816323
0.788344
0.80288
0.787319
0.822305
0.812004
0.789065
0.822831
0.803069
0.594153
0.819777
0.768941
0.817934
0.695656
0.824011
0.791612
0.816136
0.801459
0.666654
0.844612
0.808131
0.808097
0.508958
0.818836
0.801569
0.854429
0.708174
0.819079
0.601093
0.725223
0.802535
0.798458
0.73776
0.719631
0.712264
0.521673
0.616354
0.801454
0.532045
0.824388
0.544813
0.759313
0.67815
0.620951
0.553556
0.747736
0.803218
0.710849
0.823127
0.801809
0.803924
0.76328
0.890341
0.800456
0.826201
0.803749
0.815206
0.708912
0.808898
0.739154
0.82372
0.886749
0.834946
0.7503
0.824554
0.772619
0.880613
0.804463
0.760737
0.851883
0.778905
0.800196
0.80685
0.760335
0.748783
0.67999
0.805271
0.803173
0.819794
0.83498
0.61578
0.809465
0.5484
0.672116
0.628782
0.820063
0.82287
0.811205
0.80424
0.620092
0.873246
0.802842
0.803077
0.864522
0.81486
0.773542
0.814596
0.802597
0.81986
0.803254
0.719808
0.80443
0.665442
0.8003
0.805981
0.80203
0.642958
0.813181
0.81184
0.726262
0.819227
0.557628
0.582917
0.804452
0.699612
0.728461
0.578035
0.727637
0.815862
0.69973
0.774229
0.713635
0.814228
0.673883
0.764178
0.807313
0.812736
0.660385
0.802329
0.895759
0.797314
0.818806
0.596132
0.697276
0.803023
0.815338
0.816184
0.852712
0.814959
0.804649
0.804047
0.803561
0.717191
0.715061
0.62078
0.773893
0.548793
0.721597
0.812118
0.816529
0.807536
0.800691
0.592925
0.811241
0.804013
0.562653
0.554537
0.748854
0.803822
0.808073
0.556726
0.799069
0.576292
0.72671
0.613186
0.814558
0.803357
0.602824
0.613294
0.86881
0.811028
0.767459
0.721925
0.631689
0.659093
0.703566
0.818004
0.761825
0.765287
0.628825
0.756379
0.811454
0.817443
0.814863
0.817556
0.868122
0.757439
0.820824
0.803755
0.852384
0.815292
0.802986
0.815391
0.71966
0.814932
0.814008
0.817184
0.813203
0.817871
0.803461
0.819846
0.812469
0.811852
0.819204
0.800411
0.818551
0.82086
0.671155
0.820527
0.869342
0.820099
0.793523
0.649856
0.859648
0.820708
0.826607
0.800896
0.813636
0.757476
0.85371
0.58439
0.732149
0.810241
0.817735
0.804142
0.803579
0.833592
0.806316
0.806196
0.81736
0.782494
0.83996
0.843243
0.816931
0.668043
0.630011
0.817826
0.818591
0.790606
0.850839
0.848417
0.812406
0.815624
0.779835
0.81622
0.819765
0.816257
0.820693
0.814566
0.817883
0.852226
0.818021
0.816523
0.819524
0.819711
0.785778
0.816127
0.805422
0.805719
0.805864
0.820495
0.81388
0.790256
0.753658
0.814936
0.806596
0.810983
0.806703
0.858724
0.804485
0.816115
0.815054
0.806296
0.689333
0.80418
0.815109
0.816493
0.81072
0.815162
0.81556
0.815357
0.810533
0.865271
0.515746
0.8152
0.84294
0.814997
0.803393
0.809139
0.817113
0.841059
0.80177
0.802749
0.814052
0.688784
0.815225
0.809393
0.808824
0.814848
0.81523
0.815351
0.815637
0.525519
0.81272
0.722063
0.886523
0.822807
0.73203
0.686292
0.817449
0.804574
0.81997
0.650447
0.802392
0.815614
0.65184
0.801206
0.804564
0.817027
0.807776
0.857836
0.810196
0.611914
0.801895
0.775414
0.811656
0.889736
0.804992
0.815944
0.82041
0.833407
0.815669
0.824189
0.837736
0.639221
0.804462
0.659611
0.815963
0.815872
0.708517
0.815767
0.806759
0.709883
0.816733
0.707541
0.862106
0.784879
0.816461
0.815279
0.815673
0.673038
0.815887
0.637085
0.801258
0.793054
0.824057
0.817278
0.719618
0.766907
0.831632
0.815029
0.822639
0.823705
0.8157
0.827033
0.800752
0.558695
0.754492
0.76153
0.729603
0.83903
0.824011
0.835512
0.778671
0.802977
0.815378
0.815331
0.815329
0.775978
0.570015
0.803393
0.542238
0.809862
0.825914
0.801031
0.804001
0.814585
0.806435
0.784709
0.733699
0.815655
0.860104
0.815351
0.800537
0.735746
0.810884
0.789474
0.834911
0.522152
0.796458
0.807976
0.800214
0.697595
0.815158
0.812617
0.859312
0.57496
0.807743
0.803449
0.815068
0.622882
0.815405
0.803511
0.803613
0.803233
0.815499
0.815581
0.818098
0.815383
0.714105
0.804835
0.803379
0.815351
0.896739
0.815453
0.776088
0.842603
0.799486
0.803285
0.606486
0.815259
0.80354
0.827274
0.802703
0.867182
0.816502
0.85535
0.801686
0.822458
0.779003
0.565328
0.75571
0.796255
0.806009
0.814305
0.815985
0.562392
0.86268
0.86012
0.771084
0.758295
0.738124
0.81368
0.850107
0.815289
0.814744
0.815323
0.804542
0.725605
0.803741
0.800393
0.764203
0.825961
0.824758
0.862729
0.817666
0.81534
0.571997
0.809227
0.815302
0.801807
0.775884
0.818504
0.803246
0.815137
0.828539
0.798968
0.804591
0.802096
0.81693
0.840466
0.803689
0.800376
0.802947
0.765926
0.821724
0.573575
0.869202
0.803979
0.553006
0.804338
0.804798
0.820934
0.619235
0.611498
0.802679
0.805025
0.802077
0.861633
0.780638
0.816474
0.80317
0.868413
0.804995
0.804717
0.827636
0.817792
0.821617
0.823058
0.822141
0.868307
0.731843
0.853163
0.819138
0.657607
0.803579
0.803436
0.803901
0.822931
0.825215
0.80493
0.802262
0.801287
0.824438
0.804155
0.803921
0.800965
0.826095
0.804231
0.802614
0.806393
0.829449
0.801994
0.802646
0.825996
0.80076
0.817447
0.655268
0.828044
0.850929
0.805736
0.821439
0.803558
0.830344
0.838899
0.803603
0.823262
0.801499
0.808314
0.790085
0.802724
0.804135
0.806661
0.806801
0.805774
0.820422
0.816856
0.811704
0.832941
0.803529
0.802601
0.801155
0.789544
0.83522
0.803499
0.821174
0.81728
0.807905
0.806168
0.803092
0.840226
0.867285
0.800879
0.682271
0.802002
0.843465
0.818577
0.806557
0.804728
0.820637
0.845792
0.623632
0.830428
0.796458
0.852623
0.820609
0.812586
0.81415
0.809537
0.804217
0.813486
0.809303
0.596608
0.849196
0.79537
0.816336
0.855696
0.821152
0.765202
0.809505
0.816582
0.817395
0.803313
0.665576
0.810668
0.864136
0.804216
0.801621
0.777805
0.872022
0.801276
0.877828
0.808225
0.819114
0.822436
0.80371
0.804822
0.814912
0.817903
0.804884
0.815546
0.818101
0.882082
0.82165
0.809653
0.801546
0.829856
0.81087
0.840595
0.809821
0.807262
0.813603
0.818539
0.831266
0.815822
0.824192
0.833652
0.815612
0.706332
0.698423
0.815333
0.819676
0.805281
0.815349
0.530358
0.855835
0.800893
0.806533
0.816007
0.815669
0.804301
0.814729
0.801658
0.802163
0.809221
0.816322
0.75984
0.786381
0.824676
0.844583
0.835959
0.801517
0.806968
0.803562
0.813358
0.806649
0.800812
0.800972
0.80188
0.812359
0.798351
0.804127
0.836933
0.832956
0.734302
0.690534
0.808086
0.706512
0.800895
0.59381
0.804788
0.807777
0.804361
0.820077
0.83542
0.816098
0.815193
0.81068
0.804232
0.882266
0.81827
0.806269
0.773535
0.603767
0.810588
0.808005
0.770811
0.816537
0.816055
0.792118
0.801183
0.80436
0.64934
0.831708
0.803724
0.783896
0.780418
0.853747
0.810322
0.804241
0.804065
0.811635
0.811564
0.532964
0.802623
0.840858
0.8161
0.799152
0.596687
0.815635
0.816223
0.815324
0.835206
0.816087
0.804463
0.823671
0.806786
0.581592
0.809216
0.740441
0.79918
0.815843
0.724258
0.817012
0.847934
0.832597
0.668276
0.891513
0.786454
0.779802
0.797398
0.780057
0.809651
0.851972
0.809304
0.803388
0.815768
0.811002
0.783591
0.786775
0.816014
0.809723
0.835854
0.822973
0.836718
0.80326
0.800949
0.815371
0.857693
0.818154
0.819595
0.815596
0.612069
0.796116
0.825493
0.830574
0.866846
0.814972
0.82003
0.52309
0.811905
0.801744
0.81482
0.816301
0.84873
0.815348
0.811457
0.882202
0.766485
0.813297
0.815477
0.811133
0.805594
0.816363
0.659684
0.800954
0.850718
0.834493
0.811915
0.815478
0.81561
0.809906
0.705532
0.814445
0.80157
0.839949
0.820341
0.813122
0.832672
0.794788
0.813532
0.819697
0.810292
0.821149
0.748047
0.856682
0.820835
0.815239
0.815357
0.815023
0.817655
0.819056
0.81508
0.812802
0.842352
0.820475
0.801466
0.826205
0.828441
0.817474
0.815292
0.8016
0.802332
0.815364
0.820899
0.830382
0.815136
0.818375
0.801227
0.812007
0.815181
0.815094
0.802735
0.816767
0.815556
0.803752
0.815213
0.837049
0.800439
0.811509
0.823058
0.568095
0.816332
0.820058
0.817308
0.816967
0.823713
0.830274
0.817621
0.820716
0.704517
0.815377
0.80225
0.817651
0.820379
0.836084
0.823347
0.816912
0.830944
0.826625
0.81297
0.819596
0.821056
0.806227
0.815445
0.817638
0.820387
0.833623
0.814896
0.817725
0.802938
0.815289
0.815336
0.539121
0.635712
0.814771
0.823228
0.802842
0.824136
0.817924
0.84309
0.711028
0.81593
0.733961
0.818985
0.812405
0.815442
0.830739
0.81585
0.806423
0.815269
0.831392
0.841215
0.81505
0.721925
0.820141
0.818014
0.80107
0.803175
0.817364
0.856949
0.814953
0.815615
0.850825
0.830293
0.844337
0.587302
0.830655
0.816099
0.812957
0.81934
0.852601
0.819687
0.721005
0.800825
0.832703
0.801213
0.800948
0.806206
0.750059
0.815634
0.816435
0.729437
0.816431
0.828268
0.815534
0.816121
0.800558
0.820255
0.815329
0.825032
0.80904
0.810047
0.816913
0.692537
0.820943
0.816181
0.815325
0.64624
0.715578
0.604315
0.824186
0.553587
0.855964
0.72981
0.844001
0.81478
0.728854
0.822721
0.817831
0.744845
0.808431
0.820251
0.794671
0.818452
0.81788
0.81781
0.815325
0.810023
0.803892
0.739649
0.837846
0.821936
0.818548
0.800423
0.816232
0.803543
0.818016
0.815645
0.856588
0.819664
0.520703
0.815258
0.820665
0.820547
0.778973
0.81653
0.807038
0.819337
0.847306
0.602174
0.810484
0.800685
0.817365
0.819534
0.819593
0.814734
0.820484
0.815825
0.816574
0.803282
0.816257
0.847357
0.81601
0.7926
0.813649
0.627249
0.71682
0.815376
0.818942
0.803542
0.824059
0.734951
0.803262
0.803272
0.822033
0.692218
0.819523
0.800755
0.817461
0.867268
0.786295
0.823716
0.819888
0.824292
0.816172
0.77089
0.80277
0.815753
0.902797
0.82811
0.818413
0.833187
0.811865
0.87096
0.716764
0.690121
0.854112
0.802874
0.691188
0.852021