# vtk DataFile Version 1.0
unstructured grid
ascii
DATASET UNSTRUCTURED_GRID
points 7812 float
-1 0 0
-1 1 0
2 0 0
2 1 0
0 0 0
1 0 0
-1 1 0.1
-1 0 0.1
0 0 0.1
1 0 0.1
2 0 0.1
2 1 0.1
-0.99 0 0
-0.98 0 0
-0.97 0 0
-0.96 0 0
-0.95 0 0
-0.94 0 0
-0.93 0 0
-0.92 0 0
-0.91 0 0
-0.9 0 0
-0.89 0 0
-0.88 0 0
-0.87 0 0
-0.86 0 0
-0.85 0 0
-0.84 0 0
-0.83 0 0
-0.82 0 0
-0.81 0 0
-0.8 0 0
-0.79 0 0
-0.78 0 0
-0.77 0 0
-0.76 0 0
-0.75 0 0
-0.74 0 0
-0.73 0 0
-0.72 0 0
-0.71 0 0
-0.7 0 0
-0.69 0 0
-0.68 0 0
-0.67 0 0
-0.66 0 0
-0.65 0 0
-0.64 0 0
-0.63 0 0
-0.62 0 0
-0.61 0 0
-0.6 0 0
-0.59 0 0
-0.58 0 0
-0.57 0 0
-0.56 0 0
-0.55 0 0
-0.54 0 0
-0.53 0 0
-0.52 0 0
-0.51 0 0
-0.5 0 0
-0.49 0 0
-0.48 0 0
-0.47 0 0
-0.46 0 0
-0.45 0 0
-0.44 0 0
-0.43 0 0
-0.42 0 0
-0.41 0 0
-0.4 0 0
-0.39 0 0
-0.38 0 0
-0.37 0 0
-0.36 0 0
-0.35 0 0
-0.34 0 0
-0.33 0 0
-0.32 0 0
-0.31 0 0
-0.3 0 0
-0.29 0 0
-0.28 0 0
-0.27 0 0
-0.26 0 0
-0.25 0 0
-0.24 0 0
-0.23 0 0
-0.22 0 0
-0.21 0 0
-0.2 0 0
-0.19 0 0
-0.18 0 0
-0.17 0 0
-0.16 0 0
-0.15 0 0
-0.14 0 0
-0.13 0 0
-0.12 0 0
-0.11 0 0
-0.1 0 0
-0.09 0 0
-0.08 0 0
-0.07 0 0
-0.06 0 0
-0.05 0 0
-0.04 0 0
-0.03 0 0
-0.02 0 0
-0.01 0 0
1.01 0 0
1.02 0 0
1.03 0 0
1.04 0 0
1.05 0 0
1.06 0 0
1.07 0 0
1.08 0 0
1.09 0 0
1.1 0 0
1.11 0 0
1.12 0 0
1.13 0 0
1.14 0 0
1.15 0 0
1.16 0 0
1.17 0 0
1.18 0 0
1.19 0 0
1.2 0 0
1.21 0 0
1.22 0 0
1.23 0 0
1.24 0 0
1.25 0 0
1.26 0 0
1.27 0 0
1.28 0 0
1.29 0 0
1.3 0 0
1.31 0 0
1.32 0 0
1.33 0 0
1.34 0 0
1.35 0 0
1.36 0 0
1.37 0 0
1.38 0 0
1.39 0 0
1.4 0 0
1.41 0 0
1.42 0 0
1.43 0 0
1.44 0 0
1.45 0 0
1.46 0 0
1.47 0 0
1.48 0 0
1.49 0 0
1.5 0 0
1.51 0 0
1.52 0 0
1.53 0 0
1.54 0 0
1.55 0 0
1.56 0 0
1.57 0 0
1.58 0 0
1.59 0 0
1.6 0 0
1.61 0 0
1.62 0 0
1.63 0 0
1.64 0 0
1.65 0 0
1.66 0 0
1.67 0 0
1.68 0 0
1.69 0 0
1.7 0 0
1.71 0 0
1.72 0 0
1.73 0 0
1.74 0 0
1.75 0 0
1.76 0 0
1.77 0 0
1.78 0 0
1.79 0 0
1.8 0 0
1.81 0 0
1.82 0 0
1.83 0 0
1.84 0 0
1.85 0 0
1.86 0 0
1.87 0 0
1.88 0 0
1.89 0 0
1.9 0 0
1.91 0 0
1.92 0 0
1.93 0 0
1.94 0 0
1.95 0 0
1.96 0 0
1.97 0 0
1.98 0 0
1.99 0 0
2 0.010289 0
2 0.0215307 0
2 0.0338135 0
2 0.0472336 0
2 0.0618965 0
2 0.0779171 0
2 0.0954213 0
2 0.114546 0
2 0.135442 0
2 0.158274 0
2 0.183219 0
2 0.210474 0
2 0.240253 0
2 0.27279 0
2 0.308339 0
2 0.347181 0
2 0.389619 0
2 0.435987 0
2 0.486649 0
2 0.542002 0
2 0.602481 0
2 0.66856 0
2 0.740758 0
2 0.819642 0
2 0.90583 0
1.9 1 0
1.8 1 0
1.7 1 0
1.6 1 0
1.5 1 0
1.4 1 0
1.3 1 0
1.2 1 0
1.1 1 0
1 1 0
0.9 1 0
0.8 1 0
0.7 1 0
0.6 1 0
0.5 1 0
0.4 1 0
0.3 1 0
0.2 1 0
0.1 1 0
3.69793e-12 1 0
-0.1 1 0
-0.2 1 0
-0.3 1 0
-0.4 1 0
-0.5 1 0
-0.6 1 0
-0.7 1 0
-0.8 1 0
-0.9 1 0
-1 0.90583 0
-1 0.819642 0
-1 0.740758 0
-1 0.66856 0
-1 0.602481 0
-1 0.542002 0
-1 0.486649 0
-1 0.435987 0
-1 0.389619 0
-1 0.347181 0
-1 0.308339 0
-1 0.27279 0
-1 0.240253 0
-1 0.210474 0
-1 0.183219 0
-1 0.158274 0
-1 0.135442 0
-1 0.114546 0
-1 0.0954213 0
-1 0.0779171 0
-1 0.0618965 0
-1 0.0472336 0
-1 0.0338135 0
-1 0.0215307 0
-1 0.010289 0
0.00921362 0.00379763 0
0.0184561 0.00752451 0
0.0277268 0.0111804 0
0.0370253 0.0147652 0
0.0463511 0.0182786 0
0.0557034 0.0217203 0
0.0650819 0.0250903 0
0.074486 0.0283883 0
0.083915 0.0316141 0
0.0933685 0.0347675 0
0.102846 0.0378484 0
0.112347 0.0408565 0
0.12187 0.0437917 0
0.131416 0.0466538 0
0.140983 0.0494427 0
0.150572 0.0521581 0
0.160181 0.0547999 0
0.16981 0.0573681 0
0.179458 0.0598623 0
0.189125 0.0622825 0
0.198811 0.0646285 0
0.208514 0.0669001 0
0.218234 0.0690974 0
0.227971 0.07122 0
0.237724 0.073268 0
0.247493 0.0752411 0
0.257276 0.0771393 0
0.267073 0.0789625 0
0.276884 0.0807105 0
0.286708 0.0823832 0
0.296545 0.0839806 0
0.306394 0.0855025 0
0.316254 0.0869488 0
0.326125 0.0883196 0
0.336006 0.0896146 0
0.345896 0.0908339 0
0.355796 0.0919773 0
0.365704 0.0930447 0
0.375621 0.0940362 0
0.385544 0.0949517 0
0.395474 0.095791 0
0.40541 0.0965542 0
0.415352 0.0972412 0
0.425299 0.097852 0
0.43525 0.0983865 0
0.445205 0.0988447 0
0.455164 0.0992266 0
0.465125 0.0995321 0
0.475088 0.0997613 0
0.485052 0.0999141 0
0.495017 0.0999904 0
0.504983 0.0999904 0
0.514948 0.0999141 0
0.524912 0.0997613 0
0.534875 0.0995321 0
0.544836 0.0992266 0
0.554795 0.0988447 0
0.56475 0.0983865 0
0.574701 0.097852 0
0.584648 0.0972412 0
0.59459 0.0965542 0
0.604526 0.095791 0
0.614456 0.0949517 0
0.624379 0.0940362 0
0.634296 0.0930447 0
0.644204 0.0919773 0
0.654104 0.0908339 0
0.663994 0.0896146 0
0.673875 0.0883196 0
0.683746 0.0869488 0
0.693606 0.0855025 0
0.703455 0.0839806 0
0.713292 0.0823832 0
0.723116 0.0807105 0
0.732927 0.0789625 0
0.742724 0.0771393 0
0.752508 0.0752411 0
0.762276 0.073268 0
0.772029 0.07122 0
0.781766 0.0690974 0
0.791486 0.0669001 0
0.801189 0.0646285 0
0.810875 0.0622825 0
0.820542 0.0598623 0
0.83019 0.0573681 0
0.839819 0.0547999 0
0.849428 0.0521581 0
0.859017 0.0494427 0
0.868584 0.0466538 0
0.87813 0.0437917 0
0.887653 0.0408565 0
0.897154 0.0378484 0
0.906631 0.0347675 0
0.916085 0.0316141 0
0.925514 0.0283883 0
0.934918 0.0250903 0
0.944297 0.0217203 0
0.953649 0.0182786 0
0.962975 0.0147652 0
0.972273 0.0111804 0
0.981544 0.00752451 0
0.990786 0.00379763 0
-1 0.90583 0.1
-1 0.819642 0.1
-1 0.740758 0.1
-1 0.66856 0.1
-1 0.602481 0.1
-1 0.542002 0.1
-1 0.486649 0.1
-1 0.435987 0.1
-1 0.389619 0.1
-1 0.347181 0.1
-1 0.308339 0.1
-1 0.27279 0.1
-1 0.240253 0.1
-1 0.210474 0.1
-1 0.183219 0.1
-1 0.158274 0.1
-1 0.135442 0.1
-1 0.114546 0.1
-1 0.0954213 0.1
-1 0.0779171 0.1
-1 0.0618965 0.1
-1 0.0472336 0.1
-1 0.0338135 0.1
-1 0.0215307 0.1
-1 0.010289 0.1
-0.99 0 0.1
-0.98 0 0.1
-0.97 0 0.1
-0.96 0 0.1
-0.95 0 0.1
-0.94 0 0.1
-0.93 0 0.1
-0.92 0 0.1
-0.91 0 0.1
-0.9 0 0.1
-0.89 0 0.1
-0.88 0 0.1
-0.87 0 0.1
-0.86 0 0.1
-0.85 0 0.1
-0.84 0 0.1
-0.83 0 0.1
-0.82 0 0.1
-0.81 0 0.1
-0.8 0 0.1
-0.79 0 0.1
-0.78 0 0.1
-0.77 0 0.1
-0.76 0 0.1
-0.75 0 0.1
-0.74 0 0.1
-0.73 0 0.1
-0.72 0 0.1
-0.71 0 0.1
-0.7 0 0.1
-0.69 0 0.1
-0.68 0 0.1
-0.67 0 0.1
-0.66 0 0.1
-0.65 0 0.1
-0.64 0 0.1
-0.63 0 0.1
-0.62 0 0.1
-0.61 0 0.1
-0.6 0 0.1
-0.59 0 0.1
-0.58 0 0.1
-0.57 0 0.1
-0.56 0 0.1
-0.55 0 0.1
-0.54 0 0.1
-0.53 0 0.1
-0.52 0 0.1
-0.51 0 0.1
-0.5 0 0.1
-0.49 0 0.1
-0.48 0 0.1
-0.47 0 0.1
-0.46 0 0.1
-0.45 0 0.1
-0.44 0 0.1
-0.43 0 0.1
-0.42 0 0.1
-0.41 0 0.1
-0.4 0 0.1
-0.39 0 0.1
-0.38 0 0.1
-0.37 0 0.1
-0.36 0 0.1
-0.35 0 0.1
-0.34 0 0.1
-0.33 0 0.1
-0.32 0 0.1
-0.31 0 0.1
-0.3 0 0.1
-0.29 0 0.1
-0.28 0 0.1
-0.27 0 0.1
-0.26 0 0.1
-0.25 0 0.1
-0.24 0 0.1
-0.23 0 0.1
-0.22 0 0.1
-0.21 0 0.1
-0.2 0 0.1
-0.19 0 0.1
-0.18 0 0.1
-0.17 0 0.1
-0.16 0 0.1
-0.15 0 0.1
-0.14 0 0.1
-0.13 0 0.1
-0.12 0 0.1
-0.11 0 0.1
-0.1 0 0.1
-0.09 0 0.1
-0.08 0 0.1
-0.07 0 0.1
-0.06 0 0.1
-0.05 0 0.1
-0.04 0 0.1
-0.03 0 0.1
-0.02 0 0.1
-0.01 0 0.1
0.00921362 0.00379763 0.1
0.0184561 0.00752451 0.1
0.0277268 0.0111804 0.1
0.0370253 0.0147652 0.1
0.0463511 0.0182786 0.1
0.0557034 0.0217203 0.1
0.0650819 0.0250903 0.1
0.074486 0.0283883 0.1
0.083915 0.0316141 0.1
0.0933685 0.0347675 0.1
0.102846 0.0378484 0.1
0.112347 0.0408565 0.1
0.12187 0.0437917 0.1
0.131416 0.0466538 0.1
0.140983 0.0494427 0.1
0.150572 0.0521581 0.1
0.160181 0.0547999 0.1
0.16981 0.0573681 0.1
0.179458 0.0598623 0.1
0.189125 0.0622825 0.1
0.198811 0.0646285 0.1
0.208514 0.0669001 0.1
0.218234 0.0690974 0.1
0.227971 0.07122 0.1
0.237724 0.073268 0.1
0.247493 0.0752411 0.1
0.257276 0.0771393 0.1
0.267073 0.0789625 0.1
0.276884 0.0807105 0.1
0.286708 0.0823832 0.1
0.296545 0.0839806 0.1
0.306394 0.0855025 0.1
0.316254 0.0869488 0.1
0.326125 0.0883196 0.1
0.336006 0.0896146 0.1
0.345896 0.0908339 0.1
0.355796 0.0919773 0.1
0.365704 0.0930447 0.1
0.375621 0.0940362 0.1
0.385544 0.0949517 0.1
0.395474 0.095791 0.1
0.40541 0.0965542 0.1
0.415352 0.0972412 0.1
0.425299 0.097852 0.1
0.43525 0.0983865 0.1
0.445205 0.0988447 0.1
0.455164 0.0992266 0.1
0.465125 0.0995321 0.1
0.475088 0.0997613 0.1
0.485052 0.0999141 0.1
0.495017 0.0999904 0.1
0.504983 0.0999904 0.1
0.514948 0.0999141 0.1
0.524912 0.0997613 0.1
0.534875 0.0995321 0.1
0.544836 0.0992266 0.1
0.554795 0.0988447 0.1
0.56475 0.0983865 0.1
0.574701 0.097852 0.1
0.584648 0.0972412 0.1
0.59459 0.0965542 0.1
0.604526 0.095791 0.1
0.614456 0.0949517 0.1
0.624379 0.0940362 0.1
0.634296 0.0930447 0.1
0.644204 0.0919773 0.1
0.654104 0.0908339 0.1
0.663994 0.0896146 0.1
0.673875 0.0883196 0.1
0.683746 0.0869488 0.1
0.693606 0.0855025 0.1
0.703455 0.0839806 0.1
0.713292 0.0823832 0.1
0.723116 0.0807105 0.1
0.732927 0.0789625 0.1
0.742724 0.0771393 0.1
0.752508 0.0752411 0.1
0.762276 0.073268 0.1
0.772029 0.07122 0.1
0.781766 0.0690974 0.1
0.791486 0.0669001 0.1
0.801189 0.0646285 0.1
0.810875 0.0622825 0.1
0.820542 0.0598623 0.1
0.83019 0.0573681 0.1
0.839819 0.0547999 0.1
0.849428 0.0521581 0.1
0.859017 0.0494427 0.1
0.868584 0.0466538 0.1
0.87813 0.0437917 0.1
0.887653 0.0408565 0.1
0.897154 0.0378484 0.1
0.906631 0.0347675 0.1
0.916085 0.0316141 0.1
0.925514 0.0283883 0.1
0.934918 0.0250903 0.1
0.944297 0.0217203 0.1
0.953649 0.0182786 0.1
0.962975 0.0147652 0.1
0.972273 0.0111804 0.1
0.981544 0.00752451 0.1
0.990786 0.00379763 0.1
1.01 0 0.1
1.02 0 0.1
1.03 0 0.1
1.04 0 0.1
1.05 0 0.1
1.06 0 0.1
1.07 0 0.1
1.08 0 0.1
1.09 0 0.1
1.1 0 0.1
1.11 0 0.1
1.12 0 0.1
1.13 0 0.1
1.14 0 0.1
1.15 0 0.1
1.16 0 0.1
1.17 0 0.1
1.18 0 0.1
1.19 0 0.1
1.2 0 0.1
1.21 0 0.1
1.22 0 0.1
1.23 0 0.1
1.24 0 0.1
1.25 0 0.1
1.26 0 0.1
1.27 0 0.1
1.28 0 0.1
1.29 0 0.1
1.3 0 0.1
1.31 0 0.1
1.32 0 0.1
1.33 0 0.1
1.34 0 0.1
1.35 0 0.1
1.36 0 0.1
1.37 0 0.1
1.38 0 0.1
1.39 0 0.1
1.4 0 0.1
1.41 0 0.1
1.42 0 0.1
1.43 0 0.1
1.44 0 0.1
1.45 0 0.1
1.46 0 0.1
1.47 0 0.1
1.48 0 0.1
1.49 0 0.1
1.5 0 0.1
1.51 0 0.1
1.52 0 0.1
1.53 0 0.1
1.54 0 0.1
1.55 0 0.1
1.56 0 0.1
1.57 0 0.1
1.58 0 0.1
1.59 0 0.1
1.6 0 0.1
1.61 0 0.1
1.62 0 0.1
1.63 0 0.1
1.64 0 0.1
1.65 0 0.1
1.66 0 0.1
1.67 0 0.1
1.68 0 0.1
1.69 0 0.1
1.7 0 0.1
1.71 0 0.1
1.72 0 0.1
1.73 0 0.1
1.74 0 0.1
1.75 0 0.1
1.76 0 0.1
1.77 0 0.1
1.78 0 0.1
1.79 0 0.1
1.8 0 0.1
1.81 0 0.1
1.82 0 0.1
1.83 0 0.1
1.84 0 0.1
1.85 0 0.1
1.86 0 0.1
1.87 0 0.1
1.88 0 0.1
[...]
CELL_DATA 7425
SCALARS rho float
LOOKUP_TABLE default
0.587154
0.805032
0.819527
0.827498
0.799405
0.819125
0.820892
0.814098
0.812944
0.738617
0.863479
0.810026
0.81386
0.827354
0.803697
0.817121
0.798738
0.813227
0.803466
0.767242
0.831253
0.82204
0.724768
0.828026
0.803872
0.702996
0.831186
0.848246
0.80016
0.807928
0.819349
0.725498
0.803612
0.652083
0.519245
0.827993
0.803504
0.814075
0.811136
0.827988
0.715959
0.703168
0.789962
0.702183
0.586458
0.748203
0.799286
0.813793
0.66146
0.719276
0.746312
0.805149
0.812349
0.799061
0.709821
0.627202
0.822888
0.800081
0.738487
0.700895
0.709442
0.807654
0.813197
0.799367
0.798769
0.817579
0.584347
0.773264
0.704732
0.807845
0.804163
0.803201
0.883394
0.821113
0.810836
0.813004
0.805045
0.800436
0.813203
0.757751
0.815946
0.807234
0.810251
0.788663
0.835889
0.801078
0.574431
0.829938
0.542486
0.848464
0.706746
0.729725
0.845209
0.803174
0.817368
0.758189
0.83603
0.788009
0.825604
0.802459
0.808065
0.738655
0.803284
0.828219
0.597217
0.811063
0.82435
0.707435
0.814962
0.79915
0.816678
0.784528
0.789785
0.812425
0.789694
0.786306
0.831235
0.803103
0.700115
0.630251
0.805044
0.777248
0.812907
0.790395
0.858923
0.83882
0.80769
0.804253
0.661181
0.504057
0.814441
0.655038
0.515121
0.867659
0.661798
0.799499
0.811095
0.72353
0.581989
0.724782
0.723234
0.80959
0.809605
0.707321
0.803132
0.779596
0.565457
0.788486
0.782539
0.827745
0.816743
0.704217
0.802888
0.7443
0.705221
0.803272
0.810427
0.830388
0.797541
0.652055
0.802504
0.703459
0.801084
0.829721
0.82043
0.802372
0.813026
0.784795
0.806271
0.800632
0.81968
0.80446
0.791153
0.799113
0.799867
0.740088
0.803678
0.758694
0.59405
0.706547
0.799664
0.792684
0.879786
0.831824
0.615412
0.822901
0.79862
0.827304
0.799857
0.813369
0.81257
0.80319
0.806938
0.704598
0.814977
0.819228
0.770083
0.79712
0.861092
0.80776
0.811815
0.81113
0.612861
0.838872
0.573009
0.531769
0.595474
0.600496
0.828126
0.87932
0.807522
0.798648
0.841365
0.812931
0.816651
0.820739
0.815169
0.638008
0.549199
0.81369
0.54553
0.592507
0.703447
0.811666
0.81403
0.813004
0.833114
0.812872
0.864168
0.709985
0.835203
0.712597
0.805164
0.803919
0.801955
0.713892
0.720413
0.619507
0.705561
0.863604
0.87535
0.806208
0.807691
0.798839
0.811513
0.715798
0.821581
0.800172
0.825669
0.794615
0.809814
0.721418
0.812773
0.823711
0.739745
0.528494
0.799844
0.736427
0.84328
0.81431
0.726607
0.815545
0.814807
0.849935
0.809477
0.803849
0.803251
0.825628
0.860745
0.805418
0.619264
0.848869
0.811967
0.805598
0.827518
0.837318
0.812954
0.821406
0.793493
0.815039
0.86657
0.849929
0.827312
0.836717
0.802665
0.817129
0.80319
0.759699
0.701225
0.580883
0.700931
0.802318
0.812854
0.815954
0.854672
0.779643
0.645747
0.827056
0.520817
0.774263
0.800958
0.646407
0.495333
0.639104
0.815164
0.813199
0.81293
0.812689
0.826691
0.774418
0.811472
0.802663
0.812868
0.840691
0.867066
0.833535
0.802728
0.706152
0.795872
0.834267
0.69157
0.798728
0.802043
0.86477
0.81707
0.593045
0.813357
0.740466
0.852264
0.731969
0.810074
0.907649
0.79985
0.795621
0.658954
0.635571
0.711735
0.780561
0.826515
0.814901
0.813657
0.882376
0.858134
0.799519
0.799144
0.826022
0.73919
0.802518
0.879374
0.801378
0.804679
0.800682
0.802565
0.812932
0.815688
0.816341
0.636189
0.829962
0.645536
0.808447
0.639304
0.802596
0.802233
0.840242
0.72866
0.81634
0.808541
0.81695
0.799485
0.802493
0.811239
0.696731
0.824461
0.813023
0.812894
0.800677
0.736811
0.559947
0.806409
0.810986
0.803187
0.812857
0.794711
0.50317
0.845991
0.81328
0.803846
0.785706
0.813226
0.804657
0.803017
0.816206
0.807506
0.822482
0.768588
0.812636
0.807766
0.562673
0.8031
0.640115
0.838741
0.636232
0.814666
0.877888
0.593203
0.818066
0.748933
0.80441
0.873331
0.533719
0.823095
0.822232
0.803494
0.825712
0.811047
0.823431
0.830613
0.82481
0.739675
0.827496
0.76166
0.810196
0.794232
0.793608
0.758571
0.805596
0.802085
0.814438
0.752202
0.80469
0.604434
0.614224
0.689004
0.812777
0.844179
0.864823
0.829856
0.798565
0.812607
0.804873
0.818495
0.6805
0.800972
0.742928
0.824036
0.814768
0.805373
0.711813
0.727214
0.53368
0.605611
0.801276
0.611385
0.792563
0.765359
0.770028
0.727093
0.76244
0.76751
0.809404
0.814899
0.819522
0.811431
0.710466
0.602229
0.839012
0.806903
0.783136
0.809813
0.802555
0.836537
0.718134
0.855269
0.763678
0.728308
0.764493
0.811479
0.545012
0.798811
0.841597
0.813279
0.813751
0.809684
0.799149
0.780276
0.835683
0.803106
0.842954
0.721078
0.707474
0.800327
0.795134
0.821994
0.708703
0.847944
0.800406
0.816022
0.798714
0.779163
0.808244
0.594622
0.677428
0.632417
0.812901
0.803799
0.826331
0.749238
0.810592
0.814766
0.820366
0.798961
0.729311
0.796856
0.814276
0.803197
0.703169
0.813559
0.818882
0.840007
0.810745
0.825312
0.862282
0.85726
0.743912
0.603418
0.838016
0.80579
0.843368
0.814195
0.822896
0.813489
0.81377
0.633928
0.805168
0.809283
0.812788
0.791886
0.810575
0.804749
0.860497
0.798647
0.812702
0.814683
0.87191
0.59764
0.813426
0.842407
0.88331
0.530482
0.816375
0.829933
0.796137
0.814744
0.794936
0.867586
0.812181
0.831328
0.812694
0.619359
0.802393
0.804146
0.690838
0.853128
0.759767
0.801804
0.813946
0.812681
0.859682
0.795347
0.833596
0.834702
0.784275
0.825166
0.842339
0.799728
0.810477
0.806943
0.805313
0.81482
0.802631
0.845208
0.769243
0.809778
0.803159
0.815198
0.723131
0.812862
0.818328
0.75259
0.813554
0.816333
0.827552
0.825095
0.800708
0.800651
0.850488
0.767933
0.825117
0.844191
0.804555
0.505683
0.812867
0.828258
0.852376
0.812619
0.803149
0.808526
0.855035
0.780077
0.802583
0.801226
0.812904
0.727124
0.802714
0.829991
0.808
0.794968
0.793496
0.843183
0.806605
0.845307
0.80202
0.824228
0.812736
0.804216
0.841841
0.812837
0.679445
0.818755
0.807098
0.812808
0.90614
0.800801
0.815874
0.800479
0.800393
0.816178
0.800499
0.803359
0.783729
0.747344
0.806482
0.812866
0.75801
0.791388
0.823002
0.813015
0.822236
0.806309
0.825753
0.875297
0.83063
0.574845
0.708801
0.840738
0.817264
0.844143
0.814736
0.85009
0.807325
0.812387
0.799341
0.838394
0.86092
0.852779
0.731521
0.814061
0.822157
0.74397
0.81709
0.775932
0.800219
0.733068
0.81604
0.830847
0.823463
0.861825
0.814189
0.813271
0.810161
0.814618
0.835779
0.812198
0.798655
0.81023
0.737547
0.81132
0.774178
0.832824
0.812753
0.638805
0.777633
0.811133
0.799174
0.819805
0.802468
0.814651
0.817276
0.804452
0.819377
0.804163
0.805839
0.597273
0.84703
0.825112
0.826685
0.81491
0.803221
0.70184
0.806471
0.907831
0.813564
0.801024
0.81286
0.782276
0.807245
0.813261
0.821267
0.814636
0.8132
0.816216
0.701887
0.777839
0.764577
0.812635
0.805311
0.80102
0.621338
0.805704
0.802626
0.708199
0.837182
0.817177
0.802191
0.807445
0.799397
0.817228
0.813921
0.813262
0.81285
0.709679
0.831681
0.800279
0.8074
0.842794
0.817609
0.816272
0.800173
0.753658
0.823818
0.787405
0.821415
0.78941
0.805627
0.820933
0.737521
0.817385
0.650576
0.87202
0.704331
0.844993
0.80079
0.875151
0.793699
0.801674
0.820652
0.836213
0.838401
0.825454
0.819808
0.814689
0.801117
0.80418
0.808239
0.725738
0.827228
0.800082
0.719671
0.830521
0.706124
0.799995
0.860381
0.80558
0.701436
0.797842
0.814063
0.705005
0.785657
0.819365
0.831845
0.806944
0.573566
0.728629
0.812383
0.80132
0.812899
0.800665
0.737216
0.813992
0.815696
0.812465
0.775354
0.803264
0.804491
0.803565
0.560443
0.812686
0.834096
0.579816
0.815143
0.816082
0.814675
0.81834
0.814399
0.824521
0.799074
0.79512
0.771031
0.822887
0.829656
0.825096
0.834868
0.765345
0.808981
0.724408
0.77237
0.808794
0.821055
0.813261
0.800971
0.858275
0.812903
0.800322
0.809573
0.816075
0.815166
0.836616
0.814472
0.812783
0.811978
0.813796
0.800134
0.820977
0.803766
0.822811
0.813443
0.575544
0.813491
0.834449
0.858057
0.838174
0.490772
0.816787
0.804516
0.49658
0.669372
0.643226
0.834284
0.807965
0.811648
0.812776
0.803204
0.816728
0.810952
0.534571
0.686486
0.81823
0.806624
0.815593
0.803507
0.810234
0.810886
0.82022
0.799512
0.692276
0.855907
0.80315
0.814714
0.813601
0.757771
0.485711
0.832879
0.813535
0.741987
0.802702
0.806195
0.590935
0.827514
0.814762
0.827704
0.818762
0.82597
0.804729
0.719414
0.643553
0.562063
0.825299
0.808507
0.782975
0.812947
0.779787
0.81787
0.873307
0.76236
0.821591
0.813504
0.825821
0.883558
0.81442
0.811812
0.803262
0.813863
0.69172
0.828192
0.799875
0.810154
0.802206
0.784245
0.854151
0.822023
0.840473
0.821505
0.757593
0.755896
0.803302
0.818083
0.803063
0.805242
0.802584
0.775641
0.814663
0.761569
0.821137
0.662057
0.81395
0.802958
0.735724
0.823243
0.817959
0.739983
0.801162
0.757207
0.88063
0.800721
0.812814
0.762673
0.800078
0.81425
0.803948
0.589857
0.820928
0.79865
0.801334
0.814503
0.825596
0.757124
0.805514
0.841611
0.826925
0.814089
0.835823
0.700846
0.700138
0.812899
0.744153
0.822199
0.771361
0.812806
0.802517
0.810387
0.751949
0.794193
0.76432
0.809871
0.803143
0.631188
0.779009
0.799234
0.84899
0.814345
0.828634
0.52646
0.82533
0.78513
0.858726
0.800939
0.817973
0.800274
0.785775
0.798737
0.825695
0.835754
0.821752
0.817098
0.70699
0.773823
0.815341
0.805378
0.809952
0.803906
0.706886
0.792819
0.80346
0.810641
0.827163
0.851201
0.831835
0.813441
0.799421
0.804222
0.802019
0.779628
0.611601
0.800312
0.73128
0.661897
0.822788
0.798836
0.777271
0.799968
0.754152
0.785291
0.81143
0.822173
0.80333
0.815987
0.817337
0.820649
0.813365
0.808463
0.712141
0.699383
0.640893
0.829261
0.869559
0.815352
0.841338
0.847826
0.86373
0.735661
0.816568
0.863003
0.810177
0.812844
0.816177
0.732775
0.812402
0.806642
0.80618
0.51723
0.812939
0.761166
0.813132
0.81378
0.80354
0.705578
0.813172
0.6106
0.825016
0.802268
0.822228
0.855153
0.803428
0.795366
0.820912
0.811554
0.805698
0.762241
0.5098
0.820876
0.803081
0.828909
0.825743
0.802083
0.807021
0.834452
0.72081
0.50037
0.886256
0.800571
0.815665
0.804319
0.710497
0.798619
0.799992
0.815039
0.736053
0.64649
0.883243
0.71414
0.836533
0.811959
0.832872
0.842648
0.792161
0.804742
0.81357
0.85277
0.738304
0.870696
0.813991
0.562784
0.802444
0.748928
0.8529
0.760278
0.804214
0.803951
0.799618
0.801584
0.808853
0.812878
0.855535
0.805972
0.802865
0.801309
0.799992
0.812212
0.816849
0.802616
0.812455
0.849194
0.803097
0.783438
0.802235
0.839573
0.724992
0.813602
0.8138
0.637385
0.713087
0.80554
0.823003
0.803538
0.511681
0.856303
0.813187
0.832978
0.805302
0.803311
0.801334
0.786228
0.587156
0.804289
0.816077
0.835977
0.820543
0.812921
0.798144
0.746925
0.801564
0.765762
0.787528
0.799318
0.790956
0.751084
0.800827
0.811441
0.810344
0.832186
0.849049
0.553222
0.841888
0.812814
0.820842
0.801988
0.822653
0.811047
0.894608
0.800222
0.867075
0.805682
0.759752
0.862113
0.802275
0.80024
0.82414
0.660382
0.645268
0.803392
0.803852
0.705059
0.654286
0.799897
0.823831
0.813001
0.822566
0.732934
0.817169
0.812813
0.826111
0.816927
0.811937
0.812834
0.754568
0.803879
0.815653
0.811301
0.676205
0.566412
0.812871
0.649984
0.721911
0.55508
0.841381
0.800107
0.526911
0.600745
0.827501
0.908063
0.818122
0.652296
0.814132
0.78642
0.801703
0.786372
0.820631
0.810081
0.788275
0.821032
0.800988
0.587639
0.817801
0.766657
0.815904
0.700957
0.822199
0.789624
0.813923
0.800032
0.662853
0.8435
0.806536
0.806596
0.493512
0.816807
0.800367
0.852138
0.711358
0.817062
0.583872
0.718874
0.801388
0.796649
0.732709
0.71552
0.716004
0.506927
0.589434
0.79997
0.517464
0.822577
0.520147
0.757177
0.671227
0.599175
0.540545
0.745417
0.80308
0.715214
0.821274
0.800926
0.802927
0.761179
0.889672
0.799029
0.82446
0.803426
0.812759
0.705944
0.807551
0.736681
0.821888
0.886031
0.833556
0.747698
0.822767
0.770477
0.879894
0.804193
0.75865
0.850671
0.776846
0.799923
0.805272
0.758218
0.744587
0.665267
0.804981
0.803021
0.817885
0.833472
0.611462
0.807893
0.538056
0.668571
0.61625
0.818495
0.821019
0.808971
0.803972
0.615657
0.87245
0.802676
0.802944
0.863506
0.812394
0.772011
0.812131
0.802364
0.817878
0.803144
0.717024
0.803353
0.65528
0.798989
0.804076
0.801541
0.639144
0.81151
0.810289
0.725632
0.81778
0.549089
0.576669
0.804142
0.696462
0.725927
0.572068
0.723587
0.813594
0.707587
0.772964
0.716712
0.812788
0.67018
0.762092
0.806439
0.810581
0.654473
0.801943
0.89515
0.796692
0.816771
0.58511
0.693787
0.800915
0.812914
0.813982
0.851645
0.812616
0.804249
0.803723
0.803335
0.713776
0.717571
0.615597
0.771454
0.532704
0.723937
0.809893
0.814382
0.80611
0.799248
0.535921
0.809039
0.803754
0.553935
0.543267
0.746579
0.803569
0.806156
0.549294
0.798205
0.569555
0.720448
0.607748
0.813521
0.802241
0.597012
0.608263
0.867885
0.810027
0.765394
0.717828
0.621627
0.655306
0.709805
0.815987
0.75976
0.765501
0.623987
0.753853
0.809283
0.815339
0.812423
0.815445
0.865576
0.75467
0.818907
0.803329
0.851267
0.812827
0.802771
0.813048
0.722582
0.812923
0.811966
0.815158
0.811126
0.815867
0.803269
0.8179
0.810361
0.809712
0.817241
0.80011
0.816568
0.818927
0.66745
0.818582
0.868404
0.818142
0.79292
0.645887
0.858567
0.818762
0.824864
0.799525
0.811179
0.757504
0.85253
0.55921
0.726611
0.809855
0.815639
0.80387
0.803358
0.832027
0.805005
0.80519
0.815235
0.780699
0.838533
0.841928
0.815185
0.664293
0.612229
0.815738
0.816594
0.788284
0.849612
0.847243
0.810825
0.813602
0.77774
0.814059
0.817806
0.814083
0.818749
0.813072
0.815795
0.851027
0.815941
0.814475
0.817526
0.81774
0.784883
0.814091
0.804032
0.804107
0.804597
0.818542
0.811451
0.78833
0.753971
0.812638
0.806272
0.808749
0.806371
0.857757
0.803329
0.813966
0.812661
0.805173
0.563584
0.803883
0.812704
0.814993
0.810306
0.812747
0.813266
0.812988
0.81017
0.86438
0.501469
0.812777
0.841642
0.812614
0.802957
0.808404
0.814968
0.839658
0.800428
0.801193
0.81259
0.706076
0.812795
0.808198
0.80733
0.812518
0.812846
0.81299
0.813323
0.511734
0.811858
0.715738
0.885833
0.821029
0.73342
0.671248
0.81533
0.803488
0.818697
0.646466
0.801649
0.813294
0.647953
0.799833
0.804089
0.815407
0.806255
0.856723
0.809843
0.606895
0.800814
0.775171
0.811207
0.889064
0.803264
0.815505
0.819298
0.832186
0.813361
0.82237
0.836319
0.634939
0.802606
0.655752
0.81371
0.81361
0.712549
0.813495
0.804792
0.713138
0.814894
0.701219
0.861058
0.784071
0.81426
0.812851
0.81339
0.667854
0.813616
0.633267
0.800182
0.792358
0.822265
0.815146
0.715989
0.766693
0.830023
0.812715
0.821278
0.821874
0.813398
0.825303
0.799481
0.552047
0.754901
0.759185
0.731432
0.837583
0.822326
0.83432
0.776007
0.802757
0.812986
0.812908
0.812911
0.774623
0.563772
0.8032
0.528456
0.808177
0.824247
0.799683
0.803754
0.812931
0.806007
0.782598
0.732175
0.813347
0.859128
0.813672
0.799272
0.736921
0.80958
0.788709
0.833698
0.503793
0.79597
0.805873
0.798855
0.689027
0.8128
0.810724
0.857034
0.569034
0.807327
0.803266
0.812782
0.612464
0.813045
0.80333
0.803399
0.803023
0.813157
0.813255
0.816069
0.812996
0.717881
0.804496
0.803197
0.812944
0.896154
0.813102
0.773964
0.841123
0.799175
0.803131
0.601304
0.812838
0.803354
0.825629
0.80196
0.866207
0.814796
0.853381
0.80032
0.820598
0.777865
0.558249
0.752675
0.794217
0.803903
0.813927
0.813762
0.555461
0.861767
0.857881
0.768445
0.757657
0.73851
0.812036
0.848382
0.812876
0.813685
0.812911
0.804268
0.726762
0.803496
0.799088
0.764211
0.824225
0.822959
0.861824
0.815608
0.812922
0.524374
0.80888
0.812882
0.800692
0.773949
0.818058
0.803108
0.812835
0.826848
0.79844
0.803569
0.801206
0.815137
0.839086
0.802352
0.799145
0.801471
0.76609
0.819823
0.567033
0.86836
0.803682
0.545696
0.803142
0.803104
0.819539
0.591703
0.606119
0.801536
0.803614
0.800829
0.860711
0.779912
0.814589
0.802931
0.865692
0.804707
0.804445
0.826286
0.815906
0.820068
0.821232
0.82028
0.86746
0.729241
0.852124
0.817152
0.653644
0.802525
0.803179
0.803631
0.821075
0.823461
0.803952
0.801068
0.800033
0.82263
0.80318
0.803599
0.799643
0.824338
0.803966
0.801984
0.806068
0.827821
0.80052
0.801506
0.824235
0.799567
0.815329
0.651241
0.826342
0.849814
0.804852
0.819522
0.803224
0.828702
0.837454
0.803392
0.821427
0.800517
0.806955
0.789542
0.802147
0.803141
0.806348
0.805882
0.804493
0.818493
0.814692
0.811224
0.831363
0.80216
0.802212
0.799884
0.788992
0.833744
0.803138
0.819251
0.815153
0.80709
0.805017
0.802945
0.838867
0.864703
0.799552
0.678918
0.801169
0.842111
0.816537
0.805104
0.804456
0.819671
0.844558
0.601528
0.828726
0.794464
0.850332
0.818677
0.811981
0.813254
0.808208
0.803948
0.812753
0.808739
0.591803
0.847946
0.794583
0.814121
0.854554
0.819225
0.763159
0.808615
0.814393
0.815406
0.802956
0.661663
0.809178
0.863123
0.80255
0.80069
0.775388
0.871194
0.800417
0.877047
0.806657
0.817108
0.820559
0.802201
0.803802
0.81254
0.815823
0.803447
0.813261
0.816684
0.88133
0.820672
0.809284
0.800115
0.828367
0.810467
0.83882
0.808786
0.806931
0.812092
0.816489
0.829869
0.813596
0.822483
0.832478
0.814136
0.699647
0.690729
0.812978
0.817686
0.803786
0.813058
0.513974
0.854843
0.799743
0.806215
0.813872
0.813419
0.80395
0.812414
0.800456
0.801189
0.808003
0.814689
0.756859
0.784616
0.822887
0.842647
0.834769
0.800237
0.805036
0.803349
0.812896
0.805682
0.799503
0.799772
0.800993
0.810869
0.797795
0.802726
0.835447
0.83129
0.72979
0.665531
0.807563
0.698535
0.799473
0.572122
0.804398
0.806912
0.803083
0.818105
0.833739
0.813858
0.812789
0.81025
0.803835
0.881499
0.816205
0.804775
0.772234
0.585818
0.810225
0.806598
0.769337
0.81435
0.813807
0.791453
0.800691
0.804021
0.62447
0.830404
0.803495
0.781461
0.779284
0.852678
0.809975
0.80286
0.80258
0.810174
0.811044
0.518618
0.801768
0.839448
0.813858
0.798557
0.588695
0.814502
0.814003
0.812878
0.833683
0.81385
0.803916
0.821835
0.805561
0.575746
0.808615
0.736492
0.798491
0.813566
0.722169
0.81486
0.845954
0.831578
0.664461
0.890884
0.785567
0.777383
0.796858
0.779505
0.808591
0.849927
0.807952
0.802854
0.813479
0.808798
0.782592
0.785906
0.813814
0.808291
0.834807
0.821215
0.835642
0.801245
0.799638
0.812974
0.856579
0.816406
0.818317
0.813275
0.607308
0.795507
0.823836
0.829303
0.865868
0.812531
0.818891
0.508648
0.809678
0.800573
0.812539
0.814696
0.847547
0.812978
0.811072
0.881477
0.764512
0.812527
0.813164
0.80896
0.805198
0.814158
0.655881
0.800486
0.849491
0.833474
0.810559
0.813497
0.813294
0.80955
0.698915
0.812433
0.800145
0.838523
0.818412
0.811563
0.831276
0.792678
0.811487
0.817751
0.808769
0.819226
0.744221
0.8547
0.818902
0.813738
0.812982
0.812629
0.815651
0.817092
0.812675
0.810722
0.841031
0.818531
0.800135
0.825245
0.826896
0.815997
0.814434
0.800345
0.801496
0.812971
0.818961
0.829367
0.812721
0.816391
0.799808
0.809896
0.812758
0.812725
0.802489
0.814594
0.813255
0.803228
0.812782
0.835608
0.80001
0.809367
0.821484
0.559926
0.814142
0.8181
0.815453
0.814941
0.821906
0.828772
0.815554
0.818772
0.701411
0.812983
0.801318
0.815547
0.818953
0.835024
0.821503
0.815496
0.829316
0.824882
0.8106
0.819162
0.819485
0.804165
0.81308
0.815535
0.819415
0.83206
0.812553
0.815628
0.802709
0.812855
0.812974
0.522542
0.627608
0.814326
0.821377
0.801714
0.822409
0.815837
0.841823
0.708093
0.813671
0.730428
0.817343
0.810248
0.813085
0.829298
0.813581
0.804842
0.812841
0.830032
0.83926
0.81272
0.719168
0.819225
0.815962
0.799903
0.803023
0.815239
0.85589
0.81257
0.813296
0.849657
0.828951
0.843227
0.573378
0.829054
0.81387
0.810829
0.817332
0.850471
0.817697
0.718372
0.799524
0.831711
0.799753
0.799712
0.805377
0.747809
0.813321
0.814273
0.725399
0.814285
0.82729
0.813241
0.81396
0.799204
0.81831
0.812906
0.8235
0.808685
0.808143
0.814903
0.70534
0.819009
0.814008
0.812891
0.639853
0.718736
0.599335
0.823225
0.529538
0.853778
0.727301
0.842755
0.81245
0.722688
0.821364
0.815813
0.742529
0.807641
0.818286
0.794395
0.816454
0.815792
0.815722
0.812907
0.80782
0.803654
0.737271
0.836094
0.820103
0.81654
0.79921
0.815385
0.80198
0.815936
0.813384
0.854572
0.817704
0.496975
0.813234
0.818721
0.818594
0.778036
0.815697
0.80671
0.818529
0.845313
0.59639
0.809079
0.799286
0.815248
0.817551
0.817621
0.812373
0.818531
0.813787
0.814511
0.803065
0.814207
0.846065
0.813861
0.79199
0.811417
0.622497
0.718726
0.812984
0.816924
0.802922
0.822237
0.735441
0.803146
0.803181
0.820139
0.624686
0.817525
0.799334
0.815342
0.86462
0.785473
0.821882
0.817907
0.822732
0.813943
0.769576
0.802417
0.813489
0.902283
0.827118
0.816355
0.832164
0.809531
0.868157
0.719371
0.687543
0.852294
0.802696
0.662734
0.850257
0.786032