# vtk DataFile Version 1.0
unstructured grid
ascii
DATASET UNSTRUCTURED_GRID
points 7812 float
-1 0 0
-1 1 0
2 0 0
2 1 0
0 0 0
1 0 0
-1 1 0.1
-1 0 0.1
0 0 0.1
1 0 0.1
2 0 0.1
2 1 0.1
-0.99 0 0
-0.98 0 0
-0.97 0 0
-0.96 0 0
-0.95 0 0
-0.94 0 0
-0.93 0 0
-0.92 0 0
-0.91 0 0
-0.9 0 0
-0.89 0 0
-0.88 0 0
-0.87 0 0
-0.86 0 0
-0.85 0 0
-0.84 0 0
-0.83 0 0
-0.82 0 0
-0.81 0 0
-0.8 0 0
-0.79 0 0
-0.78 0 0
-0.77 0 0
-0.76 0 0
-0.75 0 0
-0.74 0 0
-0.73 0 0
-0.72 0 0
-0.71 0 0
-0.7 0 0
-0.69 0 0
-0.68 0 0
-0.67 0 0
-0.66 0 0
-0.65 0 0
-0.64 0 0
-0.63 0 0
-0.62 0 0
-0.61 0 0
-0.6 0 0
-0.59 0 0
-0.58 0 0
-0.57 0 0
-0.56 0 0
-0.55 0 0
-0.54 0 0
-0.53 0 0
-0.52 0 0
-0.51 0 0
-0.5 0 0
-0.49 0 0
-0.48 0 0
-0.47 0 0
-0.46 0 0
-0.45 0 0
-0.44 0 0
-0.43 0 0
-0.42 0 0
-0.41 0 0
-0.4 0 0
-0.39 0 0
-0.38 0 0
-0.37 0 0
-0.36 0 0
-0.35 0 0
-0.34 0 0
-0.33 0 0
-0.32 0 0
-0.31 0 0
-0.3 0 0
-0.29 0 0
-0.28 0 0
-0.27 0 0
-0.26 0 0
-0.25 0 0
-0.24 0 0
-0.23 0 0
-0.22 0 0
-0.21 0 0
-0.2 0 0
-0.19 0 0
-0.18 0 0
-0.17 0 0
-0.16 0 0
-0.15 0 0
-0.14 0 0
-0.13 0 0
-0.12 0 0
-0.11 0 0
-0.1 0 0
-0.09 0 0
-0.08 0 0
-0.07 0 0
-0.06 0 0
-0.05 0 0
-0.04 0 0
-0.03 0 0
-0.02 0 0
-0.01 0 0
1.01 0 0
1.02 0 0
1.03 0 0
1.04 0 0
1.05 0 0
1.06 0 0
1.07 0 0
1.08 0 0
1.09 0 0
1.1 0 0
1.11 0 0
1.12 0 0
1.13 0 0
1.14 0 0
1.15 0 0
1.16 0 0
1.17 0 0
1.18 0 0
1.19 0 0
1.2 0 0
1.21 0 0
1.22 0 0
1.23 0 0
1.24 0 0
1.25 0 0
1.26 0 0
1.27 0 0
1.28 0 0
1.29 0 0
1.3 0 0
1.31 0 0
1.32 0 0
1.33 0 0
1.34 0 0
1.35 0 0
1.36 0 0
1.37 0 0
1.38 0 0
1.39 0 0
1.4 0 0
1.41 0 0
1.42 0 0
1.43 0 0
1.44 0 0
1.45 0 0
1.46 0 0
1.47 0 0
1.48 0 0
1.49 0 0
1.5 0 0
1.51 0 0
1.52 0 0
1.53 0 0
1.54 0 0
1.55 0 0
1.56 0 0
1.57 0 0
1.58 0 0
1.59 0 0
1.6 0 0
1.61 0 0
1.62 0 0
1.63 0 0
1.64 0 0
1.65 0 0
1.66 0 0
1.67 0 0
1.68 0 0
1.69 0 0
1.7 0 0
1.71 0 0
1.72 0 0
1.73 0 0
1.74 0 0
1.75 0 0
1.76 0 0
1.77 0 0
1.78 0 0
1.79 0 0
1.8 0 0
1.81 0 0
1.82 0 0
1.83 0 0
1.84 0 0
1.85 0 0
1.86 0 0
1.87 0 0
1.88 0 0
1.89 0 0
1.9 0 0
1.91 0 0
1.92 0 0
1.93 0 0
1.94 0 0
1.95 0 0
1.96 0 0
1.97 0 0
1.98 0 0
1.99 0 0
2 0.010289 0
2 0.0215307 0
2 0.0338135 0
2 0.0472336 0
2 0.0618965 0
2 0.0779171 0
2 0.0954213 0
2 0.114546 0
2 0.135442 0
2 0.158274 0
2 0.183219 0
2 0.210474 0
2 0.240253 0
2 0.27279 0
2 0.308339 0
2 0.347181 0
2 0.389619 0
2 0.435987 0
2 0.486649 0
2 0.542002 0
2 0.602481 0
2 0.66856 0
2 0.740758 0
2 0.819642 0
2 0.90583 0
1.9 1 0
1.8 1 0
1.7 1 0
1.6 1 0
1.5 1 0
1.4 1 0
1.3 1 0
1.2 1 0
1.1 1 0
1 1 0
0.9 1 0
0.8 1 0
0.7 1 0
0.6 1 0
0.5 1 0
0.4 1 0
0.3 1 0
0.2 1 0
0.1 1 0
3.69793e-12 1 0
-0.1 1 0
-0.2 1 0
-0.3 1 0
-0.4 1 0
-0.5 1 0
-0.6 1 0
-0.7 1 0
-0.8 1 0
-0.9 1 0
-1 0.90583 0
-1 0.819642 0
-1 0.740758 0
-1 0.66856 0
-1 0.602481 0
-1 0.542002 0
-1 0.486649 0
-1 0.435987 0
-1 0.389619 0
-1 0.347181 0
-1 0.308339 0
-1 0.27279 0
-1 0.240253 0
-1 0.210474 0
-1 0.183219 0
-1 0.158274 0
-1 0.135442 0
-1 0.114546 0
-1 0.0954213 0
-1 0.0779171 0
-1 0.0618965 0
-1 0.0472336 0
-1 0.0338135 0
-1 0.0215307 0
-1 0.010289 0
0.00921362 0.00379763 0
0.0184561 0.00752451 0
0.0277268 0.0111804 0
0.0370253 0.0147652 0
0.0463511 0.0182786 0
0.0557034 0.0217203 0
0.0650819 0.0250903 0
0.074486 0.0283883 0
0.083915 0.0316141 0
0.0933685 0.0347675 0
0.102846 0.0378484 0
0.112347 0.0408565 0
0.12187 0.0437917 0
0.131416 0.0466538 0
0.140983 0.0494427 0
0.150572 0.0521581 0
0.160181 0.0547999 0
0.16981 0.0573681 0
0.179458 0.0598623 0
0.189125 0.0622825 0
0.198811 0.0646285 0
0.208514 0.0669001 0
0.218234 0.0690974 0
0.227971 0.07122 0
0.237724 0.073268 0
0.247493 0.0752411 0
0.257276 0.0771393 0
0.267073 0.0789625 0
0.276884 0.0807105 0
0.286708 0.0823832 0
0.296545 0.0839806 0
0.306394 0.0855025 0
0.316254 0.0869488 0
0.326125 0.0883196 0
0.336006 0.0896146 0
0.345896 0.0908339 0
0.355796 0.0919773 0
0.365704 0.0930447 0
0.375621 0.0940362 0
0.385544 0.0949517 0
0.395474 0.095791 0
0.40541 0.0965542 0
0.415352 0.0972412 0
0.425299 0.097852 0
0.43525 0.0983865 0
0.445205 0.0988447 0
0.455164 0.0992266 0
0.465125 0.0995321 0
0.475088 0.0997613 0
0.485052 0.0999141 0
0.495017 0.0999904 0
0.504983 0.0999904 0
0.514948 0.0999141 0
0.524912 0.0997613 0
0.534875 0.0995321 0
0.544836 0.0992266 0
0.554795 0.0988447 0
0.56475 0.0983865 0
0.574701 0.097852 0
0.584648 0.0972412 0
0.59459 0.0965542 0
0.604526 0.095791 0
0.614456 0.0949517 0
0.624379 0.0940362 0
0.634296 0.0930447 0
0.644204 0.0919773 0
0.654104 0.0908339 0
0.663994 0.0896146 0
0.673875 0.0883196 0
0.683746 0.0869488 0
0.693606 0.0855025 0
0.703455 0.0839806 0
0.713292 0.0823832 0
0.723116 0.0807105 0
0.732927 0.0789625 0
0.742724 0.0771393 0
0.752508 0.0752411 0
0.762276 0.073268 0
0.772029 0.07122 0
0.781766 0.0690974 0
0.791486 0.0669001 0
0.801189 0.0646285 0
0.810875 0.0622825 0
0.820542 0.0598623 0
0.83019 0.0573681 0
0.839819 0.0547999 0
0.849428 0.0521581 0
0.859017 0.0494427 0
0.868584 0.0466538 0
0.87813 0.0437917 0
0.887653 0.0408565 0
0.897154 0.0378484 0
0.906631 0.0347675 0
0.916085 0.0316141 0
0.925514 0.0283883 0
0.934918 0.0250903 0
0.944297 0.0217203 0
0.953649 0.0182786 0
0.962975 0.0147652 0
0.972273 0.0111804 0
0.981544 0.00752451 0
0.990786 0.00379763 0
-1 0.90583 0.1
-1 0.819642 0.1
-1 0.740758 0.1
-1 0.66856 0.1
-1 0.602481 0.1
-1 0.542002 0.1
-1 0.486649 0.1
-1 0.435987 0.1
-1 0.389619 0.1
-1 0.347181 0.1
-1 0.308339 0.1
-1 0.27279 0.1
-1 0.240253 0.1
-1 0.210474 0.1
-1 0.183219 0.1
-1 0.158274 0.1
-1 0.135442 0.1
-1 0.114546 0.1
-1 0.0954213 0.1
-1 0.0779171 0.1
-1 0.0618965 0.1
-1 0.0472336 0.1
-1 0.0338135 0.1
-1 0.0215307 0.1
-1 0.010289 0.1
-0.99 0 0.1
-0.98 0 0.1
-0.97 0 0.1
-0.96 0 0.1
-0.95 0 0.1
-0.94 0 0.1
-0.93 0 0.1
-0.92 0 0.1
-0.91 0 0.1
-0.9 0 0.1
-0.89 0 0.1
-0.88 0 0.1
-0.87 0 0.1
-0.86 0 0.1
-0.85 0 0.1
-0.84 0 0.1
-0.83 0 0.1
-0.82 0 0.1
-0.81 0 0.1
-0.8 0 0.1
-0.79 0 0.1
-0.78 0 0.1
-0.77 0 0.1
-0.76 0 0.1
-0.75 0 0.1
-0.74 0 0.1
-0.73 0 0.1
-0.72 0 0.1
-0.71 0 0.1
-0.7 0 0.1
-0.69 0 0.1
-0.68 0 0.1
-0.67 0 0.1
-0.66 0 0.1
-0.65 0 0.1
-0.64 0 0.1
-0.63 0 0.1
-0.62 0 0.1
-0.61 0 0.1
-0.6 0 0.1
-0.59 0 0.1
-0.58 0 0.1
-0.57 0 0.1
-0.56 0 0.1
-0.55 0 0.1
-0.54 0 0.1
-0.53 0 0.1
-0.52 0 0.1
-0.51 0 0.1
-0.5 0 0.1
-0.49 0 0.1
-0.48 0 0.1
-0.47 0 0.1
-0.46 0 0.1
-0.45 0 0.1
-0.44 0 0.1
-0.43 0 0.1
-0.42 0 0.1
-0.41 0 0.1
-0.4 0 0.1
-0.39 0 0.1
-0.38 0 0.1
-0.37 0 0.1
-0.36 0 0.1
-0.35 0 0.1
-0.34 0 0.1
-0.33 0 0.1
-0.32 0 0.1
-0.31 0 0.1
-0.3 0 0.1
-0.29 0 0.1
-0.28 0 0.1
-0.27 0 0.1
-0.26 0 0.1
-0.25 0 0.1
-0.24 0 0.1
-0.23 0 0.1
-0.22 0 0.1
-0.21 0 0.1
-0.2 0 0.1
-0.19 0 0.1
-0.18 0 0.1
-0.17 0 0.1
-0.16 0 0.1
-0.15 0 0.1
-0.14 0 0.1
-0.13 0 0.1
-0.12 0 0.1
-0.11 0 0.1
-0.1 0 0.1
-0.09 0 0.1
-0.08 0 0.1
-0.07 0 0.1
-0.06 0 0.1
-0.05 0 0.1
-0.04 0 0.1
-0.03 0 0.1
-0.02 0 0.1
-0.01 0 0.1
0.00921362 0.00379763 0.1
0.0184561 0.00752451 0.1
0.0277268 0.0111804 0.1
0.0370253 0.0147652 0.1
0.0463511 0.0182786 0.1
0.0557034 0.0217203 0.1
0.0650819 0.0250903 0.1
0.074486 0.0283883 0.1
0.083915 0.0316141 0.1
0.0933685 0.0347675 0.1
0.102846 0.0378484 0.1
0.112347 0.0408565 0.1
0.12187 0.0437917 0.1
0.131416 0.0466538 0.1
0.140983 0.0494427 0.1
0.150572 0.0521581 0.1
0.160181 0.0547999 0.1
0.16981 0.0573681 0.1
0.179458 0.0598623 0.1
0.189125 0.0622825 0.1
0.198811 0.0646285 0.1
0.208514 0.0669001 0.1
0.218234 0.0690974 0.1
0.227971 0.07122 0.1
0.237724 0.073268 0.1
0.247493 0.0752411 0.1
0.257276 0.0771393 0.1
0.267073 0.0789625 0.1
0.276884 0.0807105 0.1
0.286708 0.0823832 0.1
0.296545 0.0839806 0.1
0.306394 0.0855025 0.1
0.316254 0.0869488 0.1
0.326125 0.0883196 0.1
0.336006 0.0896146 0.1
0.345896 0.0908339 0.1
0.355796 0.0919773 0.1
0.365704 0.0930447 0.1
0.375621 0.0940362 0.1
0.385544 0.0949517 0.1
0.395474 0.095791 0.1
0.40541 0.0965542 0.1
0.415352 0.0972412 0.1
0.425299 0.097852 0.1
0.43525 0.0983865 0.1
0.445205 0.0988447 0.1
0.455164 0.0992266 0.1
0.465125 0.0995321 0.1
0.475088 0.0997613 0.1
0.485052 0.0999141 0.1
0.495017 0.0999904 0.1
0.504983 0.0999904 0.1
0.514948 0.0999141 0.1
0.524912 0.0997613 0.1
0.534875 0.0995321 0.1
0.544836 0.0992266 0.1
0.554795 0.0988447 0.1
0.56475 0.0983865 0.1
0.574701 0.097852 0.1
0.584648 0.0972412 0.1
0.59459 0.0965542 0.1
0.604526 0.095791 0.1
0.614456 0.0949517 0.1
0.624379 0.0940362 0.1
0.634296 0.0930447 0.1
0.644204 0.0919773 0.1
0.654104 0.0908339 0.1
0.663994 0.0896146 0.1
0.673875 0.0883196 0.1
0.683746 0.0869488 0.1
0.693606 0.0855025 0.1
0.703455 0.0839806 0.1
0.713292 0.0823832 0.1
0.723116 0.0807105 0.1
0.732927 0.0789625 0.1
0.742724 0.0771393 0.1
0.752508 0.0752411 0.1
0.762276 0.073268 0.1
0.772029 0.07122 0.1
0.781766 0.0690974 0.1
0.791486 0.0669001 0.1
0.801189 0.0646285 0.1
0.810875 0.0622825 0.1
0.820542 0.0598623 0.1
0.83019 0.0573681 0.1
0.839819 0.0547999 0.1
0.849428 0.0521581 0.1
0.859017 0.0494427 0.1
0.868584 0.0466538 0.1
0.87813 0.0437917 0.1
0.887653 0.0408565 0.1
0.897154 0.0378484 0.1
0.906631 0.0347675 0.1
0.916085 0.0316141 0.1
0.925514 0.0283883 0.1
0.934918 0.0250903 0.1
0.944297 0.0217203 0.1
0.953649 0.0182786 0.1
0.962975 0.0147652 0.1
0.972273 0.0111804 0.1
0.981544 0.00752451 0.1
0.990786 0.00379763 0.1
1.01 0 0.1
1.02 0 0.1
1.03 0 0.1
1.04 0 0.1
1.05 0 0.1
1.06 0 0.1
1.07 0 0.1
1.08 0 0.1
1.09 0 0.1
1.1 0 0.1
1.11 0 0.1
1.12 0 0.1
1.13 0 0.1
1.14 0 0.1
1.15 0 0.1
1.16 0 0.1
1.17 0 0.1
1.18 0 0.1
1.19 0 0.1
1.2 0 0.1
1.21 0 0.1
1.22 0 0.1
1.23 0 0.1
1.24 0 0.1
1.25 0 0.1
1.26 0 0.1
1.27 0 0.1
1.28 0 0.1
1.29 0 0.1
1.3 0 0.1
1.31 0 0.1
1.32 0 0.1
1.33 0 0.1
1.34 0 0.1
1.35 0 0.1
1.36 0 0.1
1.37 0 0.1
1.38 0 0.1
1.39 0 0.1
1.4 0 0.1
1.41 0 0.1
1.42 0 0.1
1.43 0 0.1
1.44 0 0.1
1.45 0 0.1
1.46 0 0.1
1.47 0 0.1
1.48 0 0.1
1.49 0 0.1
1.5 0 0.1
1.51 0 0.1
1.52 0 0.1
1.53 0 0.1
1.54 0 0.1
1.55 0 0.1
1.56 0 0.1
1.57 0 0.1
1.58 0 0.1
1.59 0 0.1
1.6 0 0.1
1.61 0 0.1
1.62 0 0.1
1.63 0 0.1
1.64 0 0.1
1.65 0 0.1
1.66 0 0.1
1.67 0 0.1
1.68 0 0.1
1.69 0 0.1
1.7 0 0.1
1.71 0 0.1
1.72 0 0.1
1.73 0 0.1
1.74 0 0.1
1.75 0 0.1
1.76 0 0.1
1.77 0 0.1
1.78 0 0.1
1.79 0 0.1
1.8 0 0.1
1.81 0 0.1
1.82 0 0.1
1.83 0 0.1
1.84 0 0.1
1.85 0 0.1
1.86 0 0.1
1.87 0 0.1
1.88 0 0.1
[...]
CELL_DATA 7425
SCALARS rho float
LOOKUP_TABLE default
0.5872
0.805035
0.81954
0.827509
0.799419
0.819138
0.820902
0.814114
0.812962
0.738633
0.863484
0.810032
0.813876
0.827365
0.803711
0.817135
0.798752
0.813245
0.803468
0.767253
0.831264
0.822046
0.724785
0.828038
0.803874
0.70304
0.831196
0.848268
0.800163
0.807936
0.819359
0.725483
0.803614
0.652121
0.519332
0.828004
0.803506
0.814091
0.811142
0.827998
0.715994
0.703235
0.789973
0.702103
0.586513
0.748218
0.799299
0.81381
0.661609
0.719263
0.746316
0.805152
0.812354
0.799075
0.709787
0.629338
0.822901
0.800091
0.738503
0.700918
0.709499
0.807657
0.813215
0.79938
0.798773
0.817593
0.58439
0.773277
0.70468
0.807854
0.804174
0.803202
0.883397
0.821118
0.810842
0.813022
0.805048
0.800439
0.813221
0.757761
0.815961
0.807237
0.810268
0.788678
0.835896
0.801091
0.574474
0.829947
0.542552
0.848472
0.706627
0.729741
0.845231
0.803176
0.817382
0.758213
0.836043
0.788017
0.825615
0.802474
0.80808
0.738654
0.803286
0.82823
0.597255
0.811069
0.824361
0.707465
0.814978
0.799165
0.816693
0.784537
0.789799
0.812429
0.789705
0.786314
0.831245
0.803104
0.70006
0.630583
0.805047
0.777261
0.812926
0.790402
0.85893
0.83884
0.807694
0.804264
0.661209
0.504145
0.814456
0.655076
0.515203
0.867686
0.661959
0.799514
0.8111
0.723552
0.582033
0.724822
0.723268
0.809601
0.809623
0.707286
0.803143
0.779605
0.565499
0.788502
0.782541
0.827756
0.816754
0.704246
0.802902
0.744302
0.705185
0.803275
0.810433
0.830399
0.797552
0.652132
0.802509
0.70338
0.801097
0.829732
0.820443
0.802374
0.813045
0.784807
0.806275
0.800646
0.819694
0.804475
0.791168
0.799128
0.799877
0.740121
0.803692
0.758718
0.594113
0.706379
0.799677
0.792698
0.87979
0.831834
0.616557
0.822913
0.798634
0.827322
0.79987
0.813386
0.812589
0.803193
0.806942
0.70456
0.814993
0.819241
0.770094
0.797133
0.86112
0.807764
0.811824
0.811148
0.612897
0.838892
0.573053
0.531849
0.595512
0.600598
0.828139
0.879324
0.807525
0.798651
0.841372
0.81295
0.816665
0.820752
0.815185
0.638035
0.549442
0.813707
0.545598
0.592569
0.70341
0.811681
0.814046
0.813022
0.833124
0.812891
0.864193
0.709937
0.835214
0.712652
0.805168
0.803921
0.801959
0.713915
0.720456
0.619534
0.70549
0.86361
0.875379
0.806223
0.807695
0.798853
0.811523
0.715851
0.821593
0.800187
0.825681
0.794621
0.809832
0.721413
0.812792
0.823723
0.739779
0.528552
0.799856
0.736422
0.843291
0.814326
0.726593
0.81556
0.814823
0.849941
0.809494
0.803865
0.803253
0.82564
0.860752
0.805433
0.619292
0.848877
0.811983
0.805601
0.827529
0.837326
0.812971
0.821418
0.793499
0.815054
0.866596
0.849936
0.827325
0.836727
0.80267
0.817144
0.803191
0.759709
0.701269
0.580925
0.700872
0.802332
0.812873
0.815969
0.854695
0.779652
0.645774
0.827068
0.520903
0.774276
0.800971
0.646434
0.495507
0.639132
0.81518
0.813217
0.812949
0.812706
0.826703
0.774426
0.811476
0.802666
0.812888
0.8407
0.867092
0.833545
0.802735
0.706038
0.795884
0.834275
0.691595
0.798743
0.802047
0.864776
0.817084
0.593081
0.813375
0.7405
0.852286
0.731994
0.810091
0.907651
0.799865
0.795637
0.658983
0.635599
0.71169
0.780579
0.826527
0.814917
0.813674
0.882406
0.858159
0.799533
0.799154
0.826027
0.739214
0.802523
0.879379
0.80138
0.804695
0.800696
0.802567
0.81295
0.815704
0.816355
0.636233
0.829976
0.645614
0.808458
0.639348
0.802609
0.802236
0.840252
0.728698
0.816345
0.808555
0.816964
0.799498
0.802495
0.811245
0.696802
0.824467
0.813041
0.812912
0.80068
0.736817
0.559989
0.806413
0.811004
0.803189
0.812876
0.794725
0.503346
0.846006
0.813297
0.803848
0.785718
0.813244
0.804668
0.803028
0.816221
0.80751
0.822495
0.768603
0.812646
0.80777
0.562716
0.803115
0.640142
0.838749
0.63626
0.814681
0.877893
0.593293
0.818075
0.74895
0.804413
0.873336
0.533799
0.823107
0.822245
0.803496
0.825724
0.811056
0.823444
0.830624
0.824822
0.739708
0.827507
0.76166
0.810207
0.794238
0.79362
0.758587
0.805599
0.802087
0.814452
0.752229
0.804699
0.604471
0.614259
0.689058
0.812794
0.844187
0.864829
0.829866
0.798579
0.812626
0.804883
0.818507
0.680525
0.800984
0.742948
0.824045
0.814783
0.805389
0.711757
0.727235
0.533742
0.605643
0.801289
0.611416
0.792577
0.765368
0.770042
0.727076
0.762455
0.767527
0.809421
0.814915
0.819536
0.81145
0.710507
0.602334
0.839021
0.806918
0.783144
0.80983
0.802562
0.836547
0.718186
0.855276
0.763684
0.728353
0.764512
0.811495
0.545073
0.798825
0.841606
0.813291
0.813768
0.809701
0.799164
0.780293
0.835691
0.803108
0.842963
0.721098
0.707442
0.800336
0.795146
0.822007
0.708733
0.847952
0.800422
0.816037
0.798728
0.779173
0.80826
0.594659
0.677453
0.632445
0.812917
0.803809
0.826342
0.749253
0.810596
0.814782
0.82038
0.798975
0.729349
0.796871
0.814293
0.803199
0.703234
0.813576
0.818895
0.840018
0.810763
0.825324
0.862287
0.857266
0.743937
0.603453
0.838024
0.805801
0.843375
0.814211
0.822907
0.813507
0.813787
0.634228
0.805184
0.809296
0.812807
0.791898
0.810585
0.804764
0.860524
0.798662
0.812721
0.814699
0.871915
0.597675
0.813444
0.842428
0.883314
0.530542
0.81639
0.829946
0.796142
0.814749
0.794948
0.867592
0.812192
0.831339
0.812712
0.619391
0.802397
0.804148
0.690893
0.853135
0.759766
0.801809
0.813962
0.812699
0.859708
0.795352
0.833605
0.834712
0.784292
0.825176
0.84236
0.799742
0.810493
0.806959
0.805316
0.814833
0.802633
0.845216
0.769254
0.809782
0.803163
0.815208
0.723156
0.812881
0.818342
0.752605
0.813571
0.816345
0.82757
0.825106
0.800721
0.80066
0.850495
0.767931
0.825134
0.844199
0.804558
0.50577
0.812886
0.82827
0.852382
0.812634
0.80315
0.808531
0.855042
0.780079
0.802586
0.801238
0.812923
0.72717
0.802724
0.830001
0.808016
0.794974
0.793512
0.843192
0.806608
0.845313
0.802022
0.82424
0.812752
0.804219
0.841848
0.812855
0.679488
0.818768
0.807101
0.812824
0.906143
0.80081
0.815886
0.800487
0.800404
0.816193
0.800509
0.803363
0.78373
0.747352
0.806497
0.812885
0.758026
0.791404
0.823014
0.813019
0.822248
0.806317
0.825764
0.875302
0.830641
0.574943
0.70882
0.840747
0.817279
0.844151
0.814752
0.850098
0.807341
0.812397
0.799355
0.838403
0.860927
0.852786
0.731546
0.814077
0.822169
0.743961
0.817107
0.775944
0.800228
0.733091
0.816055
0.830858
0.823468
0.861853
0.814205
0.813288
0.810177
0.814634
0.835788
0.812202
0.798669
0.810234
0.737571
0.811339
0.774177
0.832834
0.81277
0.638833
0.777641
0.811148
0.799187
0.819819
0.802482
0.814666
0.817291
0.804463
0.81939
0.804165
0.805855
0.597342
0.847038
0.825124
0.826696
0.814926
0.803223
0.701861
0.806486
0.907833
0.81358
0.801039
0.812877
0.782285
0.807261
0.813277
0.821279
0.81464
0.813218
0.816231
0.70177
0.777855
0.764596
0.812653
0.805321
0.801035
0.621371
0.80572
0.80264
0.708227
0.837196
0.817191
0.802202
0.807459
0.799409
0.817242
0.813932
0.81328
0.812869
0.709698
0.83169
0.800284
0.807416
0.842809
0.817626
0.816286
0.800185
0.753666
0.823829
0.78742
0.821428
0.789417
0.805643
0.820946
0.737528
0.817397
0.650677
0.872025
0.704354
0.845002
0.800805
0.875156
0.793713
0.801681
0.820665
0.836228
0.838409
0.825465
0.819822
0.814704
0.801131
0.804185
0.808246
0.725785
0.827236
0.800085
0.719657
0.83053
0.705943
0.80001
0.860407
0.805583
0.701504
0.797848
0.81408
0.704966
0.785659
0.819378
0.831854
0.80696
0.573901
0.728674
0.812388
0.801335
0.812917
0.800678
0.737233
0.814008
0.815711
0.812484
0.775366
0.803266
0.804495
0.803581
0.560486
0.812706
0.834103
0.579883
0.815159
0.816097
0.81469
0.818354
0.814415
0.824533
0.799089
0.795124
0.771031
0.822895
0.829663
0.825103
0.834887
0.765362
0.808998
0.724453
0.772377
0.80881
0.821067
0.813278
0.800974
0.858302
0.812922
0.800337
0.80959
0.816089
0.815182
0.836625
0.814488
0.812801
0.811982
0.813812
0.80015
0.820989
0.803769
0.822824
0.813461
0.575609
0.813508
0.834459
0.858083
0.838183
0.490877
0.816802
0.804527
0.496668
0.669422
0.643328
0.834294
0.807976
0.811652
0.812794
0.803205
0.816743
0.81096
0.534633
0.686538
0.818237
0.806627
0.815609
0.803509
0.810239
0.810904
0.820232
0.799523
0.692338
0.855933
0.803151
0.814719
0.813617
0.757785
0.485817
0.832889
0.813545
0.741978
0.802703
0.80621
0.591021
0.827525
0.814777
0.827715
0.818775
0.825987
0.804732
0.719466
0.64358
0.562106
0.825311
0.808523
0.782976
0.812965
0.779802
0.817884
0.873312
0.762374
0.821604
0.81352
0.825832
0.883562
0.814436
0.81183
0.803266
0.813866
0.691758
0.828203
0.799886
0.810171
0.80221
0.784253
0.854158
0.822036
0.840481
0.821518
0.757591
0.755909
0.803317
0.818096
0.803065
0.805245
0.802589
0.775658
0.814678
0.761589
0.821155
0.662082
0.813967
0.802962
0.735705
0.823252
0.817971
0.739999
0.801166
0.757222
0.880662
0.800723
0.812833
0.762689
0.800093
0.814266
0.80395
0.589897
0.820939
0.798661
0.801348
0.814519
0.825607
0.757145
0.80553
0.841632
0.826943
0.814097
0.835833
0.700728
0.700159
0.812918
0.744168
0.822212
0.771374
0.812825
0.80252
0.810398
0.751964
0.794198
0.764337
0.809887
0.803144
0.631215
0.779022
0.799237
0.849013
0.814361
0.828645
0.526533
0.825336
0.785141
0.858733
0.800942
0.817982
0.800289
0.785788
0.798751
0.825706
0.835761
0.821763
0.817112
0.706961
0.773839
0.815355
0.805381
0.809971
0.803908
0.706824
0.792831
0.80347
0.810658
0.82718
0.851208
0.831846
0.813458
0.799435
0.804234
0.802029
0.779638
0.611636
0.800326
0.731309
0.661926
0.822799
0.798849
0.777272
0.799981
0.754167
0.785298
0.811449
0.822189
0.803342
0.816001
0.817348
0.820658
0.813382
0.808474
0.712159
0.699405
0.64092
0.829272
0.869565
0.815361
0.84135
0.847833
0.863735
0.7357
0.81658
0.863009
0.810189
0.812863
0.816189
0.732798
0.812418
0.806658
0.806196
0.517305
0.812957
0.761182
0.813149
0.813785
0.803542
0.705543
0.81319
0.610634
0.825026
0.80228
0.822236
0.85516
0.80343
0.795371
0.820925
0.811571
0.805706
0.762256
0.509892
0.820889
0.803085
0.828927
0.825755
0.802098
0.807024
0.834461
0.720835
0.500467
0.886259
0.800584
0.81568
0.804322
0.710471
0.798633
0.800006
0.815055
0.736088
0.646517
0.883247
0.714162
0.836543
0.811976
0.832882
0.842657
0.792177
0.804744
0.813587
0.852776
0.738321
0.870701
0.814007
0.562827
0.802459
0.748921
0.852908
0.760297
0.804217
0.803953
0.799631
0.80159
0.80887
0.812898
0.855559
0.805987
0.802866
0.801311
0.800005
0.812231
0.816864
0.802617
0.812475
0.849202
0.803098
0.783451
0.802237
0.839594
0.725038
0.813619
0.813817
0.637814
0.71311
0.805545
0.823015
0.803554
0.511764
0.856327
0.813203
0.832998
0.805305
0.803313
0.801339
0.786242
0.58719
0.804294
0.816092
0.835984
0.820556
0.81294
0.798159
0.746954
0.801568
0.765784
0.787535
0.799332
0.790962
0.751091
0.800838
0.811459
0.810361
0.832194
0.849073
0.553281
0.841897
0.812833
0.820847
0.801999
0.822659
0.811066
0.894612
0.800233
0.867103
0.805686
0.759771
0.862119
0.802278
0.800243
0.824151
0.660409
0.645296
0.803395
0.803855
0.704941
0.654312
0.7999
0.823843
0.813019
0.822578
0.732964
0.817179
0.812831
0.826123
0.816939
0.811941
0.812854
0.754583
0.803894
0.815668
0.81132
0.676228
0.566457
0.812891
0.65001
0.721929
0.55513
0.84139
0.80012
0.527003
0.600781
0.827509
0.908065
0.818136
0.652324
0.814148
0.786433
0.801715
0.786386
0.820648
0.810095
0.788282
0.821045
0.801003
0.587685
0.817815
0.766673
0.815919
0.700909
0.822211
0.789638
0.813939
0.800046
0.66288
0.843507
0.806547
0.806612
0.493612
0.816822
0.80038
0.852162
0.711338
0.817076
0.583991
0.718924
0.8014
0.796661
0.732747
0.715549
0.715969
0.507023
0.589644
0.799985
0.517559
0.82259
0.520286
0.757191
0.671277
0.599341
0.540631
0.745433
0.803081
0.715169
0.821286
0.800934
0.802937
0.761193
0.889676
0.799043
0.824472
0.803429
0.812778
0.705964
0.807566
0.736698
0.8219
0.886036
0.833565
0.747716
0.822779
0.770491
0.879899
0.804195
0.758664
0.850678
0.77686
0.799926
0.805288
0.758232
0.744618
0.665405
0.804984
0.803023
0.817898
0.833482
0.611492
0.80791
0.538126
0.668596
0.616341
0.818512
0.821032
0.808987
0.803975
0.615687
0.872455
0.802677
0.802945
0.863512
0.812414
0.772024
0.812151
0.802366
0.817892
0.803145
0.717043
0.803363
0.655357
0.799002
0.804089
0.801546
0.639171
0.811521
0.810299
0.72564
0.817797
0.549148
0.576712
0.804145
0.696484
0.725945
0.57211
0.723616
0.813611
0.707514
0.772975
0.716692
0.812797
0.670205
0.762106
0.806447
0.810597
0.654515
0.801946
0.895153
0.796698
0.816785
0.585187
0.693811
0.80093
0.812933
0.813998
0.851652
0.812634
0.804253
0.803726
0.803337
0.7138
0.717559
0.615633
0.77147
0.532807
0.723913
0.809909
0.814398
0.806126
0.799262
0.536258
0.809055
0.803757
0.553995
0.543344
0.746594
0.803572
0.806169
0.549344
0.798215
0.569602
0.720497
0.607786
0.813532
0.802252
0.597053
0.608298
0.867891
0.810036
0.765408
0.717858
0.621699
0.655332
0.709744
0.816001
0.759774
0.765501
0.624021
0.75387
0.809299
0.815354
0.812442
0.815461
0.865605
0.754689
0.81892
0.803333
0.851274
0.812846
0.802773
0.813066
0.722549
0.812937
0.811981
0.815173
0.811141
0.815881
0.803271
0.817914
0.810376
0.809727
0.817255
0.800113
0.816582
0.81894
0.667476
0.818596
0.86841
0.818156
0.792926
0.645914
0.858574
0.818776
0.824876
0.799539
0.811198
0.757504
0.852538
0.559377
0.726654
0.809859
0.815654
0.803873
0.80336
0.832037
0.805021
0.8052
0.81525
0.780711
0.838543
0.841937
0.815197
0.664319
0.612365
0.815753
0.816608
0.7883
0.84962
0.84725
0.810842
0.813617
0.777754
0.814075
0.81782
0.814099
0.818763
0.813089
0.81581
0.851035
0.815956
0.814489
0.81754
0.817754
0.784891
0.814106
0.804047
0.804123
0.80461
0.818555
0.81147
0.788343
0.753965
0.812656
0.806275
0.808766
0.806375
0.857763
0.803341
0.813982
0.812679
0.805184
0.565901
0.803885
0.812723
0.81501
0.81031
0.812766
0.813283
0.813006
0.810174
0.864385
0.501562
0.812796
0.84165
0.812632
0.802961
0.80841
0.814984
0.839667
0.800442
0.801208
0.8126
0.705944
0.812814
0.80821
0.807346
0.812535
0.812865
0.813008
0.813341
0.511825
0.811864
0.715792
0.885837
0.821042
0.733404
0.671405
0.815346
0.803504
0.818711
0.646494
0.801656
0.813312
0.64798
0.799847
0.804093
0.815425
0.806265
0.85673
0.809846
0.60693
0.800825
0.775171
0.811212
0.889068
0.803275
0.81551
0.819309
0.832194
0.813378
0.822383
0.836329
0.634969
0.802619
0.655779
0.813726
0.813627
0.712521
0.813512
0.804806
0.713119
0.814907
0.70128
0.861065
0.784085
0.814277
0.81287
0.813407
0.66789
0.813633
0.633293
0.800193
0.792365
0.822278
0.815161
0.716024
0.766695
0.830034
0.812732
0.821287
0.821886
0.813416
0.825315
0.799494
0.552094
0.754898
0.759205
0.731409
0.837592
0.822344
0.834328
0.776025
0.802759
0.813005
0.812927
0.81293
0.774635
0.563816
0.803202
0.528546
0.808188
0.824265
0.799696
0.803757
0.812948
0.806011
0.782613
0.73219
0.813364
0.859134
0.813683
0.799284
0.736912
0.809598
0.788716
0.833705
0.503904
0.795975
0.805887
0.798868
0.689129
0.812818
0.810737
0.85706
0.569076
0.807331
0.803268
0.8128
0.612538
0.813063
0.803332
0.803401
0.803025
0.813175
0.813273
0.816084
0.813014
0.717841
0.804499
0.803199
0.812963
0.896157
0.81312
0.773978
0.841138
0.799178
0.803132
0.60134
0.812857
0.803356
0.825647
0.801965
0.866213
0.814807
0.853404
0.800334
0.820611
0.777875
0.558299
0.752696
0.794231
0.803918
0.813931
0.813778
0.555511
0.861772
0.857907
0.768463
0.757663
0.738516
0.812053
0.848401
0.812895
0.813694
0.812929
0.80427
0.726761
0.803498
0.799101
0.764208
0.824237
0.822972
0.86183
0.815623
0.812941
0.524613
0.808883
0.8129
0.800703
0.773962
0.818063
0.803109
0.812852
0.82686
0.798445
0.803579
0.801214
0.81515
0.839095
0.802365
0.799158
0.801487
0.766089
0.819837
0.567079
0.868365
0.803685
0.545746
0.803154
0.803115
0.819555
0.591921
0.606156
0.801548
0.803629
0.800842
0.860717
0.779925
0.814602
0.802934
0.86572
0.80471
0.804447
0.826295
0.815919
0.820086
0.821244
0.820293
0.867465
0.729259
0.852131
0.817166
0.653672
0.802535
0.803181
0.803634
0.821088
0.823473
0.803961
0.80108
0.800045
0.822643
0.80319
0.803602
0.799656
0.824351
0.803968
0.801989
0.806072
0.827832
0.800535
0.801518
0.824252
0.799579
0.815344
0.651269
0.826353
0.849821
0.804861
0.819536
0.803227
0.828713
0.837464
0.803394
0.82144
0.800527
0.806969
0.789547
0.802152
0.803151
0.806351
0.805891
0.804506
0.818507
0.814707
0.811229
0.831374
0.802174
0.802216
0.799897
0.788995
0.833754
0.803141
0.819264
0.815168
0.807097
0.805028
0.802946
0.838876
0.864731
0.799566
0.678942
0.801177
0.842119
0.816552
0.805119
0.804459
0.819679
0.844566
0.601699
0.828745
0.794478
0.850357
0.81869
0.811986
0.813261
0.808222
0.803951
0.812759
0.808744
0.591837
0.847954
0.794593
0.814138
0.854561
0.819238
0.763173
0.808623
0.814409
0.81542
0.80296
0.661691
0.809194
0.86313
0.802561
0.800699
0.775404
0.871199
0.800425
0.877052
0.806667
0.817122
0.820572
0.802216
0.803812
0.812558
0.815838
0.803462
0.813279
0.8167
0.881334
0.820678
0.809288
0.800129
0.828377
0.810471
0.838841
0.808796
0.806935
0.812109
0.816503
0.829878
0.813613
0.822495
0.832488
0.814152
0.699697
0.690824
0.812996
0.8177
0.803801
0.813075
0.51408
0.854849
0.799754
0.806218
0.813888
0.813435
0.803953
0.812431
0.800468
0.801199
0.808016
0.8147
0.756879
0.784628
0.8229
0.84267
0.834779
0.80025
0.805049
0.803351
0.8129
0.805691
0.799516
0.799784
0.801001
0.810879
0.7978
0.802741
0.835457
0.831309
0.729829
0.66706
0.807568
0.698599
0.799488
0.572268
0.804401
0.80692
0.803096
0.818119
0.833759
0.813875
0.812808
0.810255
0.803839
0.881503
0.81622
0.804791
0.772246
0.585943
0.810228
0.806613
0.769351
0.814366
0.813824
0.791459
0.800695
0.804024
0.624697
0.830413
0.803497
0.781478
0.779294
0.852685
0.809979
0.802874
0.802595
0.81019
0.811049
0.518711
0.801776
0.839457
0.813874
0.798562
0.588751
0.814513
0.814019
0.812897
0.833693
0.813866
0.803921
0.821848
0.805579
0.575787
0.808621
0.73652
0.798495
0.813583
0.722191
0.814876
0.845977
0.831586
0.664487
0.890888
0.785575
0.7774
0.796863
0.779511
0.808602
0.849951
0.807966
0.802859
0.813496
0.808814
0.782601
0.785914
0.81383
0.808307
0.834815
0.821227
0.83565
0.801259
0.79965
0.812992
0.856586
0.816418
0.818331
0.813292
0.607341
0.795513
0.823847
0.829312
0.865874
0.81255
0.818903
0.508742
0.809695
0.800584
0.812556
0.814713
0.847554
0.812997
0.811076
0.881481
0.764529
0.812533
0.813182
0.808976
0.805202
0.814174
0.655907
0.80049
0.849499
0.833482
0.810574
0.813511
0.813312
0.809554
0.698979
0.812447
0.80016
0.838532
0.818426
0.81158
0.831285
0.792693
0.811501
0.817765
0.808785
0.81924
0.744249
0.854724
0.818915
0.813755
0.813
0.812648
0.815665
0.817106
0.812694
0.810737
0.84104
0.818545
0.800148
0.825252
0.826906
0.816013
0.814441
0.800357
0.801504
0.812989
0.818975
0.829375
0.81274
0.816405
0.799822
0.809911
0.812777
0.812743
0.802491
0.81461
0.813272
0.803233
0.812801
0.835617
0.800015
0.809382
0.821502
0.559983
0.814158
0.818114
0.815466
0.814955
0.821918
0.828782
0.815569
0.818785
0.701432
0.813001
0.801327
0.815563
0.818969
0.835032
0.821516
0.815506
0.829327
0.824894
0.810618
0.819167
0.819503
0.804179
0.813098
0.81555
0.819423
0.83207
0.812571
0.815644
0.802711
0.812874
0.812992
0.522649
0.627666
0.814331
0.82139
0.801725
0.822421
0.815852
0.841832
0.708113
0.813687
0.73046
0.817354
0.810264
0.813103
0.829307
0.813598
0.804858
0.81286
0.830041
0.839283
0.812738
0.719187
0.819231
0.815977
0.799914
0.803025
0.815255
0.855896
0.812589
0.813314
0.849665
0.82896
0.843234
0.573472
0.829065
0.813886
0.810844
0.817347
0.850496
0.817711
0.71839
0.799537
0.831718
0.799768
0.799724
0.805385
0.747825
0.813338
0.814289
0.725428
0.8143
0.827298
0.813258
0.813975
0.799217
0.818323
0.812925
0.823518
0.808688
0.808156
0.814917
0.705371
0.819022
0.814024
0.81291
0.639898
0.718704
0.599369
0.823233
0.529673
0.853802
0.727318
0.842764
0.812468
0.722738
0.821373
0.815828
0.742545
0.807648
0.8183
0.794399
0.816468
0.815807
0.815737
0.812925
0.807836
0.803657
0.737287
0.836115
0.820116
0.816554
0.799222
0.815392
0.801996
0.815951
0.813401
0.854596
0.817718
0.49709
0.813248
0.818735
0.818608
0.778044
0.815704
0.806713
0.818535
0.845335
0.59643
0.809095
0.7993
0.815263
0.817565
0.817635
0.812391
0.818545
0.813801
0.814525
0.803067
0.814222
0.846073
0.813877
0.791994
0.811434
0.622529
0.718718
0.813003
0.816938
0.802928
0.822249
0.735446
0.803148
0.803182
0.820152
0.626933
0.817539
0.799348
0.815358
0.864647
0.78548
0.821895
0.817921
0.82275
0.81396
0.769588
0.80242
0.813506
0.902286
0.827126
0.81637
0.832171
0.809548
0.868186
0.719355
0.688262
0.852314
0.802698
0.664194