# vtk DataFile Version 1.0
unstructured grid
ascii
DATASET UNSTRUCTURED_GRID
points 7812 float
-1 0 0
-1 1 0
2 0 0
2 1 0
0 0 0
1 0 0
-1 1 0.1
-1 0 0.1
0 0 0.1
1 0 0.1
2 0 0.1
2 1 0.1
-0.99 0 0
-0.98 0 0
-0.97 0 0
-0.96 0 0
-0.95 0 0
-0.94 0 0
-0.93 0 0
-0.92 0 0
-0.91 0 0
-0.9 0 0
-0.89 0 0
-0.88 0 0
-0.87 0 0
-0.86 0 0
-0.85 0 0
-0.84 0 0
-0.83 0 0
-0.82 0 0
-0.81 0 0
-0.8 0 0
-0.79 0 0
-0.78 0 0
-0.77 0 0
-0.76 0 0
-0.75 0 0
-0.74 0 0
-0.73 0 0
-0.72 0 0
-0.71 0 0
-0.7 0 0
-0.69 0 0
-0.68 0 0
-0.67 0 0
-0.66 0 0
-0.65 0 0
-0.64 0 0
-0.63 0 0
-0.62 0 0
-0.61 0 0
-0.6 0 0
-0.59 0 0
-0.58 0 0
-0.57 0 0
-0.56 0 0
-0.55 0 0
-0.54 0 0
-0.53 0 0
-0.52 0 0
-0.51 0 0
-0.5 0 0
-0.49 0 0
-0.48 0 0
-0.47 0 0
-0.46 0 0
-0.45 0 0
-0.44 0 0
-0.43 0 0
-0.42 0 0
-0.41 0 0
-0.4 0 0
-0.39 0 0
-0.38 0 0
-0.37 0 0
-0.36 0 0
-0.35 0 0
-0.34 0 0
-0.33 0 0
-0.32 0 0
-0.31 0 0
-0.3 0 0
-0.29 0 0
-0.28 0 0
-0.27 0 0
-0.26 0 0
-0.25 0 0
-0.24 0 0
-0.23 0 0
-0.22 0 0
-0.21 0 0
-0.2 0 0
-0.19 0 0
-0.18 0 0
-0.17 0 0
-0.16 0 0
-0.15 0 0
-0.14 0 0
-0.13 0 0
-0.12 0 0
-0.11 0 0
-0.1 0 0
-0.09 0 0
-0.08 0 0
-0.07 0 0
-0.06 0 0
-0.05 0 0
-0.04 0 0
-0.03 0 0
-0.02 0 0
-0.01 0 0
1.01 0 0
1.02 0 0
1.03 0 0
1.04 0 0
1.05 0 0
1.06 0 0
1.07 0 0
1.08 0 0
1.09 0 0
1.1 0 0
1.11 0 0
1.12 0 0
1.13 0 0
1.14 0 0
1.15 0 0
1.16 0 0
1.17 0 0
1.18 0 0
1.19 0 0
1.2 0 0
1.21 0 0
1.22 0 0
1.23 0 0
1.24 0 0
1.25 0 0
1.26 0 0
1.27 0 0
1.28 0 0
1.29 0 0
1.3 0 0
1.31 0 0
1.32 0 0
1.33 0 0
1.34 0 0
1.35 0 0
1.36 0 0
1.37 0 0
1.38 0 0
1.39 0 0
1.4 0 0
1.41 0 0
1.42 0 0
1.43 0 0
1.44 0 0
1.45 0 0
1.46 0 0
1.47 0 0
1.48 0 0
1.49 0 0
1.5 0 0
1.51 0 0
1.52 0 0
1.53 0 0
1.54 0 0
1.55 0 0
1.56 0 0
1.57 0 0
1.58 0 0
1.59 0 0
1.6 0 0
1.61 0 0
1.62 0 0
1.63 0 0
1.64 0 0
1.65 0 0
1.66 0 0
1.67 0 0
1.68 0 0
1.69 0 0
1.7 0 0
1.71 0 0
1.72 0 0
1.73 0 0
1.74 0 0
1.75 0 0
1.76 0 0
1.77 0 0
1.78 0 0
1.79 0 0
1.8 0 0
1.81 0 0
1.82 0 0
1.83 0 0
1.84 0 0
1.85 0 0
1.86 0 0
1.87 0 0
1.88 0 0
1.89 0 0
1.9 0 0
1.91 0 0
1.92 0 0
1.93 0 0
1.94 0 0
1.95 0 0
1.96 0 0
1.97 0 0
1.98 0 0
1.99 0 0
2 0.010289 0
2 0.0215307 0
2 0.0338135 0
2 0.0472336 0
2 0.0618965 0
2 0.0779171 0
2 0.0954213 0
2 0.114546 0
2 0.135442 0
2 0.158274 0
2 0.183219 0
2 0.210474 0
2 0.240253 0
2 0.27279 0
2 0.308339 0
2 0.347181 0
2 0.389619 0
2 0.435987 0
2 0.486649 0
2 0.542002 0
2 0.602481 0
2 0.66856 0
2 0.740758 0
2 0.819642 0
2 0.90583 0
1.9 1 0
1.8 1 0
1.7 1 0
1.6 1 0
1.5 1 0
1.4 1 0
1.3 1 0
1.2 1 0
1.1 1 0
1 1 0
0.9 1 0
0.8 1 0
0.7 1 0
0.6 1 0
0.5 1 0
0.4 1 0
0.3 1 0
0.2 1 0
0.1 1 0
3.69793e-12 1 0
-0.1 1 0
-0.2 1 0
-0.3 1 0
-0.4 1 0
-0.5 1 0
-0.6 1 0
-0.7 1 0
-0.8 1 0
-0.9 1 0
-1 0.90583 0
-1 0.819642 0
-1 0.740758 0
-1 0.66856 0
-1 0.602481 0
-1 0.542002 0
-1 0.486649 0
-1 0.435987 0
-1 0.389619 0
-1 0.347181 0
-1 0.308339 0
-1 0.27279 0
-1 0.240253 0
-1 0.210474 0
-1 0.183219 0
-1 0.158274 0
-1 0.135442 0
-1 0.114546 0
-1 0.0954213 0
-1 0.0779171 0
-1 0.0618965 0
-1 0.0472336 0
-1 0.0338135 0
-1 0.0215307 0
-1 0.010289 0
0.00921362 0.00379763 0
0.0184561 0.00752451 0
0.0277268 0.0111804 0
0.0370253 0.0147652 0
0.0463511 0.0182786 0
0.0557034 0.0217203 0
0.0650819 0.0250903 0
0.074486 0.0283883 0
0.083915 0.0316141 0
0.0933685 0.0347675 0
0.102846 0.0378484 0
0.112347 0.0408565 0
0.12187 0.0437917 0
0.131416 0.0466538 0
0.140983 0.0494427 0
0.150572 0.0521581 0
0.160181 0.0547999 0
0.16981 0.0573681 0
0.179458 0.0598623 0
0.189125 0.0622825 0
0.198811 0.0646285 0
0.208514 0.0669001 0
0.218234 0.0690974 0
0.227971 0.07122 0
0.237724 0.073268 0
0.247493 0.0752411 0
0.257276 0.0771393 0
0.267073 0.0789625 0
0.276884 0.0807105 0
0.286708 0.0823832 0
0.296545 0.0839806 0
0.306394 0.0855025 0
0.316254 0.0869488 0
0.326125 0.0883196 0
0.336006 0.0896146 0
0.345896 0.0908339 0
0.355796 0.0919773 0
0.365704 0.0930447 0
0.375621 0.0940362 0
0.385544 0.0949517 0
0.395474 0.095791 0
0.40541 0.0965542 0
0.415352 0.0972412 0
0.425299 0.097852 0
0.43525 0.0983865 0
0.445205 0.0988447 0
0.455164 0.0992266 0
0.465125 0.0995321 0
0.475088 0.0997613 0
0.485052 0.0999141 0
0.495017 0.0999904 0
0.504983 0.0999904 0
0.514948 0.0999141 0
0.524912 0.0997613 0
0.534875 0.0995321 0
0.544836 0.0992266 0
0.554795 0.0988447 0
0.56475 0.0983865 0
0.574701 0.097852 0
0.584648 0.0972412 0
0.59459 0.0965542 0
0.604526 0.095791 0
0.614456 0.0949517 0
0.624379 0.0940362 0
0.634296 0.0930447 0
0.644204 0.0919773 0
0.654104 0.0908339 0
0.663994 0.0896146 0
0.673875 0.0883196 0
0.683746 0.0869488 0
0.693606 0.0855025 0
0.703455 0.0839806 0
0.713292 0.0823832 0
0.723116 0.0807105 0
0.732927 0.0789625 0
0.742724 0.0771393 0
0.752508 0.0752411 0
0.762276 0.073268 0
0.772029 0.07122 0
0.781766 0.0690974 0
0.791486 0.0669001 0
0.801189 0.0646285 0
0.810875 0.0622825 0
0.820542 0.0598623 0
0.83019 0.0573681 0
0.839819 0.0547999 0
0.849428 0.0521581 0
0.859017 0.0494427 0
0.868584 0.0466538 0
0.87813 0.0437917 0
0.887653 0.0408565 0
0.897154 0.0378484 0
0.906631 0.0347675 0
0.916085 0.0316141 0
0.925514 0.0283883 0
0.934918 0.0250903 0
0.944297 0.0217203 0
0.953649 0.0182786 0
0.962975 0.0147652 0
0.972273 0.0111804 0
0.981544 0.00752451 0
0.990786 0.00379763 0
-1 0.90583 0.1
-1 0.819642 0.1
-1 0.740758 0.1
-1 0.66856 0.1
-1 0.602481 0.1
-1 0.542002 0.1
-1 0.486649 0.1
-1 0.435987 0.1
-1 0.389619 0.1
-1 0.347181 0.1
-1 0.308339 0.1
-1 0.27279 0.1
-1 0.240253 0.1
-1 0.210474 0.1
-1 0.183219 0.1
-1 0.158274 0.1
-1 0.135442 0.1
-1 0.114546 0.1
-1 0.0954213 0.1
-1 0.0779171 0.1
-1 0.0618965 0.1
-1 0.0472336 0.1
-1 0.0338135 0.1
-1 0.0215307 0.1
-1 0.010289 0.1
-0.99 0 0.1
-0.98 0 0.1
-0.97 0 0.1
-0.96 0 0.1
-0.95 0 0.1
-0.94 0 0.1
-0.93 0 0.1
-0.92 0 0.1
-0.91 0 0.1
-0.9 0 0.1
-0.89 0 0.1
-0.88 0 0.1
-0.87 0 0.1
-0.86 0 0.1
-0.85 0 0.1
-0.84 0 0.1
-0.83 0 0.1
-0.82 0 0.1
-0.81 0 0.1
-0.8 0 0.1
-0.79 0 0.1
-0.78 0 0.1
-0.77 0 0.1
-0.76 0 0.1
-0.75 0 0.1
-0.74 0 0.1
-0.73 0 0.1
-0.72 0 0.1
-0.71 0 0.1
-0.7 0 0.1
-0.69 0 0.1
-0.68 0 0.1
-0.67 0 0.1
-0.66 0 0.1
-0.65 0 0.1
-0.64 0 0.1
-0.63 0 0.1
-0.62 0 0.1
-0.61 0 0.1
-0.6 0 0.1
-0.59 0 0.1
-0.58 0 0.1
-0.57 0 0.1
-0.56 0 0.1
-0.55 0 0.1
-0.54 0 0.1
-0.53 0 0.1
-0.52 0 0.1
-0.51 0 0.1
-0.5 0 0.1
-0.49 0 0.1
-0.48 0 0.1
-0.47 0 0.1
-0.46 0 0.1
-0.45 0 0.1
-0.44 0 0.1
-0.43 0 0.1
-0.42 0 0.1
-0.41 0 0.1
-0.4 0 0.1
-0.39 0 0.1
-0.38 0 0.1
-0.37 0 0.1
-0.36 0 0.1
-0.35 0 0.1
-0.34 0 0.1
-0.33 0 0.1
-0.32 0 0.1
-0.31 0 0.1
-0.3 0 0.1
-0.29 0 0.1
-0.28 0 0.1
-0.27 0 0.1
-0.26 0 0.1
-0.25 0 0.1
-0.24 0 0.1
-0.23 0 0.1
-0.22 0 0.1
-0.21 0 0.1
-0.2 0 0.1
-0.19 0 0.1
-0.18 0 0.1
-0.17 0 0.1
-0.16 0 0.1
-0.15 0 0.1
-0.14 0 0.1
-0.13 0 0.1
-0.12 0 0.1
-0.11 0 0.1
-0.1 0 0.1
-0.09 0 0.1
-0.08 0 0.1
-0.07 0 0.1
-0.06 0 0.1
-0.05 0 0.1
-0.04 0 0.1
-0.03 0 0.1
-0.02 0 0.1
-0.01 0 0.1
0.00921362 0.00379763 0.1
0.0184561 0.00752451 0.1
0.0277268 0.0111804 0.1
0.0370253 0.0147652 0.1
0.0463511 0.0182786 0.1
0.0557034 0.0217203 0.1
0.0650819 0.0250903 0.1
0.074486 0.0283883 0.1
0.083915 0.0316141 0.1
0.0933685 0.0347675 0.1
0.102846 0.0378484 0.1
0.112347 0.0408565 0.1
0.12187 0.0437917 0.1
0.131416 0.0466538 0.1
0.140983 0.0494427 0.1
0.150572 0.0521581 0.1
0.160181 0.0547999 0.1
0.16981 0.0573681 0.1
0.179458 0.0598623 0.1
0.189125 0.0622825 0.1
0.198811 0.0646285 0.1
0.208514 0.0669001 0.1
0.218234 0.0690974 0.1
0.227971 0.07122 0.1
0.237724 0.073268 0.1
0.247493 0.0752411 0.1
0.257276 0.0771393 0.1
0.267073 0.0789625 0.1
0.276884 0.0807105 0.1
0.286708 0.0823832 0.1
0.296545 0.0839806 0.1
0.306394 0.0855025 0.1
0.316254 0.0869488 0.1
0.326125 0.0883196 0.1
0.336006 0.0896146 0.1
0.345896 0.0908339 0.1
0.355796 0.0919773 0.1
0.365704 0.0930447 0.1
0.375621 0.0940362 0.1
0.385544 0.0949517 0.1
0.395474 0.095791 0.1
0.40541 0.0965542 0.1
0.415352 0.0972412 0.1
0.425299 0.097852 0.1
0.43525 0.0983865 0.1
0.445205 0.0988447 0.1
0.455164 0.0992266 0.1
0.465125 0.0995321 0.1
0.475088 0.0997613 0.1
0.485052 0.0999141 0.1
0.495017 0.0999904 0.1
0.504983 0.0999904 0.1
0.514948 0.0999141 0.1
0.524912 0.0997613 0.1
0.534875 0.0995321 0.1
0.544836 0.0992266 0.1
0.554795 0.0988447 0.1
0.56475 0.0983865 0.1
0.574701 0.097852 0.1
0.584648 0.0972412 0.1
0.59459 0.0965542 0.1
0.604526 0.095791 0.1
0.614456 0.0949517 0.1
0.624379 0.0940362 0.1
0.634296 0.0930447 0.1
0.644204 0.0919773 0.1
0.654104 0.0908339 0.1
0.663994 0.0896146 0.1
0.673875 0.0883196 0.1
0.683746 0.0869488 0.1
0.693606 0.0855025 0.1
0.703455 0.0839806 0.1
0.713292 0.0823832 0.1
0.723116 0.0807105 0.1
0.732927 0.0789625 0.1
0.742724 0.0771393 0.1
0.752508 0.0752411 0.1
0.762276 0.073268 0.1
0.772029 0.07122 0.1
0.781766 0.0690974 0.1
0.791486 0.0669001 0.1
0.801189 0.0646285 0.1
0.810875 0.0622825 0.1
0.820542 0.0598623 0.1
0.83019 0.0573681 0.1
0.839819 0.0547999 0.1
0.849428 0.0521581 0.1
0.859017 0.0494427 0.1
0.868584 0.0466538 0.1
0.87813 0.0437917 0.1
0.887653 0.0408565 0.1
0.897154 0.0378484 0.1
0.906631 0.0347675 0.1
0.916085 0.0316141 0.1
0.925514 0.0283883 0.1
0.934918 0.0250903 0.1
0.944297 0.0217203 0.1
0.953649 0.0182786 0.1
0.962975 0.0147652 0.1
0.972273 0.0111804 0.1
0.981544 0.00752451 0.1
0.990786 0.00379763 0.1
1.01 0 0.1
1.02 0 0.1
1.03 0 0.1
1.04 0 0.1
1.05 0 0.1
1.06 0 0.1
1.07 0 0.1
1.08 0 0.1
1.09 0 0.1
1.1 0 0.1
1.11 0 0.1
1.12 0 0.1
1.13 0 0.1
1.14 0 0.1
1.15 0 0.1
1.16 0 0.1
1.17 0 0.1
1.18 0 0.1
1.19 0 0.1
1.2 0 0.1
1.21 0 0.1
1.22 0 0.1
1.23 0 0.1
1.24 0 0.1
1.25 0 0.1
1.26 0 0.1
1.27 0 0.1
1.28 0 0.1
1.29 0 0.1
1.3 0 0.1
1.31 0 0.1
1.32 0 0.1
1.33 0 0.1
1.34 0 0.1
1.35 0 0.1
1.36 0 0.1
1.37 0 0.1
1.38 0 0.1
1.39 0 0.1
1.4 0 0.1
1.41 0 0.1
1.42 0 0.1
1.43 0 0.1
1.44 0 0.1
1.45 0 0.1
1.46 0 0.1
1.47 0 0.1
1.48 0 0.1
1.49 0 0.1
1.5 0 0.1
1.51 0 0.1
1.52 0 0.1
1.53 0 0.1
1.54 0 0.1
1.55 0 0.1
1.56 0 0.1
1.57 0 0.1
1.58 0 0.1
1.59 0 0.1
1.6 0 0.1
1.61 0 0.1
1.62 0 0.1
1.63 0 0.1
1.64 0 0.1
1.65 0 0.1
1.66 0 0.1
1.67 0 0.1
1.68 0 0.1
1.69 0 0.1
1.7 0 0.1
1.71 0 0.1
1.72 0 0.1
1.73 0 0.1
1.74 0 0.1
1.75 0 0.1
1.76 0 0.1
1.77 0 0.1
1.78 0 0.1
1.79 0 0.1
1.8 0 0.1
1.81 0 0.1
1.82 0 0.1
1.83 0 0.1
1.84 0 0.1
1.85 0 0.1
1.86 0 0.1
1.87 0 0.1
1.88 0 0.1
[...]
CELL_DATA 7425
SCALARS rho float
LOOKUP_TABLE default
0.587577
0.805054
0.819658
0.827607
0.79954
0.819252
0.820988
0.814258
0.813124
0.738768
0.863531
0.810072
0.814023
0.827463
0.803817
0.817262
0.798866
0.813401
0.803484
0.76733
0.831358
0.82208
0.724931
0.828137
0.80389
0.703393
0.831288
0.848439
0.800184
0.807997
0.819447
0.725351
0.803631
0.65243
0.520044
0.828103
0.80352
0.814236
0.811182
0.828089
0.716284
0.703729
0.79007
0.701436
0.586965
0.748321
0.799412
0.813958
0.662719
0.719144
0.74634
0.805171
0.812384
0.799189
0.709491
0.645219
0.82301
0.800173
0.738639
0.701109
0.709942
0.807678
0.813371
0.799488
0.798795
0.817717
0.584754
0.773389
0.704176
0.80792
0.804255
0.803211
0.883431
0.821153
0.810878
0.813183
0.805067
0.800458
0.813377
0.757821
0.816094
0.807258
0.810419
0.788778
0.835964
0.801194
0.574831
0.830034
0.543088
0.84854
0.705687
0.729882
0.845399
0.803192
0.817508
0.758413
0.836133
0.788066
0.825719
0.802589
0.808207
0.738634
0.8033
0.828321
0.597567
0.811107
0.82446
0.707707
0.815116
0.799283
0.816819
0.784603
0.789896
0.812451
0.789803
0.786366
0.831336
0.803113
0.699604
0.63307
0.805066
0.777368
0.813088
0.790447
0.858989
0.838995
0.807716
0.804355
0.661445
0.504866
0.814596
0.655387
0.515879
0.867898
0.663155
0.799634
0.81113
0.723732
0.582393
0.725121
0.723544
0.809688
0.809778
0.70698
0.803225
0.779662
0.56585
0.788638
0.782549
0.827856
0.816841
0.704508
0.803007
0.74431
0.704886
0.80329
0.810473
0.830494
0.79765
0.65274
0.802552
0.702714
0.801201
0.829828
0.820559
0.802393
0.813204
0.784909
0.8063
0.800758
0.819812
0.804592
0.791301
0.799245
0.799965
0.740363
0.803799
0.758915
0.594624
0.705042
0.79979
0.792811
0.879826
0.831918
0.624749
0.823023
0.798754
0.827452
0.799979
0.813538
0.812756
0.803209
0.806967
0.704247
0.815131
0.819356
0.770171
0.797243
0.861331
0.807791
0.811888
0.811309
0.613191
0.839049
0.573418
0.532505
0.595828
0.601409
0.828237
0.879362
0.807545
0.798673
0.841432
0.813113
0.816791
0.820866
0.815321
0.638267
0.551382
0.813856
0.546155
0.593067
0.703092
0.811812
0.814188
0.813183
0.833212
0.813059
0.864394
0.709537
0.835289
0.713078
0.805193
0.803938
0.801995
0.714111
0.720771
0.619768
0.704917
0.863666
0.87561
0.806358
0.807716
0.798969
0.811599
0.716241
0.821706
0.800307
0.825782
0.794658
0.809989
0.721352
0.812959
0.82383
0.740036
0.529029
0.79995
0.736379
0.843364
0.814466
0.726464
0.815694
0.814962
0.849996
0.809641
0.803992
0.803267
0.825743
0.86081
0.805552
0.619519
0.848944
0.812108
0.805621
0.827627
0.837394
0.813126
0.821525
0.793539
0.815192
0.866802
0.849991
0.827423
0.836812
0.802708
0.817271
0.8032
0.759771
0.701621
0.581279
0.700382
0.802448
0.813034
0.816101
0.854874
0.779712
0.645998
0.827169
0.521602
0.774384
0.801076
0.64666
0.496935
0.639359
0.815316
0.813373
0.813112
0.812853
0.826804
0.774477
0.811498
0.802683
0.813056
0.840779
0.867296
0.833632
0.802784
0.705117
0.795986
0.834343
0.691801
0.79886
0.802076
0.864826
0.817211
0.593382
0.813526
0.740754
0.85246
0.732201
0.810242
0.907671
0.799984
0.795748
0.65922
0.635834
0.711312
0.780725
0.826627
0.815055
0.813823
0.882647
0.858348
0.799653
0.799244
0.826065
0.739419
0.802556
0.87942
0.801393
0.804822
0.800808
0.802584
0.813104
0.815837
0.816485
0.636595
0.830075
0.646237
0.808531
0.639707
0.802722
0.80226
0.840317
0.729002
0.816374
0.808683
0.817091
0.7996
0.802511
0.811287
0.697345
0.824503
0.8132
0.813066
0.800695
0.736849
0.560338
0.806434
0.811163
0.803202
0.813043
0.794822
0.504799
0.846113
0.81345
0.803864
0.785819
0.8134
0.804747
0.803114
0.816352
0.80753
0.822604
0.768703
0.812731
0.807795
0.563073
0.803232
0.640369
0.838811
0.636496
0.814817
0.877935
0.594022
0.818132
0.749097
0.804432
0.873376
0.534449
0.823214
0.822356
0.803511
0.825828
0.811121
0.823552
0.830719
0.824925
0.739953
0.827607
0.76165
0.810291
0.794274
0.793722
0.758721
0.805625
0.802098
0.814573
0.75245
0.804765
0.60478
0.614557
0.689493
0.81295
0.844259
0.864884
0.829954
0.798701
0.812792
0.804955
0.818611
0.680736
0.801078
0.743087
0.824117
0.814914
0.805518
0.711303
0.727415
0.534251
0.605908
0.801388
0.61167
0.792697
0.765432
0.770138
0.726924
0.762588
0.767668
0.809572
0.815053
0.819654
0.81161
0.710839
0.603172
0.839099
0.807044
0.7832
0.809959
0.802618
0.836632
0.718588
0.855339
0.763722
0.728698
0.764666
0.811629
0.545571
0.798942
0.841684
0.813376
0.813917
0.809848
0.799287
0.780441
0.835761
0.803121
0.84304
0.721227
0.707164
0.800411
0.795248
0.822117
0.708976
0.848023
0.800545
0.816167
0.798842
0.779233
0.808387
0.594961
0.677665
0.632674
0.813063
0.803895
0.826442
0.74938
0.810618
0.814922
0.820495
0.799095
0.729655
0.797
0.814423
0.803211
0.703731
0.813726
0.819009
0.84009
0.810923
0.825428
0.862334
0.85732
0.744138
0.603746
0.838087
0.805879
0.843435
0.814355
0.822983
0.813658
0.813935
0.636469
0.805311
0.809409
0.812975
0.791994
0.810669
0.804874
0.860731
0.798782
0.812889
0.814838
0.871963
0.597972
0.813595
0.842593
0.883348
0.531033
0.81652
0.830043
0.796174
0.814777
0.795049
0.867642
0.812285
0.831432
0.812842
0.619659
0.802425
0.804168
0.69133
0.853188
0.759745
0.801842
0.814107
0.812857
0.85991
0.795384
0.83368
0.8348
0.784433
0.825248
0.84252
0.799859
0.810615
0.807081
0.805337
0.814952
0.802648
0.845286
0.769327
0.809806
0.803192
0.815297
0.723365
0.813046
0.818464
0.752731
0.813721
0.816444
0.827702
0.82521
0.800828
0.80074
0.85055
0.767903
0.825265
0.844271
0.804577
0.506481
0.813046
0.828368
0.852436
0.812766
0.803159
0.808564
0.855096
0.780083
0.802603
0.801333
0.813088
0.72752
0.802805
0.830071
0.808142
0.79501
0.793644
0.843268
0.806628
0.845372
0.802033
0.824347
0.812901
0.804236
0.841909
0.813016
0.679839
0.818889
0.807122
0.812973
0.906163
0.800883
0.815994
0.800555
0.800487
0.816324
0.800591
0.803385
0.783728
0.747401
0.806633
0.813051
0.758157
0.791533
0.823121
0.813042
0.822359
0.80638
0.825868
0.875341
0.830735
0.575729
0.708979
0.840827
0.817405
0.844222
0.814887
0.85016
0.807463
0.812483
0.799465
0.838482
0.860984
0.852852
0.731752
0.814223
0.822275
0.743879
0.817239
0.776026
0.800304
0.73328
0.816187
0.830952
0.823506
0.862066
0.814346
0.813443
0.810318
0.814771
0.835863
0.812228
0.798784
0.810256
0.737775
0.8115
0.774158
0.832916
0.812897
0.639065
0.777699
0.81126
0.799297
0.819936
0.802597
0.814803
0.817417
0.804542
0.819507
0.804183
0.80598
0.597902
0.84711
0.825227
0.826798
0.815051
0.803238
0.702035
0.806609
0.907853
0.813722
0.801162
0.813026
0.782343
0.807389
0.81342
0.821393
0.814668
0.813374
0.816362
0.700804
0.777983
0.764751
0.81281
0.805389
0.801157
0.621641
0.805843
0.802747
0.708458
0.837299
0.817317
0.802282
0.80757
0.799504
0.817366
0.814024
0.813435
0.813036
0.709856
0.831773
0.800314
0.807544
0.84292
0.817749
0.816415
0.800287
0.753717
0.823929
0.787547
0.82154
0.789464
0.805773
0.821061
0.73757
0.817506
0.65146
0.872072
0.704545
0.845076
0.800934
0.875195
0.793814
0.801736
0.82078
0.836333
0.838464
0.82556
0.819939
0.814834
0.801248
0.804212
0.808296
0.726149
0.827289
0.800105
0.719538
0.830613
0.704501
0.800132
0.860608
0.805607
0.702014
0.797884
0.814225
0.704631
0.785663
0.819495
0.83193
0.807098
0.576495
0.729013
0.812417
0.80146
0.813083
0.80078
0.737375
0.81415
0.815844
0.812649
0.775473
0.803279
0.804518
0.803708
0.560838
0.812872
0.834156
0.58043
0.815296
0.816228
0.81483
0.818477
0.814555
0.824638
0.799212
0.795153
0.771015
0.822948
0.829713
0.825155
0.835035
0.765482
0.809146
0.724812
0.772424
0.808928
0.821182
0.813432
0.80099
0.858509
0.813087
0.800464
0.809741
0.816218
0.815318
0.836711
0.814629
0.812963
0.812004
0.81396
0.800275
0.821102
0.803792
0.822934
0.813613
0.576141
0.813659
0.834547
0.858284
0.838245
0.491725
0.81693
0.804622
0.497391
0.669823
0.644122
0.834373
0.808067
0.811674
0.81295
0.803213
0.816871
0.811022
0.535139
0.686961
0.818283
0.806647
0.815741
0.803525
0.810272
0.811062
0.820343
0.799617
0.69282
0.856132
0.803159
0.814747
0.813764
0.757904
0.486681
0.83298
0.813614
0.741891
0.802711
0.806333
0.591711
0.827601
0.814911
0.827815
0.818896
0.826119
0.804751
0.719864
0.643806
0.56246
0.825416
0.808652
0.782968
0.813126
0.779933
0.818008
0.873352
0.762489
0.821716
0.813661
0.825934
0.8836
0.814576
0.811982
0.80329
0.813889
0.692062
0.828302
0.799979
0.810299
0.802243
0.784299
0.854223
0.822145
0.840542
0.821631
0.757561
0.755999
0.80344
0.818214
0.803075
0.805264
0.802615
0.775797
0.814816
0.761725
0.821288
0.662299
0.81411
0.802985
0.735544
0.823325
0.818076
0.740134
0.801189
0.757355
0.88091
0.800739
0.813001
0.762822
0.800217
0.814409
0.803967
0.59023
0.821017
0.798756
0.801477
0.81466
0.825704
0.757295
0.805649
0.841794
0.827076
0.81415
0.835919
0.699745
0.700335
0.813083
0.7443
0.822323
0.771484
0.812992
0.802544
0.81049
0.752092
0.79423
0.764479
0.810028
0.803152
0.631443
0.779108
0.799257
0.849187
0.814504
0.828743
0.527135
0.825373
0.785222
0.858793
0.800959
0.818045
0.800411
0.785898
0.798867
0.825801
0.835826
0.821839
0.817236
0.706714
0.773969
0.815471
0.8054
0.810132
0.803925
0.706311
0.792931
0.803541
0.810782
0.827298
0.851262
0.831938
0.81361
0.799552
0.804328
0.802111
0.779707
0.611928
0.800452
0.731546
0.662165
0.822903
0.798959
0.777265
0.800089
0.754291
0.785342
0.811616
0.822303
0.803447
0.81613
0.817447
0.820733
0.813536
0.808567
0.712315
0.699588
0.641142
0.829369
0.869613
0.81544
0.841432
0.847901
0.863782
0.735989
0.816688
0.86306
0.8103
0.813032
0.816285
0.732989
0.81255
0.806786
0.80632
0.517915
0.81312
0.76129
0.813304
0.813814
0.803557
0.705247
0.813344
0.610921
0.825101
0.802373
0.82231
0.855223
0.803447
0.795403
0.82104
0.811716
0.805762
0.762359
0.510645
0.821002
0.803106
0.829063
0.825857
0.802229
0.807045
0.834536
0.721043
0.501255
0.886294
0.800696
0.815814
0.80434
0.710242
0.79875
0.800118
0.815193
0.736371
0.646744
0.883281
0.714348
0.836628
0.812127
0.832973
0.842733
0.792307
0.804762
0.813733
0.85283
0.738457
0.870742
0.814153
0.563183
0.802581
0.748854
0.852973
0.760454
0.804234
0.803969
0.799735
0.801636
0.809018
0.813064
0.855742
0.806105
0.802876
0.801324
0.800109
0.812399
0.816992
0.802629
0.812643
0.849271
0.803105
0.783562
0.802256
0.83975
0.725395
0.813769
0.813961
0.64099
0.713297
0.805573
0.823118
0.803681
0.512447
0.856517
0.813346
0.833145
0.805324
0.803326
0.801381
0.786362
0.58747
0.804319
0.816223
0.836036
0.820671
0.813104
0.798289
0.747165
0.801593
0.765959
0.787583
0.799445
0.791001
0.751132
0.800934
0.811586
0.810509
0.832268
0.849252
0.553767
0.841975
0.813002
0.820874
0.80209
0.822694
0.811234
0.894641
0.800322
0.867316
0.80571
0.759927
0.862166
0.802297
0.80026
0.824252
0.660639
0.645529
0.80341
0.803875
0.703987
0.654538
0.799917
0.823948
0.813181
0.822689
0.733185
0.81727
0.812989
0.826226
0.817048
0.811965
0.813022
0.75471
0.804008
0.815799
0.811488
0.676426
0.566827
0.813059
0.650229
0.722078
0.555538
0.841467
0.800225
0.527748
0.601081
0.827582
0.908085
0.818259
0.652557
0.81429
0.786542
0.801808
0.786486
0.820782
0.810211
0.78833
0.821154
0.801128
0.588063
0.817938
0.766804
0.816047
0.700518
0.822321
0.789752
0.814084
0.800164
0.663103
0.843568
0.806637
0.806736
0.494428
0.81695
0.800477
0.852343
0.711162
0.817203
0.584941
0.719316
0.801491
0.796765
0.733051
0.715789
0.715672
0.507803
0.591281
0.800106
0.518332
0.8227
0.521418
0.757314
0.671685
0.600648
0.541334
0.745567
0.80309
0.714799
0.8214
0.801003
0.803012
0.761313
0.889709
0.799162
0.824577
0.803451
0.812945
0.706137
0.807676
0.736841
0.822012
0.886071
0.833644
0.747866
0.822888
0.770614
0.879934
0.804213
0.758784
0.850746
0.776978
0.799944
0.805415
0.758354
0.744867
0.666439
0.805002
0.803033
0.818016
0.83357
0.61174
0.808037
0.538702
0.668804
0.617066
0.818646
0.821145
0.809132
0.803992
0.615942
0.872496
0.802688
0.802954
0.863567
0.812582
0.772118
0.812319
0.802382
0.818016
0.803152
0.717205
0.803445
0.655969
0.799112
0.804201
0.801581
0.639392
0.811617
0.810387
0.725686
0.817922
0.549631
0.577074
0.804164
0.696668
0.726092
0.572457
0.723853
0.813761
0.706921
0.773051
0.716508
0.812877
0.670423
0.762226
0.806505
0.810734
0.654858
0.801974
0.895182
0.796735
0.816914
0.585814
0.694014
0.801057
0.813097
0.814142
0.85171
0.81279
0.804277
0.803747
0.803352
0.713998
0.717439
0.615933
0.771611
0.533641
0.723706
0.810053
0.814536
0.806243
0.799381
0.538957
0.809196
0.803773
0.554488
0.543967
0.746726
0.803588
0.806283
0.549764
0.798281
0.569989
0.720884
0.6081
0.813608
0.802339
0.597387
0.608588
0.86794
0.810102
0.765526
0.718097
0.622284
0.655553
0.709251
0.816128
0.759893
0.765482
0.624299
0.754015
0.809438
0.815488
0.812608
0.815596
0.865828
0.754849
0.819038
0.803359
0.851335
0.813014
0.802788
0.813223
0.722282
0.813062
0.812108
0.8153
0.811272
0.816006
0.803283
0.818035
0.810509
0.809863
0.817377
0.800132
0.816706
0.81906
0.667693
0.818717
0.86846
0.818277
0.792963
0.646143
0.858633
0.818897
0.824981
0.799653
0.811366
0.757488
0.852604
0.560711
0.726989
0.809883
0.815788
0.80389
0.803375
0.832129
0.805137
0.805272
0.815387
0.780813
0.838625
0.842012
0.8153
0.664538
0.613437
0.815886
0.816733
0.788437
0.849689
0.847315
0.810973
0.813743
0.777874
0.814214
0.817942
0.814239
0.818884
0.813215
0.815943
0.851102
0.816088
0.814618
0.817666
0.817877
0.784946
0.814234
0.80416
0.804251
0.804711
0.818677
0.811635
0.788453
0.753906
0.812808
0.806296
0.808911
0.806396
0.857814
0.80343
0.81412
0.812841
0.805268
0.583892
0.803905
0.812886
0.815137
0.810337
0.81293
0.813435
0.813166
0.810196
0.864432
0.502327
0.812961
0.841724
0.812793
0.802991
0.808455
0.815122
0.839748
0.800551
0.801334
0.812682
0.704869
0.812979
0.808302
0.80747
0.812691
0.813025
0.813166
0.813495
0.512568
0.811899
0.716195
0.885871
0.821149
0.733262
0.672559
0.815482
0.80361
0.818815
0.646728
0.801711
0.813466
0.648208
0.79996
0.804124
0.815559
0.80635
0.856791
0.809867
0.60722
0.800911
0.775156
0.811239
0.889101
0.803374
0.815536
0.819387
0.832261
0.813531
0.822494
0.83641
0.635215
0.802727
0.656005
0.813874
0.813776
0.712279
0.813662
0.804923
0.712947
0.815017
0.701723
0.861122
0.784177
0.81442
0.813035
0.813558
0.668191
0.813783
0.633514
0.80028
0.792406
0.822386
0.815298
0.71627
0.766697
0.830129
0.812886
0.821362
0.821998
0.813568
0.825419
0.799599
0.552478
0.754858
0.75935
0.731223
0.837676
0.82248
0.83439
0.776181
0.802774
0.813166
0.813091
0.813094
0.774718
0.564178
0.803214
0.529278
0.808285
0.824402
0.799807
0.803772
0.813079
0.806037
0.782734
0.732288
0.813518
0.859186
0.813781
0.79939
0.736824
0.809728
0.788763
0.833772
0.504808
0.796005
0.806018
0.798982
0.689859
0.812976
0.810851
0.85726
0.56942
0.807357
0.80328
0.812951
0.613136
0.813221
0.803344
0.803415
0.803039
0.813331
0.813428
0.816211
0.813175
0.717508
0.804521
0.803211
0.813126
0.896184
0.813278
0.7741
0.841244
0.799198
0.803143
0.601641
0.813021
0.803368
0.825782
0.801992
0.866265
0.814907
0.853579
0.800446
0.820725
0.777944
0.558712
0.752872
0.794349
0.804047
0.813954
0.813924
0.55592
0.86182
0.858107
0.768616
0.757697
0.738547
0.812185
0.848542
0.813058
0.813765
0.813093
0.804288
0.726733
0.803514
0.79921
0.764168
0.824342
0.823081
0.861877
0.815753
0.813105
0.526557
0.808905
0.813064
0.800792
0.774073
0.81809
0.803118
0.813005
0.826961
0.798477
0.803655
0.801283
0.815257
0.839174
0.802473
0.799261
0.801607
0.766065
0.819954
0.567456
0.868409
0.803705
0.546164
0.803248
0.803211
0.819676
0.593627
0.606468
0.801638
0.803743
0.800943
0.860765
0.780016
0.814717
0.802949
0.865939
0.804728
0.804465
0.82637
0.816034
0.820219
0.821356
0.820407
0.867509
0.729409
0.852187
0.81729
0.653905
0.802616
0.803198
0.803651
0.821201
0.823579
0.804032
0.801176
0.800148
0.822753
0.803262
0.803623
0.799766
0.824457
0.803986
0.802035
0.806092
0.827929
0.800655
0.801608
0.824383
0.799677
0.81548
0.651507
0.826455
0.849882
0.804922
0.819655
0.803249
0.828811
0.837548
0.803408
0.821552
0.800605
0.807081
0.789578
0.802194
0.803225
0.806371
0.805953
0.804608
0.818626
0.814847
0.811259
0.831467
0.802285
0.802243
0.800001
0.78901
0.833839
0.803166
0.819383
0.815305
0.807149
0.805116
0.802956
0.838953
0.864946
0.799676
0.679138
0.80124
0.842197
0.816681
0.805238
0.804476
0.819734
0.844635
0.603041
0.828886
0.794593
0.850545
0.81881
0.812023
0.813314
0.80833
0.803968
0.812802
0.808779
0.592115
0.848025
0.794657
0.814282
0.854625
0.819358
0.76329
0.808679
0.814551
0.815544
0.802981
0.661921
0.809317
0.863184
0.802656
0.800773
0.775544
0.871241
0.800493
0.877091
0.806755
0.817248
0.820688
0.802339
0.803887
0.812718
0.815971
0.803578
0.81343
0.816823
0.881372
0.820722
0.80931
0.800247
0.828463
0.810496
0.838997
0.808867
0.806955
0.812236
0.816633
0.829957
0.813758
0.822597
0.832562
0.814278
0.7001
0.691505
0.813154
0.817825
0.803922
0.813227
0.514937
0.854902
0.799849
0.806238
0.814025
0.813583
0.803976
0.812585
0.800565
0.801275
0.808111
0.814794
0.757053
0.784728
0.823008
0.842843
0.834851
0.800355
0.805164
0.803365
0.812929
0.805759
0.799624
0.799883
0.80107
0.810962
0.797834
0.802854
0.835544
0.831454
0.730113
0.678542
0.8076
0.699097
0.799605
0.573439
0.804427
0.806977
0.803198
0.818242
0.833907
0.814022
0.812971
0.810282
0.803863
0.881542
0.816351
0.804912
0.772324
0.586939
0.810251
0.806729
0.76944
0.814508
0.813972
0.7915
0.800725
0.804047
0.626427
0.830486
0.803512
0.78162
0.779364
0.852743
0.81
0.802986
0.802716
0.810304
0.811081
0.519467
0.80184
0.839539
0.814022
0.798598
0.589208
0.814595
0.814164
0.813063
0.833782
0.814013
0.803958
0.82196
0.805703
0.576127
0.808658
0.736752
0.798519
0.813733
0.722336
0.815015
0.846149
0.831636
0.664711
0.890918
0.785629
0.77754
0.796894
0.779541
0.808676
0.850131
0.808077
0.802896
0.813647
0.808956
0.782662
0.785967
0.813973
0.808426
0.834867
0.821332
0.835705
0.801379
0.79974
0.813154
0.856647
0.816521
0.818436
0.813447
0.607615
0.79555
0.823945
0.829382
0.865927
0.812716
0.818985
0.509506
0.809839
0.800679
0.812707
0.814842
0.84762
0.813156
0.811099
0.881517
0.76465
0.812578
0.813336
0.809114
0.805226
0.814318
0.656128
0.800519
0.849568
0.833533
0.810686
0.813634
0.813466
0.809575
0.699444
0.812572
0.800277
0.838615
0.818545
0.811709
0.831365
0.792816
0.811629
0.817886
0.80891
0.819359
0.744473
0.854902
0.819035
0.813881
0.81316
0.812809
0.81579
0.817228
0.812856
0.810868
0.841115
0.818666
0.800258
0.825303
0.826996
0.816139
0.814489
0.80046
0.801567
0.813151
0.819095
0.829429
0.812904
0.816529
0.799939
0.810044
0.812942
0.812902
0.802507
0.814751
0.813425
0.803264
0.812966
0.8357
0.800038
0.809518
0.821637
0.560453
0.8143
0.818236
0.815578
0.815082
0.822028
0.828869
0.8157
0.818906
0.701613
0.813163
0.801399
0.815697
0.819092
0.835087
0.821629
0.815584
0.829424
0.824999
0.810777
0.819193
0.819637
0.804304
0.813257
0.815684
0.819479
0.832162
0.812728
0.815777
0.802727
0.813039
0.813151
0.523515
0.628134
0.814358
0.821504
0.801814
0.822524
0.815985
0.8419
0.708283
0.813836
0.730685
0.817449
0.810402
0.813261
0.82939
0.813748
0.804983
0.813024
0.830118
0.839459
0.812893
0.719347
0.819269
0.816107
0.80001
0.803035
0.815391
0.855954
0.812749
0.813468
0.84973
0.829035
0.843294
0.574231
0.829159
0.814032
0.810979
0.817473
0.850685
0.817835
0.718543
0.799645
0.831768
0.799887
0.799826
0.80544
0.747954
0.813492
0.814429
0.725664
0.814438
0.827348
0.81341
0.814115
0.79933
0.818444
0.813089
0.823652
0.80871
0.80827
0.815043
0.705658
0.819142
0.814164
0.813075
0.640267
0.718437
0.599656
0.823285
0.530776
0.853992
0.727464
0.842833
0.812623
0.723121
0.821448
0.815954
0.742679
0.807698
0.818422
0.794414
0.816593
0.81594
0.81587
0.813089
0.807977
0.803672
0.737425
0.836267
0.820227
0.81668
0.799323
0.815439
0.802121
0.816083
0.81355
0.854776
0.81784
0.498022
0.813374
0.818856
0.81873
0.7781
0.815749
0.806733
0.818578
0.845506
0.596762
0.809211
0.799416
0.815399
0.817689
0.817758
0.812549
0.818667
0.813929
0.814656
0.803081
0.814351
0.846147
0.814015
0.792013
0.811579
0.622803
0.718634
0.813164
0.817065
0.802971
0.82236
0.735471
0.803155
0.803188
0.820269
0.64406
0.817665
0.799466
0.815493
0.864862
0.785529
0.822007
0.818045
0.822884
0.814106
0.769667
0.802444
0.813655
0.902308
0.827179
0.816501
0.832222
0.809703
0.868412
0.719201
0.69355
0.852464
0.80271
0.675037
0.850421
0.786087