# vtk DataFile Version 1.0
unstructured grid
ascii
DATASET UNSTRUCTURED_GRID
points 7812 float
-1 0 0
-1 1 0
2 0 0
2 1 0
0 0 0
1 0 0
-1 1 0.1
-1 0 0.1
0 0 0.1
1 0 0.1
2 0 0.1
2 1 0.1
-0.99 0 0
-0.98 0 0
-0.97 0 0
-0.96 0 0
-0.95 0 0
-0.94 0 0
-0.93 0 0
-0.92 0 0
-0.91 0 0
-0.9 0 0
-0.89 0 0
-0.88 0 0
-0.87 0 0
-0.86 0 0
-0.85 0 0
-0.84 0 0
-0.83 0 0
-0.82 0 0
-0.81 0 0
-0.8 0 0
-0.79 0 0
-0.78 0 0
-0.77 0 0
-0.76 0 0
-0.75 0 0
-0.74 0 0
-0.73 0 0
-0.72 0 0
-0.71 0 0
-0.7 0 0
-0.69 0 0
-0.68 0 0
-0.67 0 0
-0.66 0 0
-0.65 0 0
-0.64 0 0
-0.63 0 0
-0.62 0 0
-0.61 0 0
-0.6 0 0
-0.59 0 0
-0.58 0 0
-0.57 0 0
-0.56 0 0
-0.55 0 0
-0.54 0 0
-0.53 0 0
-0.52 0 0
-0.51 0 0
-0.5 0 0
-0.49 0 0
-0.48 0 0
-0.47 0 0
-0.46 0 0
-0.45 0 0
-0.44 0 0
-0.43 0 0
-0.42 0 0
-0.41 0 0
-0.4 0 0
-0.39 0 0
-0.38 0 0
-0.37 0 0
-0.36 0 0
-0.35 0 0
-0.34 0 0
-0.33 0 0
-0.32 0 0
-0.31 0 0
-0.3 0 0
-0.29 0 0
-0.28 0 0
-0.27 0 0
-0.26 0 0
-0.25 0 0
-0.24 0 0
-0.23 0 0
-0.22 0 0
-0.21 0 0
-0.2 0 0
-0.19 0 0
-0.18 0 0
-0.17 0 0
-0.16 0 0
-0.15 0 0
-0.14 0 0
-0.13 0 0
-0.12 0 0
-0.11 0 0
-0.1 0 0
-0.09 0 0
-0.08 0 0
-0.07 0 0
-0.06 0 0
-0.05 0 0
-0.04 0 0
-0.03 0 0
-0.02 0 0
-0.01 0 0
1.01 0 0
1.02 0 0
1.03 0 0
1.04 0 0
1.05 0 0
1.06 0 0
1.07 0 0
1.08 0 0
1.09 0 0
1.1 0 0
1.11 0 0
1.12 0 0
1.13 0 0
1.14 0 0
1.15 0 0
1.16 0 0
1.17 0 0
1.18 0 0
1.19 0 0
1.2 0 0
1.21 0 0
1.22 0 0
1.23 0 0
1.24 0 0
1.25 0 0
1.26 0 0
1.27 0 0
1.28 0 0
1.29 0 0
1.3 0 0
1.31 0 0
1.32 0 0
1.33 0 0
1.34 0 0
1.35 0 0
1.36 0 0
1.37 0 0
1.38 0 0
1.39 0 0
1.4 0 0
1.41 0 0
1.42 0 0
1.43 0 0
1.44 0 0
1.45 0 0
1.46 0 0
1.47 0 0
1.48 0 0
1.49 0 0
1.5 0 0
1.51 0 0
1.52 0 0
1.53 0 0
1.54 0 0
1.55 0 0
1.56 0 0
1.57 0 0
1.58 0 0
1.59 0 0
1.6 0 0
1.61 0 0
1.62 0 0
1.63 0 0
1.64 0 0
1.65 0 0
1.66 0 0
1.67 0 0
1.68 0 0
1.69 0 0
1.7 0 0
1.71 0 0
1.72 0 0
1.73 0 0
1.74 0 0
1.75 0 0
1.76 0 0
1.77 0 0
1.78 0 0
1.79 0 0
1.8 0 0
1.81 0 0
1.82 0 0
1.83 0 0
1.84 0 0
1.85 0 0
1.86 0 0
1.87 0 0
1.88 0 0
1.89 0 0
1.9 0 0
1.91 0 0
1.92 0 0
1.93 0 0
1.94 0 0
1.95 0 0
1.96 0 0
1.97 0 0
1.98 0 0
1.99 0 0
2 0.010289 0
2 0.0215307 0
2 0.0338135 0
2 0.0472336 0
2 0.0618965 0
2 0.0779171 0
2 0.0954213 0
2 0.114546 0
2 0.135442 0
2 0.158274 0
2 0.183219 0
2 0.210474 0
2 0.240253 0
2 0.27279 0
2 0.308339 0
2 0.347181 0
2 0.389619 0
2 0.435987 0
2 0.486649 0
2 0.542002 0
2 0.602481 0
2 0.66856 0
2 0.740758 0
2 0.819642 0
2 0.90583 0
1.9 1 0
1.8 1 0
1.7 1 0
1.6 1 0
1.5 1 0
1.4 1 0
1.3 1 0
1.2 1 0
1.1 1 0
1 1 0
0.9 1 0
0.8 1 0
0.7 1 0
0.6 1 0
0.5 1 0
0.4 1 0
0.3 1 0
0.2 1 0
0.1 1 0
3.69793e-12 1 0
-0.1 1 0
-0.2 1 0
-0.3 1 0
-0.4 1 0
-0.5 1 0
-0.6 1 0
-0.7 1 0
-0.8 1 0
-0.9 1 0
-1 0.90583 0
-1 0.819642 0
-1 0.740758 0
-1 0.66856 0
-1 0.602481 0
-1 0.542002 0
-1 0.486649 0
-1 0.435987 0
-1 0.389619 0
-1 0.347181 0
-1 0.308339 0
-1 0.27279 0
-1 0.240253 0
-1 0.210474 0
-1 0.183219 0
-1 0.158274 0
-1 0.135442 0
-1 0.114546 0
-1 0.0954213 0
-1 0.0779171 0
-1 0.0618965 0
-1 0.0472336 0
-1 0.0338135 0
-1 0.0215307 0
-1 0.010289 0
0.00921362 0.00379763 0
0.0184561 0.00752451 0
0.0277268 0.0111804 0
0.0370253 0.0147652 0
0.0463511 0.0182786 0
0.0557034 0.0217203 0
0.0650819 0.0250903 0
0.074486 0.0283883 0
0.083915 0.0316141 0
0.0933685 0.0347675 0
0.102846 0.0378484 0
0.112347 0.0408565 0
0.12187 0.0437917 0
0.131416 0.0466538 0
0.140983 0.0494427 0
0.150572 0.0521581 0
0.160181 0.0547999 0
0.16981 0.0573681 0
0.179458 0.0598623 0
0.189125 0.0622825 0
0.198811 0.0646285 0
0.208514 0.0669001 0
0.218234 0.0690974 0
0.227971 0.07122 0
0.237724 0.073268 0
0.247493 0.0752411 0
0.257276 0.0771393 0
0.267073 0.0789625 0
0.276884 0.0807105 0
0.286708 0.0823832 0
0.296545 0.0839806 0
0.306394 0.0855025 0
0.316254 0.0869488 0
0.326125 0.0883196 0
0.336006 0.0896146 0
0.345896 0.0908339 0
0.355796 0.0919773 0
0.365704 0.0930447 0
0.375621 0.0940362 0
0.385544 0.0949517 0
0.395474 0.095791 0
0.40541 0.0965542 0
0.415352 0.0972412 0
0.425299 0.097852 0
0.43525 0.0983865 0
0.445205 0.0988447 0
0.455164 0.0992266 0
0.465125 0.0995321 0
0.475088 0.0997613 0
0.485052 0.0999141 0
0.495017 0.0999904 0
0.504983 0.0999904 0
0.514948 0.0999141 0
0.524912 0.0997613 0
0.534875 0.0995321 0
0.544836 0.0992266 0
0.554795 0.0988447 0
0.56475 0.0983865 0
0.574701 0.097852 0
0.584648 0.0972412 0
0.59459 0.0965542 0
0.604526 0.095791 0
0.614456 0.0949517 0
0.624379 0.0940362 0
0.634296 0.0930447 0
0.644204 0.0919773 0
0.654104 0.0908339 0
0.663994 0.0896146 0
0.673875 0.0883196 0
0.683746 0.0869488 0
0.693606 0.0855025 0
0.703455 0.0839806 0
0.713292 0.0823832 0
0.723116 0.0807105 0
0.732927 0.0789625 0
0.742724 0.0771393 0
0.752508 0.0752411 0
0.762276 0.073268 0
0.772029 0.07122 0
0.781766 0.0690974 0
0.791486 0.0669001 0
0.801189 0.0646285 0
0.810875 0.0622825 0
0.820542 0.0598623 0
0.83019 0.0573681 0
0.839819 0.0547999 0
0.849428 0.0521581 0
0.859017 0.0494427 0
0.868584 0.0466538 0
0.87813 0.0437917 0
0.887653 0.0408565 0
0.897154 0.0378484 0
0.906631 0.0347675 0
0.916085 0.0316141 0
0.925514 0.0283883 0
0.934918 0.0250903 0
0.944297 0.0217203 0
0.953649 0.0182786 0
0.962975 0.0147652 0
0.972273 0.0111804 0
0.981544 0.00752451 0
0.990786 0.00379763 0
-1 0.90583 0.1
-1 0.819642 0.1
-1 0.740758 0.1
-1 0.66856 0.1
-1 0.602481 0.1
-1 0.542002 0.1
-1 0.486649 0.1
-1 0.435987 0.1
-1 0.389619 0.1
-1 0.347181 0.1
-1 0.308339 0.1
-1 0.27279 0.1
-1 0.240253 0.1
-1 0.210474 0.1
-1 0.183219 0.1
-1 0.158274 0.1
-1 0.135442 0.1
-1 0.114546 0.1
-1 0.0954213 0.1
-1 0.0779171 0.1
-1 0.0618965 0.1
-1 0.0472336 0.1
-1 0.0338135 0.1
-1 0.0215307 0.1
-1 0.010289 0.1
-0.99 0 0.1
-0.98 0 0.1
-0.97 0 0.1
-0.96 0 0.1
-0.95 0 0.1
-0.94 0 0.1
-0.93 0 0.1
-0.92 0 0.1
-0.91 0 0.1
-0.9 0 0.1
-0.89 0 0.1
-0.88 0 0.1
-0.87 0 0.1
-0.86 0 0.1
-0.85 0 0.1
-0.84 0 0.1
-0.83 0 0.1
-0.82 0 0.1
-0.81 0 0.1
-0.8 0 0.1
-0.79 0 0.1
-0.78 0 0.1
-0.77 0 0.1
-0.76 0 0.1
-0.75 0 0.1
-0.74 0 0.1
-0.73 0 0.1
-0.72 0 0.1
-0.71 0 0.1
-0.7 0 0.1
-0.69 0 0.1
-0.68 0 0.1
-0.67 0 0.1
-0.66 0 0.1
-0.65 0 0.1
-0.64 0 0.1
-0.63 0 0.1
-0.62 0 0.1
-0.61 0 0.1
-0.6 0 0.1
-0.59 0 0.1
-0.58 0 0.1
-0.57 0 0.1
-0.56 0 0.1
-0.55 0 0.1
-0.54 0 0.1
-0.53 0 0.1
-0.52 0 0.1
-0.51 0 0.1
-0.5 0 0.1
-0.49 0 0.1
-0.48 0 0.1
-0.47 0 0.1
-0.46 0 0.1
-0.45 0 0.1
-0.44 0 0.1
-0.43 0 0.1
-0.42 0 0.1
-0.41 0 0.1
-0.4 0 0.1
-0.39 0 0.1
-0.38 0 0.1
-0.37 0 0.1
-0.36 0 0.1
-0.35 0 0.1
-0.34 0 0.1
-0.33 0 0.1
-0.32 0 0.1
-0.31 0 0.1
-0.3 0 0.1
-0.29 0 0.1
-0.28 0 0.1
-0.27 0 0.1
-0.26 0 0.1
-0.25 0 0.1
-0.24 0 0.1
-0.23 0 0.1
-0.22 0 0.1
-0.21 0 0.1
-0.2 0 0.1
-0.19 0 0.1
-0.18 0 0.1
-0.17 0 0.1
-0.16 0 0.1
-0.15 0 0.1
-0.14 0 0.1
-0.13 0 0.1
-0.12 0 0.1
-0.11 0 0.1
-0.1 0 0.1
-0.09 0 0.1
-0.08 0 0.1
-0.07 0 0.1
-0.06 0 0.1
-0.05 0 0.1
-0.04 0 0.1
-0.03 0 0.1
-0.02 0 0.1
-0.01 0 0.1
0.00921362 0.00379763 0.1
0.0184561 0.00752451 0.1
0.0277268 0.0111804 0.1
0.0370253 0.0147652 0.1
0.0463511 0.0182786 0.1
0.0557034 0.0217203 0.1
0.0650819 0.0250903 0.1
0.074486 0.0283883 0.1
0.083915 0.0316141 0.1
0.0933685 0.0347675 0.1
0.102846 0.0378484 0.1
0.112347 0.0408565 0.1
0.12187 0.0437917 0.1
0.131416 0.0466538 0.1
0.140983 0.0494427 0.1
0.150572 0.0521581 0.1
0.160181 0.0547999 0.1
0.16981 0.0573681 0.1
0.179458 0.0598623 0.1
0.189125 0.0622825 0.1
0.198811 0.0646285 0.1
0.208514 0.0669001 0.1
0.218234 0.0690974 0.1
0.227971 0.07122 0.1
0.237724 0.073268 0.1
0.247493 0.0752411 0.1
0.257276 0.0771393 0.1
0.267073 0.0789625 0.1
0.276884 0.0807105 0.1
0.286708 0.0823832 0.1
0.296545 0.0839806 0.1
0.306394 0.0855025 0.1
0.316254 0.0869488 0.1
0.326125 0.0883196 0.1
0.336006 0.0896146 0.1
0.345896 0.0908339 0.1
0.355796 0.0919773 0.1
0.365704 0.0930447 0.1
0.375621 0.0940362 0.1
0.385544 0.0949517 0.1
0.395474 0.095791 0.1
0.40541 0.0965542 0.1
0.415352 0.0972412 0.1
0.425299 0.097852 0.1
0.43525 0.0983865 0.1
0.445205 0.0988447 0.1
0.455164 0.0992266 0.1
0.465125 0.0995321 0.1
0.475088 0.0997613 0.1
0.485052 0.0999141 0.1
0.495017 0.0999904 0.1
0.504983 0.0999904 0.1
0.514948 0.0999141 0.1
0.524912 0.0997613 0.1
0.534875 0.0995321 0.1
0.544836 0.0992266 0.1
0.554795 0.0988447 0.1
0.56475 0.0983865 0.1
0.574701 0.097852 0.1
0.584648 0.0972412 0.1
0.59459 0.0965542 0.1
0.604526 0.095791 0.1
0.614456 0.0949517 0.1
0.624379 0.0940362 0.1
0.634296 0.0930447 0.1
0.644204 0.0919773 0.1
0.654104 0.0908339 0.1
0.663994 0.0896146 0.1
0.673875 0.0883196 0.1
0.683746 0.0869488 0.1
0.693606 0.0855025 0.1
0.703455 0.0839806 0.1
0.713292 0.0823832 0.1
0.723116 0.0807105 0.1
0.732927 0.0789625 0.1
0.742724 0.0771393 0.1
0.752508 0.0752411 0.1
0.762276 0.073268 0.1
0.772029 0.07122 0.1
0.781766 0.0690974 0.1
0.791486 0.0669001 0.1
0.801189 0.0646285 0.1
0.810875 0.0622825 0.1
0.820542 0.0598623 0.1
0.83019 0.0573681 0.1
0.839819 0.0547999 0.1
0.849428 0.0521581 0.1
0.859017 0.0494427 0.1
0.868584 0.0466538 0.1
0.87813 0.0437917 0.1
0.887653 0.0408565 0.1
0.897154 0.0378484 0.1
0.906631 0.0347675 0.1
0.916085 0.0316141 0.1
0.925514 0.0283883 0.1
0.934918 0.0250903 0.1
0.944297 0.0217203 0.1
0.953649 0.0182786 0.1
0.962975 0.0147652 0.1
0.972273 0.0111804 0.1
0.981544 0.00752451 0.1
0.990786 0.00379763 0.1
1.01 0 0.1
1.02 0 0.1
1.03 0 0.1
1.04 0 0.1
1.05 0 0.1
1.06 0 0.1
1.07 0 0.1
1.08 0 0.1
1.09 0 0.1
1.1 0 0.1
1.11 0 0.1
1.12 0 0.1
1.13 0 0.1
1.14 0 0.1
1.15 0 0.1
1.16 0 0.1
1.17 0 0.1
1.18 0 0.1
1.19 0 0.1
1.2 0 0.1
1.21 0 0.1
1.22 0 0.1
1.23 0 0.1
1.24 0 0.1
1.25 0 0.1
1.26 0 0.1
1.27 0 0.1
1.28 0 0.1
1.29 0 0.1
1.3 0 0.1
1.31 0 0.1
1.32 0 0.1
1.33 0 0.1
1.34 0 0.1
1.35 0 0.1
1.36 0 0.1
1.37 0 0.1
1.38 0 0.1
1.39 0 0.1
1.4 0 0.1
1.41 0 0.1
1.42 0 0.1
1.43 0 0.1
1.44 0 0.1
1.45 0 0.1
1.46 0 0.1
1.47 0 0.1
1.48 0 0.1
1.49 0 0.1
1.5 0 0.1
1.51 0 0.1
1.52 0 0.1
1.53 0 0.1
1.54 0 0.1
1.55 0 0.1
1.56 0 0.1
1.57 0 0.1
1.58 0 0.1
1.59 0 0.1
1.6 0 0.1
1.61 0 0.1
1.62 0 0.1
1.63 0 0.1
1.64 0 0.1
1.65 0 0.1
1.66 0 0.1
1.67 0 0.1
1.68 0 0.1
1.69 0 0.1
1.7 0 0.1
1.71 0 0.1
1.72 0 0.1
1.73 0 0.1
1.74 0 0.1
1.75 0 0.1
1.76 0 0.1
1.77 0 0.1
1.78 0 0.1
1.79 0 0.1
1.8 0 0.1
1.81 0 0.1
1.82 0 0.1
1.83 0 0.1
1.84 0 0.1
1.85 0 0.1
1.86 0 0.1
1.87 0 0.1
1.88 0 0.1
[...]
CELL_DATA 7425
SCALARS rho float
LOOKUP_TABLE default
0.699802
0.806014
0.858726
0.861639
0.802195
0.857361
0.852425
0.858522
0.859978
0.787392
0.883133
0.81219
0.858727
0.861498
0.806603
0.858194
0.801667
0.859487
0.804068
0.78548
0.864177
0.823721
0.777061
0.862419
0.80452
0.776215
0.863568
0.850166
0.801542
0.810418
0.851513
0.747806
0.804222
0.741535
0.689157
0.8624
0.803911
0.858571
0.813269
0.860361
0.782973
0.761908
0.826206
0.71356
0.710829
0.773927
0.837592
0.858763
0.741484
0.738735
0.761836
0.806199
0.815801
0.80182
0.728349
0.698816
0.859977
0.802315
0.787465
0.764335
0.777993
0.809361
0.859532
0.801984
0.800244
0.858147
0.697886
0.813953
0.700129
0.810373
0.806587
0.803562
0.898595
0.822893
0.815324
0.859986
0.806073
0.801504
0.859468
0.771402
0.858145
0.808939
0.856008
0.797586
0.862118
0.803503
0.687003
0.861202
0.693084
0.87429
0.717118
0.780652
0.84738
0.803769
0.858089
0.809409
0.837174
0.796244
0.861226
0.805466
0.849619
0.755476
0.803699
0.860723
0.701274
0.813215
0.858962
0.774704
0.858263
0.801924
0.857652
0.794175
0.798363
0.814528
0.82611
0.795283
0.863517
0.803542
0.717308
0.727625
0.806115
0.816705
0.860055
0.79885
0.882117
0.840754
0.809273
0.837834
0.739923
0.680391
0.857943
0.742985
0.686368
0.86777
0.739734
0.802285
0.814726
0.781495
0.690974
0.7696
0.787456
0.812588
0.856067
0.725479
0.80537
0.789893
0.681525
0.831242
0.792014
0.862305
0.848811
0.717976
0.80568
0.760231
0.725023
0.803819
0.812567
0.863705
0.833061
0.750605
0.803687
0.714479
0.803549
0.863346
0.858876
0.803322
0.859837
0.822399
0.808793
0.803256
0.858777
0.807791
0.833506
0.80189
0.80222
0.779527
0.806636
0.809749
0.718407
0.711224
0.80227
0.831374
0.895845
0.862418
0.71409
0.859985
0.801576
0.829872
0.802372
0.859032
0.860349
0.803794
0.809525
0.724723
0.8582
0.857572
0.787316
0.8349
0.86089
0.809433
0.814481
0.858285
0.709549
0.840802
0.685024
0.692769
0.699693
0.728136
0.830162
0.8957
0.809085
0.800064
0.865661
0.860247
0.857538
0.859009
0.858134
0.717443
0.715784
0.858886
0.695147
0.716186
0.721955
0.853976
0.858076
0.85999
0.864638
0.860746
0.864252
0.728318
0.836244
0.780048
0.808079
0.804559
0.803148
0.775835
0.766414
0.707196
0.720986
0.885432
0.874753
0.849549
0.809306
0.837861
0.814405
0.768345
0.859458
0.803029
0.860711
0.80006
0.856624
0.740488
0.860542
0.860321
0.78185
0.678971
0.80222
0.753456
0.843455
0.857937
0.749148
0.857938
0.858303
0.872324
0.854792
0.807655
0.803764
0.861238
0.883444
0.808875
0.706199
0.874441
0.816083
0.806779
0.861788
0.863795
0.859063
0.858016
0.800833
0.858246
0.866464
0.87249
0.829421
0.867388
0.803767
0.858202
0.803472
0.77312
0.775243
0.690308
0.716706
0.841324
0.859968
0.858143
0.85544
0.792714
0.725653
0.861958
0.690863
0.814198
0.803398
0.726667
0.697095
0.718675
0.858229
0.859506
0.860241
0.857664
0.861753
0.785521
0.813635
0.803465
0.860768
0.869779
0.867334
0.864789
0.804099
0.714969
0.832188
0.860797
0.758864
0.801631
0.803179
0.885179
0.858212
0.693341
0.859012
0.782265
0.85323
0.790455
0.855814
0.918087
0.802636
0.803487
0.738517
0.720442
0.730207
0.82494
0.861302
0.85821
0.858916
0.88122
0.857831
0.802286
0.833127
0.827455
0.795521
0.80759
0.896873
0.801471
0.808435
0.803308
0.803401
0.858951
0.858141
0.858017
0.735058
0.831796
0.747307
0.814047
0.73672
0.840935
0.803264
0.840765
0.790943
0.819371
0.85009
0.858043
0.802035
0.803375
0.815675
0.769031
0.826104
0.859826
0.858923
0.801023
0.762157
0.680062
0.80802
0.857881
0.803697
0.860592
0.802845
0.697907
0.846152
0.859075
0.804442
0.823298
0.85947
0.807079
0.805317
0.858135
0.809133
0.859608
0.787675
0.844135
0.809439
0.684828
0.806287
0.719644
0.863556
0.721312
0.857514
0.895817
0.724301
0.82053
0.798495
0.805743
0.890742
0.694876
0.859634
0.859684
0.803999
0.861252
0.813755
0.860175
0.863803
0.860231
0.77999
0.862131
0.774527
0.813127
0.799304
0.830129
0.804631
0.806899
0.802088
0.854509
0.805675
0.806814
0.705703
0.711408
0.76885
0.859005
0.87128
0.886365
0.861448
0.801547
0.860334
0.807203
0.854445
0.750032
0.803174
0.772178
0.852386
0.856796
0.809333
0.730181
0.784621
0.685163
0.699721
0.803647
0.703245
0.832416
0.77782
0.788167
0.748366
0.807668
0.812921
0.855261
0.858285
0.858702
0.858485
0.780382
0.729992
0.86798
0.848201
0.794651
0.813747
0.804024
0.86728
0.778495
0.879556
0.776462
0.782061
0.811683
0.854265
0.691021
0.801676
0.870408
0.816239
0.85884
0.854972
0.802002
0.824845
0.862469
0.803643
0.871304
0.753877
0.726365
0.802435
0.83158
0.859305
0.775832
0.874538
0.803416
0.857718
0.801645
0.792376
0.812028
0.694587
0.747424
0.716638
0.857597
0.836568
0.860922
0.795366
0.812646
0.858327
0.858802
0.801796
0.791463
0.838769
0.818079
0.803679
0.770634
0.858961
0.857146
0.840546
0.857765
0.861073
0.882037
0.878885
0.798959
0.700212
0.863211
0.808392
0.867402
0.85849
0.825187
0.859086
0.858818
0.729557
0.809182
0.847578
0.86062
0.827885
0.842355
0.807925
0.860839
0.801598
0.860566
0.858269
0.891346
0.697285
0.85899
0.843929
0.898646
0.680432
0.858035
0.831768
0.80015
0.818083
0.831181
0.888002
0.845731
0.864226
0.816609
0.712094
0.803362
0.804963
0.770203
0.874994
0.774307
0.806928
0.858378
0.859289
0.859915
0.799298
0.861862
0.86611
0.827792
0.827235
0.843609
0.802423
0.814128
0.810524
0.806443
0.854384
0.803424
0.871713
0.781191
0.814255
0.80407
0.847539
0.784082
0.860456
0.858411
0.798136
0.858952
0.851346
0.830154
0.860593
0.803179
0.802627
0.872891
0.779949
0.828293
0.871244
0.805733
0.6824
0.859854
0.862561
0.87427
0.855038
0.803455
0.813836
0.877045
0.78985
0.803315
0.803449
0.860433
0.781582
0.804814
0.831569
0.812157
0.799968
0.835913
0.87138
0.80811
0.868771
0.802002
0.860561
0.857968
0.804972
0.866191
0.859807
0.761929
0.858522
0.808754
0.858035
0.91679
0.802684
0.852845
0.802504
0.802482
0.858074
0.802531
0.804145
0.793121
0.76263
0.849751
0.860504
0.803945
0.833103
0.859539
0.815082
0.859679
0.808594
0.861273
0.892454
0.863803
0.718429
0.765752
0.869803
0.858192
0.870817
0.857597
0.874285
0.810927
0.844307
0.801977
0.867436
0.883411
0.877722
0.790081
0.858616
0.858449
0.760278
0.820642
0.786669
0.802379
0.790035
0.85806
0.863964
0.825158
0.862185
0.858055
0.859391
0.854243
0.857733
0.863949
0.814178
0.801621
0.812286
0.794475
0.858537
0.785079
0.862815
0.816413
0.718435
0.791294
0.814529
0.801879
0.858852
0.805469
0.857773
0.858201
0.806839
0.85819
0.805025
0.809592
0.721447
0.873959
0.860636
0.861752
0.818413
0.803696
0.7625
0.81074
0.918354
0.857557
0.804147
0.8582
0.794035
0.811127
0.857452
0.859325
0.816631
0.859474
0.858143
0.704429
0.820211
0.81172
0.859244
0.807634
0.804105
0.713694
0.809399
0.805416
0.774876
0.838663
0.858094
0.804202
0.810776
0.801997
0.857569
0.847086
0.859422
0.860621
0.766277
0.861792
0.80419
0.811258
0.843378
0.820867
0.857767
0.802536
0.768019
0.858485
0.828676
0.859085
0.798058
0.809602
0.859231
0.76312
0.854589
0.749545
0.891429
0.767292
0.872515
0.842828
0.892297
0.801764
0.80315
0.859132
0.837813
0.838835
0.859044
0.858837
0.856569
0.84037
0.807486
0.81045
0.782862
0.829719
0.801107
0.739072
0.860825
0.708891
0.802884
0.860555
0.806833
0.762769
0.804436
0.858612
0.722986
0.794877
0.85829
0.860459
0.850781
0.720174
0.780813
0.815569
0.804554
0.86049
0.803025
0.78765
0.858025
0.858148
0.86001
0.814931
0.803721
0.805488
0.807368
0.681217
0.860461
0.834992
0.710337
0.858208
0.858141
0.858259
0.85842
0.858179
0.860451
0.801956
0.797991
0.783422
0.82491
0.831015
0.826902
0.838137
0.787034
0.85438
0.787635
0.783772
0.812321
0.859263
0.859166
0.801542
0.858466
0.860432
0.842022
0.855414
0.857566
0.858137
0.867265
0.858375
0.859894
0.813903
0.858724
0.80324
0.858859
0.804609
0.859963
0.859141
0.708057
0.859087
0.865997
0.858123
0.838997
0.68639
0.858058
0.838846
0.67852
0.75688
0.747255
0.863499
0.841326
0.813657
0.859188
0.803472
0.858114
0.813584
0.686256
0.767956
0.820426
0.808043
0.857866
0.804076
0.812187
0.857705
0.857641
0.80206
0.770408
0.856867
0.803449
0.816657
0.858414
0.801498
0.685067
0.865055
0.816273
0.758485
0.802734
0.810495
0.721597
0.830165
0.857381
0.862274
0.858528
0.829042
0.805685
0.779195
0.724139
0.683527
0.861068
0.812505
0.792277
0.859971
0.822277
0.858329
0.890814
0.804881
0.85946
0.857446
0.860873
0.900016
0.858109
0.857686
0.805688
0.815872
0.767173
0.862506
0.802216
0.81428
0.803281
0.795294
0.878797
0.859217
0.865088
0.859396
0.772182
0.778419
0.806746
0.857181
0.80356
0.806434
0.805573
0.819467
0.85788
0.786137
0.824341
0.734955
0.858206
0.80532
0.753326
0.851586
0.853996
0.788609
0.807364
0.803241
0.879456
0.801095
0.860666
0.807988
0.803061
0.858431
0.804685
0.695983
0.823401
0.833472
0.843349
0.858333
0.859696
0.783906
0.808985
0.843252
0.829752
0.816573
0.866816
0.702722
0.761341
0.860492
0.791861
0.8597
0.811841
0.860614
0.803411
0.843768
0.798001
0.797656
0.810208
0.853988
0.803612
0.715221
0.789379
0.800232
0.850135
0.858403
0.862761
0.688626
0.826755
0.794552
0.881931
0.80162
0.820459
0.803219
0.824472
0.801653
0.859282
0.861346
0.824133
0.857446
0.726523
0.816953
0.854222
0.806522
0.857285
0.804696
0.723268
0.829297
0.805477
0.8143
0.830311
0.873295
0.864514
0.859137
0.802135
0.806913
0.804029
0.792187
0.708234
0.841512
0.791453
0.741156
0.858412
0.801731
0.788295
0.802466
0.799195
0.796039
0.859418
0.8261
0.839849
0.857473
0.852176
0.849656
0.859246
0.842262
0.767892
0.761929
0.721206
0.863078
0.889317
0.845586
0.841761
0.873548
0.883318
0.782231
0.853427
0.883764
0.847941
0.860823
0.85031
0.789786
0.854873
0.810526
0.80983
0.680693
0.860173
0.783422
0.859273
0.816766
0.804058
0.724574
0.859203
0.706284
0.827084
0.804608
0.850801
0.879432
0.804035
0.79938
0.859177
0.856342
0.807759
0.783828
0.685897
0.858742
0.804819
0.831822
0.861014
0.844388
0.808505
0.862844
0.781989
0.689318
0.901534
0.838645
0.858164
0.805355
0.729605
0.801581
0.802565
0.858241
0.795738
0.724225
0.898561
0.774736
0.867188
0.857568
0.86503
0.870747
0.834194
0.805635
0.858391
0.87475
0.787495
0.888571
0.858606
0.686909
0.805694
0.766192
0.877842
0.808379
0.805134
0.804624
0.802126
0.802992
0.854244
0.86067
0.855489
0.80943
0.803568
0.8014
0.802411
0.86016
0.858177
0.803461
0.860411
0.87541
0.803635
0.822537
0.803281
0.841139
0.787953
0.858925
0.858242
0.726105
0.774208
0.808863
0.858717
0.807463
0.683944
0.856813
0.85737
0.835249
0.806375
0.80372
0.802886
0.826295
0.691352
0.807213
0.858137
0.836802
0.859101
0.860345
0.840227
0.782634
0.807799
0.814124
0.797226
0.801996
0.796044
0.765969
0.803045
0.81725
0.855705
0.860066
0.849931
0.691741
0.870638
0.860821
0.822562
0.804215
0.824336
0.859179
0.90816
0.833968
0.866866
0.808222
0.808067
0.881953
0.803426
0.800885
0.859082
0.735373
0.723176
0.803933
0.804618
0.703018
0.730232
0.800457
0.860016
0.860015
0.859831
0.769815
0.849773
0.859428
0.861457
0.854172
0.813972
0.860844
0.800281
0.807068
0.857606
0.859412
0.743818
0.691517
0.860882
0.727012
0.775259
0.686073
0.869899
0.80254
0.695379
0.699633
0.85549
0.918586
0.858212
0.728908
0.858204
0.825093
0.803968
0.79556
0.824091
0.849086
0.797833
0.85804
0.842049
0.701321
0.858139
0.811104
0.857208
0.719874
0.859484
0.82859
0.858347
0.802751
0.736865
0.867577
0.839712
0.810238
0.681911
0.858081
0.80264
0.852992
0.730996
0.858147
0.723433
0.783843
0.803544
0.833137
0.793476
0.780579
0.735373
0.689746
0.72662
0.802824
0.692306
0.859844
0.703486
0.801784
0.758527
0.730537
0.699098
0.793327
0.803264
0.73478
0.859332
0.802727
0.80494
0.804955
0.904428
0.80184
0.860381
0.804183
0.860535
0.765866
0.81089
0.787382
0.859561
0.901768
0.862871
0.797734
0.859576
0.813227
0.895824
0.804969
0.802505
0.876393
0.818097
0.8005
0.80903
0.80243
0.80105
0.743749
0.80596
0.803184
0.856972
0.864966
0.702811
0.811728
0.692857
0.739064
0.733662
0.821944
0.859024
0.853848
0.804796
0.706783
0.889962
0.803503
0.80362
0.885332
0.860419
0.789099
0.860159
0.80335
0.858318
0.803667
0.773566
0.805608
0.752498
0.801772
0.842149
0.802982
0.718997
0.845766
0.842622
0.754665
0.821072
0.691556
0.689724
0.805497
0.759349
0.778512
0.688745
0.786153
0.858888
0.723585
0.789128
0.736035
0.843633
0.742053
0.805525
0.808698
0.854079
0.744908
0.803138
0.90863
0.803508
0.858171
0.717977
0.760202
0.842546
0.860384
0.858241
0.874727
0.859043
0.806819
0.805279
0.80388
0.775873
0.736918
0.712725
0.81605
0.70187
0.743036
0.85461
0.857727
0.809557
0.802028
0.709805
0.853361
0.804495
0.694239
0.697101
0.793927
0.804278
0.844661
0.687141
0.805382
0.696135
0.784624
0.70921
0.818336
0.804412
0.703943
0.704934
0.887925
0.81271
0.808293
0.782028
0.734646
0.731373
0.728068
0.857051
0.803176
0.778611
0.716803
0.802236
0.853057
0.857939
0.860128
0.858174
0.864974
0.804227
0.858149
0.80633
0.875261
0.860802
0.803482
0.859445
0.742194
0.853774
0.85341
0.856384
0.853212
0.856696
0.803667
0.857667
0.853009
0.852936
0.857339
0.801057
0.85702
0.858471
0.739607
0.858328
0.88868
0.858136
0.797933
0.727063
0.881689
0.858527
0.860847
0.802156
0.859178
0.771295
0.877628
0.716625
0.789614
0.81207
0.858113
0.804745
0.803869
0.864601
0.811716
0.807544
0.858204
0.818805
0.868437
0.869719
0.851004
0.738193
0.734811
0.858071
0.8573
0.831251
0.875628
0.872369
0.814686
0.854733
0.819065
0.857654
0.857825
0.857884
0.858478
0.816706
0.858124
0.876495
0.858135
0.856103
0.858261
0.857976
0.793633
0.855486
0.807197
0.807877
0.807516
0.858456
0.859112
0.826796
0.768557
0.858422
0.807704
0.853624
0.807768
0.878866
0.805792
0.857356
0.859768
0.807816
0.69534
0.804651
0.859953
0.818544
0.812222
0.860113
0.858952
0.859744
0.812071
0.883915
0.68525
0.860242
0.869148
0.859578
0.803882
0.810584
0.858267
0.869082
0.802965
0.804428
0.843666
0.705167
0.860356
0.811235
0.810985
0.858763
0.859803
0.859647
0.859295
0.687846
0.816709
0.771776
0.901081
0.857651
0.751246
0.735381
0.85819
0.810083
0.821612
0.724505
0.803117
0.859345
0.725679
0.802435
0.805228
0.819147
0.838716
0.880486
0.811796
0.703309
0.80285
0.785928
0.813984
0.903886
0.838413
0.817939
0.821888
0.858534
0.859249
0.859773
0.8661
0.721523
0.839674
0.731792
0.858771
0.858811
0.731529
0.858857
0.84413
0.732494
0.85253
0.749932
0.883526
0.793591
0.858493
0.860373
0.858912
0.751161
0.858949
0.714765
0.802376
0.800451
0.859158
0.858236
0.755379
0.778953
0.863462
0.85873
0.850326
0.859515
0.859191
0.861037
0.802036
0.683569
0.771216
0.785088
0.750074
0.867882
0.825656
0.835734
0.82165
0.803141
0.860043
0.860374
0.860307
0.789908
0.688693
0.803483
0.697291
0.842607
0.827377
0.802264
0.804413
0.816863
0.808893
0.823345
0.761631
0.859239
0.880367
0.848141
0.801922
0.756616
0.815547
0.796065
0.859867
0.693592
0.799329
0.84812
0.801701
0.731534
0.859418
0.849176
0.857297
0.68608
0.808952
0.803593
0.858372
0.730748
0.859673
0.803668
0.803895
0.803356
0.859538
0.859402
0.857348
0.859985
0.737131
0.805453
0.803619
0.860203
0.909165
0.859603
0.816022
0.842029
0.800135
0.803588
0.701042
0.860282
0.803617
0.828589
0.808369
0.887204
0.849831
0.853567
0.802905
0.858776
0.791738
0.690636
0.803871
0.833721
0.845964
0.816018
0.858361
0.687843
0.88173
0.857899
0.814788
0.776513
0.755183
0.815978
0.848714
0.860215
0.816477
0.860237
0.805137
0.74529
0.804135
0.801831
0.77694
0.86006
0.859981
0.881619
0.857412
0.860318
0.707595
0.810721
0.860306
0.802794
0.814391
0.820261
0.803333
0.858662
0.861825
0.802945
0.805742
0.802931
0.851861
0.868143
0.805134
0.801888
0.804507
0.779796
0.858774
0.693311
0.886866
0.80442
0.682407
0.805662
0.837768
0.822622
0.728581
0.707678
0.803691
0.806786
0.803171
0.880914
0.78997
0.853113
0.803477
0.865495
0.805661
0.805288
0.854942
0.854503
0.823368
0.85879
0.858474
0.886093
0.782262
0.874669
0.857669
0.730316
0.80461
0.803919
0.804514
0.859197
0.859644
0.806091
0.803307
0.802424
0.859827
0.805194
0.804368
0.802194
0.860572
0.804677
0.803265
0.807522
0.861601
0.803409
0.803668
0.827507
0.802076
0.858184
0.728596
0.861547
0.873825
0.806927
0.858757
0.803992
0.862758
0.867715
0.803854
0.859142
0.80254
0.8103
0.798798
0.803334
0.805163
0.807696
0.808162
0.807421
0.857961
0.858324
0.813209
0.864196
0.804994
0.803244
0.802327
0.797324
0.864645
0.803946
0.858608
0.858174
0.809298
0.807687
0.803549
0.867538
0.864415
0.802126
0.746062
0.802848
0.870624
0.85801
0.808544
0.805278
0.82199
0.870838
0.732498
0.831479
0.833312
0.851733
0.858204
0.814115
0.815778
0.811526
0.804652
0.815036
0.810699
0.695503
0.874422
0.802225
0.858573
0.8789
0.858651
0.806044
0.811072
0.858439
0.85595
0.808867
0.736739
0.812865
0.884895
0.836863
0.802612
0.819308
0.889401
0.802478
0.89423
0.839424
0.857996
0.859046
0.80545
0.805992
0.859358
0.858015
0.806662
0.85881
0.820008
0.897856
0.824149
0.811348
0.802845
0.859558
0.812839
0.840512
0.811521
0.808458
0.815793
0.858148
0.859345
0.858242
0.857805
0.833836
0.817693
0.774724
0.733561
0.859535
0.858274
0.807203
0.858706
0.697674
0.876484
0.80216
0.807591
0.857005
0.85845
0.804821
0.858454
0.802718
0.803026
0.811065
0.848357
0.807052
0.822032
0.859732
0.844616
0.835873
0.802648
0.843744
0.803811
0.815788
0.808015
0.802087
0.802186
0.802774
0.842345
0.802821
0.805735
0.866497
0.833721
0.77389
0.705887
0.812167
0.772204
0.802188
0.721291
0.805437
0.809166
0.805822
0.858358
0.835913
0.858711
0.86002
0.812137
0.806383
0.898285
0.858133
0.808282
0.788687
0.725596
0.812061
0.81002
0.787581
0.858355
0.858785
0.797513
0.804635
0.804891
0.735917
0.858166
0.80402
0.825157
0.791909
0.875772
0.811836
0.805841
0.80581
0.816219
0.813038
0.69399
0.803381
0.869036
0.858751
0.804626
0.713092
0.817389
0.858556
0.860627
0.86546
0.858657
0.805161
0.859559
0.812019
0.694409
0.810582
0.79505
0.805347
0.858991
0.755512
0.858282
0.847125
0.833075
0.73855
0.90486
0.795816
0.821247
0.8042
0.791457
0.811346
0.850698
0.811303
0.803936
0.859087
0.853148
0.793606
0.79489
0.858053
0.811839
0.835787
0.857464
0.83651
0.841067
0.807164
0.860105
0.880359
0.852326
0.821259
0.85935
0.70233
0.801319
0.858173
0.856528
0.886921
0.860245
0.82153
0.691484
0.854434
0.802776
0.85807
0.818469
0.87284
0.859739
0.813252
0.897503
0.786564
0.814826
0.859135
0.852756
0.807744
0.858454
0.732649
0.804012
0.875513
0.834467
0.813976
0.853846
0.85929
0.811493
0.748419
0.853338
0.802863
0.868416
0.857864
0.815355
0.860712
0.833096
0.852992
0.857519
0.812513
0.858577
0.800041
0.854668
0.858442
0.817342
0.859829
0.859739
0.856491
0.857191
0.859923
0.852856
0.868958
0.858274
0.802647
0.827074
0.859137
0.81944
0.816865
0.802705
0.803104
0.860041
0.858583
0.830845
0.860091
0.85685
0.802501
0.85258
0.860227
0.859509
0.803061
0.858367
0.859057
0.808908
0.860347
0.865836
0.806438
0.852619
0.824704
0.695342
0.858203
0.858091
0.853421
0.856177
0.859107
0.860203
0.857523
0.858526
0.763201
0.860072
0.80308
0.858149
0.822114
0.835899
0.859386
0.845804
0.86311
0.860856
0.857523
0.821111
0.822848
0.845352
0.859777
0.858139
0.821737
0.864609
0.858983
0.858102
0.80346
0.860458
0.859635
0.698649
0.734519
0.816872
0.859388
0.803857
0.858079
0.858147
0.842154
0.767291
0.858834
0.768117
0.851238
0.853774
0.859674
0.859578
0.858883
0.808589
0.860367
0.858819
0.84168
0.858942
0.775053
0.822848
0.857652
0.802245
0.803573
0.858207
0.878725
0.859541
0.859346
0.874625
0.857428
0.867252
0.71637
0.862333
0.858564
0.853836
0.85824
0.85153
0.858294
0.772908
0.802085
0.83288
0.802537
0.802165
0.80741
0.794645
0.859294
0.857868
0.787144
0.857629
0.828929
0.858929
0.857559
0.801907
0.858066
0.860373
0.82648
0.810619
0.846594
0.855837
0.715206
0.858578
0.857808
0.860498
0.738148
0.737809
0.696713
0.825243
0.705418
0.85426
0.779393
0.842941
0.8587
0.783941
0.850353
0.856895
0.790764
0.809866
0.858423
0.801986
0.857171
0.858119
0.858054
0.860306
0.852153
0.804225
0.786775
0.838093
0.857772
0.857449
0.801909
0.817738
0.805364
0.858129
0.858584
0.854671
0.857725
0.693401
0.854389
0.858449
0.858495
0.791456
0.81804
0.808268
0.820693
0.846558
0.702719
0.812577
0.801994
0.858081
0.858004
0.857866
0.859059
0.858442
0.855212
0.856412
0.803467
0.855865
0.873352
0.85725
0.799985
0.856234
0.715398
0.738122
0.860042
0.858011
0.804156
0.859715
0.752741
0.803373
0.803391
0.858968
0.700859
0.858257
0.802069
0.858194
0.864405
0.796137
0.859563
0.858331
0.82581
0.858617
0.787121
0.803343
0.858718
0.91382
0.828767
0.858147
0.833571
0.856014
0.867768
0.738436
0.709088
0.852182
0.802839