# vtk DataFile Version 1.0
unstructured grid
ascii
DATASET UNSTRUCTURED_GRID
points 7812 float
-1 0 0
-1 1 0
2 0 0
2 1 0
0 0 0
1 0 0
-1 1 0.1
-1 0 0.1
0 0 0.1
1 0 0.1
2 0 0.1
2 1 0.1
-0.99 0 0
-0.98 0 0
-0.97 0 0
-0.96 0 0
-0.95 0 0
-0.94 0 0
-0.93 0 0
-0.92 0 0
-0.91 0 0
-0.9 0 0
-0.89 0 0
-0.88 0 0
-0.87 0 0
-0.86 0 0
-0.85 0 0
-0.84 0 0
-0.83 0 0
-0.82 0 0
-0.81 0 0
-0.8 0 0
-0.79 0 0
-0.78 0 0
-0.77 0 0
-0.76 0 0
-0.75 0 0
-0.74 0 0
-0.73 0 0
-0.72 0 0
-0.71 0 0
-0.7 0 0
-0.69 0 0
-0.68 0 0
-0.67 0 0
-0.66 0 0
-0.65 0 0
-0.64 0 0
-0.63 0 0
-0.62 0 0
-0.61 0 0
-0.6 0 0
-0.59 0 0
-0.58 0 0
-0.57 0 0
-0.56 0 0
-0.55 0 0
-0.54 0 0
-0.53 0 0
-0.52 0 0
-0.51 0 0
-0.5 0 0
-0.49 0 0
-0.48 0 0
-0.47 0 0
-0.46 0 0
-0.45 0 0
-0.44 0 0
-0.43 0 0
-0.42 0 0
-0.41 0 0
-0.4 0 0
-0.39 0 0
-0.38 0 0
-0.37 0 0
-0.36 0 0
-0.35 0 0
-0.34 0 0
-0.33 0 0
-0.32 0 0
-0.31 0 0
-0.3 0 0
-0.29 0 0
-0.28 0 0
-0.27 0 0
-0.26 0 0
-0.25 0 0
-0.24 0 0
-0.23 0 0
-0.22 0 0
-0.21 0 0
-0.2 0 0
-0.19 0 0
-0.18 0 0
-0.17 0 0
-0.16 0 0
-0.15 0 0
-0.14 0 0
-0.13 0 0
-0.12 0 0
-0.11 0 0
-0.1 0 0
-0.09 0 0
-0.08 0 0
-0.07 0 0
-0.06 0 0
-0.05 0 0
-0.04 0 0
-0.03 0 0
-0.02 0 0
-0.01 0 0
1.01 0 0
1.02 0 0
1.03 0 0
1.04 0 0
1.05 0 0
1.06 0 0
1.07 0 0
1.08 0 0
1.09 0 0
1.1 0 0
1.11 0 0
1.12 0 0
1.13 0 0
1.14 0 0
1.15 0 0
1.16 0 0
1.17 0 0
1.18 0 0
1.19 0 0
1.2 0 0
1.21 0 0
1.22 0 0
1.23 0 0
1.24 0 0
1.25 0 0
1.26 0 0
1.27 0 0
1.28 0 0
1.29 0 0
1.3 0 0
1.31 0 0
1.32 0 0
1.33 0 0
1.34 0 0
1.35 0 0
1.36 0 0
1.37 0 0
1.38 0 0
1.39 0 0
1.4 0 0
1.41 0 0
1.42 0 0
1.43 0 0
1.44 0 0
1.45 0 0
1.46 0 0
1.47 0 0
1.48 0 0
1.49 0 0
1.5 0 0
1.51 0 0
1.52 0 0
1.53 0 0
1.54 0 0
1.55 0 0
1.56 0 0
1.57 0 0
1.58 0 0
1.59 0 0
1.6 0 0
1.61 0 0
1.62 0 0
1.63 0 0
1.64 0 0
1.65 0 0
1.66 0 0
1.67 0 0
1.68 0 0
1.69 0 0
1.7 0 0
1.71 0 0
1.72 0 0
1.73 0 0
1.74 0 0
1.75 0 0
1.76 0 0
1.77 0 0
1.78 0 0
1.79 0 0
1.8 0 0
1.81 0 0
1.82 0 0
1.83 0 0
1.84 0 0
1.85 0 0
1.86 0 0
1.87 0 0
1.88 0 0
1.89 0 0
1.9 0 0
1.91 0 0
1.92 0 0
1.93 0 0
1.94 0 0
1.95 0 0
1.96 0 0
1.97 0 0
1.98 0 0
1.99 0 0
2 0.010289 0
2 0.0215307 0
2 0.0338135 0
2 0.0472336 0
2 0.0618965 0
2 0.0779171 0
2 0.0954213 0
2 0.114546 0
2 0.135442 0
2 0.158274 0
2 0.183219 0
2 0.210474 0
2 0.240253 0
2 0.27279 0
2 0.308339 0
2 0.347181 0
2 0.389619 0
2 0.435987 0
2 0.486649 0
2 0.542002 0
2 0.602481 0
2 0.66856 0
2 0.740758 0
2 0.819642 0
2 0.90583 0
1.9 1 0
1.8 1 0
1.7 1 0
1.6 1 0
1.5 1 0
1.4 1 0
1.3 1 0
1.2 1 0
1.1 1 0
1 1 0
0.9 1 0
0.8 1 0
0.7 1 0
0.6 1 0
0.5 1 0
0.4 1 0
0.3 1 0
0.2 1 0
0.1 1 0
3.69793e-12 1 0
-0.1 1 0
-0.2 1 0
-0.3 1 0
-0.4 1 0
-0.5 1 0
-0.6 1 0
-0.7 1 0
-0.8 1 0
-0.9 1 0
-1 0.90583 0
-1 0.819642 0
-1 0.740758 0
-1 0.66856 0
-1 0.602481 0
-1 0.542002 0
-1 0.486649 0
-1 0.435987 0
-1 0.389619 0
-1 0.347181 0
-1 0.308339 0
-1 0.27279 0
-1 0.240253 0
-1 0.210474 0
-1 0.183219 0
-1 0.158274 0
-1 0.135442 0
-1 0.114546 0
-1 0.0954213 0
-1 0.0779171 0
-1 0.0618965 0
-1 0.0472336 0
-1 0.0338135 0
-1 0.0215307 0
-1 0.010289 0
0.00921362 0.00379763 0
0.0184561 0.00752451 0
0.0277268 0.0111804 0
0.0370253 0.0147652 0
0.0463511 0.0182786 0
0.0557034 0.0217203 0
0.0650819 0.0250903 0
0.074486 0.0283883 0
0.083915 0.0316141 0
0.0933685 0.0347675 0
0.102846 0.0378484 0
0.112347 0.0408565 0
0.12187 0.0437917 0
0.131416 0.0466538 0
0.140983 0.0494427 0
0.150572 0.0521581 0
0.160181 0.0547999 0
0.16981 0.0573681 0
0.179458 0.0598623 0
0.189125 0.0622825 0
0.198811 0.0646285 0
0.208514 0.0669001 0
0.218234 0.0690974 0
0.227971 0.07122 0
0.237724 0.073268 0
0.247493 0.0752411 0
0.257276 0.0771393 0
0.267073 0.0789625 0
0.276884 0.0807105 0
0.286708 0.0823832 0
0.296545 0.0839806 0
0.306394 0.0855025 0
0.316254 0.0869488 0
0.326125 0.0883196 0
0.336006 0.0896146 0
0.345896 0.0908339 0
0.355796 0.0919773 0
0.365704 0.0930447 0
0.375621 0.0940362 0
0.385544 0.0949517 0
0.395474 0.095791 0
0.40541 0.0965542 0
0.415352 0.0972412 0
0.425299 0.097852 0
0.43525 0.0983865 0
0.445205 0.0988447 0
0.455164 0.0992266 0
0.465125 0.0995321 0
0.475088 0.0997613 0
0.485052 0.0999141 0
0.495017 0.0999904 0
0.504983 0.0999904 0
0.514948 0.0999141 0
0.524912 0.0997613 0
0.534875 0.0995321 0
0.544836 0.0992266 0
0.554795 0.0988447 0
0.56475 0.0983865 0
0.574701 0.097852 0
0.584648 0.0972412 0
0.59459 0.0965542 0
0.604526 0.095791 0
0.614456 0.0949517 0
0.624379 0.0940362 0
0.634296 0.0930447 0
0.644204 0.0919773 0
0.654104 0.0908339 0
0.663994 0.0896146 0
0.673875 0.0883196 0
0.683746 0.0869488 0
0.693606 0.0855025 0
0.703455 0.0839806 0
0.713292 0.0823832 0
0.723116 0.0807105 0
0.732927 0.0789625 0
0.742724 0.0771393 0
0.752508 0.0752411 0
0.762276 0.073268 0
0.772029 0.07122 0
0.781766 0.0690974 0
0.791486 0.0669001 0
0.801189 0.0646285 0
0.810875 0.0622825 0
0.820542 0.0598623 0
0.83019 0.0573681 0
0.839819 0.0547999 0
0.849428 0.0521581 0
0.859017 0.0494427 0
0.868584 0.0466538 0
0.87813 0.0437917 0
0.887653 0.0408565 0
0.897154 0.0378484 0
0.906631 0.0347675 0
0.916085 0.0316141 0
0.925514 0.0283883 0
0.934918 0.0250903 0
0.944297 0.0217203 0
0.953649 0.0182786 0
0.962975 0.0147652 0
0.972273 0.0111804 0
0.981544 0.00752451 0
0.990786 0.00379763 0
-1 0.90583 0.1
-1 0.819642 0.1
-1 0.740758 0.1
-1 0.66856 0.1
-1 0.602481 0.1
-1 0.542002 0.1
-1 0.486649 0.1
-1 0.435987 0.1
-1 0.389619 0.1
-1 0.347181 0.1
-1 0.308339 0.1
-1 0.27279 0.1
-1 0.240253 0.1
-1 0.210474 0.1
-1 0.183219 0.1
-1 0.158274 0.1
-1 0.135442 0.1
-1 0.114546 0.1
-1 0.0954213 0.1
-1 0.0779171 0.1
-1 0.0618965 0.1
-1 0.0472336 0.1
-1 0.0338135 0.1
-1 0.0215307 0.1
-1 0.010289 0.1
-0.99 0 0.1
-0.98 0 0.1
-0.97 0 0.1
-0.96 0 0.1
-0.95 0 0.1
-0.94 0 0.1
-0.93 0 0.1
-0.92 0 0.1
-0.91 0 0.1
-0.9 0 0.1
-0.89 0 0.1
-0.88 0 0.1
-0.87 0 0.1
-0.86 0 0.1
-0.85 0 0.1
-0.84 0 0.1
-0.83 0 0.1
-0.82 0 0.1
-0.81 0 0.1
-0.8 0 0.1
-0.79 0 0.1
-0.78 0 0.1
-0.77 0 0.1
-0.76 0 0.1
-0.75 0 0.1
-0.74 0 0.1
-0.73 0 0.1
-0.72 0 0.1
-0.71 0 0.1
-0.7 0 0.1
-0.69 0 0.1
-0.68 0 0.1
-0.67 0 0.1
-0.66 0 0.1
-0.65 0 0.1
-0.64 0 0.1
-0.63 0 0.1
-0.62 0 0.1
-0.61 0 0.1
-0.6 0 0.1
-0.59 0 0.1
-0.58 0 0.1
-0.57 0 0.1
-0.56 0 0.1
-0.55 0 0.1
-0.54 0 0.1
-0.53 0 0.1
-0.52 0 0.1
-0.51 0 0.1
-0.5 0 0.1
-0.49 0 0.1
-0.48 0 0.1
-0.47 0 0.1
-0.46 0 0.1
-0.45 0 0.1
-0.44 0 0.1
-0.43 0 0.1
-0.42 0 0.1
-0.41 0 0.1
-0.4 0 0.1
-0.39 0 0.1
-0.38 0 0.1
-0.37 0 0.1
-0.36 0 0.1
-0.35 0 0.1
-0.34 0 0.1
-0.33 0 0.1
-0.32 0 0.1
-0.31 0 0.1
-0.3 0 0.1
-0.29 0 0.1
-0.28 0 0.1
-0.27 0 0.1
-0.26 0 0.1
-0.25 0 0.1
-0.24 0 0.1
-0.23 0 0.1
-0.22 0 0.1
-0.21 0 0.1
-0.2 0 0.1
-0.19 0 0.1
-0.18 0 0.1
-0.17 0 0.1
-0.16 0 0.1
-0.15 0 0.1
-0.14 0 0.1
-0.13 0 0.1
-0.12 0 0.1
-0.11 0 0.1
-0.1 0 0.1
-0.09 0 0.1
-0.08 0 0.1
-0.07 0 0.1
-0.06 0 0.1
-0.05 0 0.1
-0.04 0 0.1
-0.03 0 0.1
-0.02 0 0.1
-0.01 0 0.1
0.00921362 0.00379763 0.1
0.0184561 0.00752451 0.1
0.0277268 0.0111804 0.1
0.0370253 0.0147652 0.1
0.0463511 0.0182786 0.1
0.0557034 0.0217203 0.1
0.0650819 0.0250903 0.1
0.074486 0.0283883 0.1
0.083915 0.0316141 0.1
0.0933685 0.0347675 0.1
0.102846 0.0378484 0.1
0.112347 0.0408565 0.1
0.12187 0.0437917 0.1
0.131416 0.0466538 0.1
0.140983 0.0494427 0.1
0.150572 0.0521581 0.1
0.160181 0.0547999 0.1
0.16981 0.0573681 0.1
0.179458 0.0598623 0.1
0.189125 0.0622825 0.1
0.198811 0.0646285 0.1
0.208514 0.0669001 0.1
0.218234 0.0690974 0.1
0.227971 0.07122 0.1
0.237724 0.073268 0.1
0.247493 0.0752411 0.1
0.257276 0.0771393 0.1
0.267073 0.0789625 0.1
0.276884 0.0807105 0.1
0.286708 0.0823832 0.1
0.296545 0.0839806 0.1
0.306394 0.0855025 0.1
0.316254 0.0869488 0.1
0.326125 0.0883196 0.1
0.336006 0.0896146 0.1
0.345896 0.0908339 0.1
0.355796 0.0919773 0.1
0.365704 0.0930447 0.1
0.375621 0.0940362 0.1
0.385544 0.0949517 0.1
0.395474 0.095791 0.1
0.40541 0.0965542 0.1
0.415352 0.0972412 0.1
0.425299 0.097852 0.1
0.43525 0.0983865 0.1
0.445205 0.0988447 0.1
0.455164 0.0992266 0.1
0.465125 0.0995321 0.1
0.475088 0.0997613 0.1
0.485052 0.0999141 0.1
0.495017 0.0999904 0.1
0.504983 0.0999904 0.1
0.514948 0.0999141 0.1
0.524912 0.0997613 0.1
0.534875 0.0995321 0.1
0.544836 0.0992266 0.1
0.554795 0.0988447 0.1
0.56475 0.0983865 0.1
0.574701 0.097852 0.1
0.584648 0.0972412 0.1
0.59459 0.0965542 0.1
0.604526 0.095791 0.1
0.614456 0.0949517 0.1
0.624379 0.0940362 0.1
0.634296 0.0930447 0.1
0.644204 0.0919773 0.1
0.654104 0.0908339 0.1
0.663994 0.0896146 0.1
0.673875 0.0883196 0.1
0.683746 0.0869488 0.1
0.693606 0.0855025 0.1
0.703455 0.0839806 0.1
0.713292 0.0823832 0.1
0.723116 0.0807105 0.1
0.732927 0.0789625 0.1
0.742724 0.0771393 0.1
0.752508 0.0752411 0.1
0.762276 0.073268 0.1
0.772029 0.07122 0.1
0.781766 0.0690974 0.1
0.791486 0.0669001 0.1
0.801189 0.0646285 0.1
0.810875 0.0622825 0.1
0.820542 0.0598623 0.1
0.83019 0.0573681 0.1
0.839819 0.0547999 0.1
0.849428 0.0521581 0.1
0.859017 0.0494427 0.1
0.868584 0.0466538 0.1
0.87813 0.0437917 0.1
0.887653 0.0408565 0.1
0.897154 0.0378484 0.1
0.906631 0.0347675 0.1
0.916085 0.0316141 0.1
0.925514 0.0283883 0.1
0.934918 0.0250903 0.1
0.944297 0.0217203 0.1
0.953649 0.0182786 0.1
0.962975 0.0147652 0.1
0.972273 0.0111804 0.1
0.981544 0.00752451 0.1
0.990786 0.00379763 0.1
1.01 0 0.1
1.02 0 0.1
1.03 0 0.1
1.04 0 0.1
1.05 0 0.1
1.06 0 0.1
1.07 0 0.1
1.08 0 0.1
1.09 0 0.1
1.1 0 0.1
1.11 0 0.1
1.12 0 0.1
1.13 0 0.1
1.14 0 0.1
1.15 0 0.1
1.16 0 0.1
1.17 0 0.1
1.18 0 0.1
1.19 0 0.1
1.2 0 0.1
1.21 0 0.1
1.22 0 0.1
1.23 0 0.1
1.24 0 0.1
1.25 0 0.1
1.26 0 0.1
1.27 0 0.1
1.28 0 0.1
1.29 0 0.1
1.3 0 0.1
1.31 0 0.1
1.32 0 0.1
1.33 0 0.1
1.34 0 0.1
1.35 0 0.1
1.36 0 0.1
1.37 0 0.1
1.38 0 0.1
1.39 0 0.1
1.4 0 0.1
1.41 0 0.1
1.42 0 0.1
1.43 0 0.1
1.44 0 0.1
1.45 0 0.1
1.46 0 0.1
1.47 0 0.1
1.48 0 0.1
1.49 0 0.1
1.5 0 0.1
1.51 0 0.1
1.52 0 0.1
1.53 0 0.1
1.54 0 0.1
1.55 0 0.1
1.56 0 0.1
1.57 0 0.1
1.58 0 0.1
1.59 0 0.1
1.6 0 0.1
1.61 0 0.1
1.62 0 0.1
1.63 0 0.1
1.64 0 0.1
1.65 0 0.1
1.66 0 0.1
1.67 0 0.1
1.68 0 0.1
1.69 0 0.1
1.7 0 0.1
1.71 0 0.1
1.72 0 0.1
1.73 0 0.1
1.74 0 0.1
1.75 0 0.1
1.76 0 0.1
1.77 0 0.1
1.78 0 0.1
1.79 0 0.1
1.8 0 0.1
1.81 0 0.1
1.82 0 0.1
1.83 0 0.1
1.84 0 0.1
1.85 0 0.1
1.86 0 0.1
1.87 0 0.1
1.88 0 0.1
[...]
CELL_DATA 7425
SCALARS rho float
LOOKUP_TABLE default
0.832807
0.803012
0.933324
0.932763
0.801475
0.932078
0.924725
0.935917
0.939319
0.890029
0.935488
0.811157
0.936387
0.932664
0.804988
0.933811
0.802935
0.938128
0.801405
0.820191
0.933702
0.824618
0.885006
0.933401
0.801216
0.865903
0.932983
0.848894
0.796744
0.809166
0.924623
0.81629
0.801451
0.855618
0.811998
0.933402
0.800002
0.93601
0.812346
0.930887
0.873692
0.83092
0.908823
0.804666
0.832405
0.822731
0.918346
0.936484
0.825922
0.805183
0.811566
0.803127
0.822743
0.802185
0.807076
0.802885
0.933192
0.80299
0.890399
0.87508
0.852639
0.807636
0.938223
0.802252
0.795103
0.933558
0.832739
0.902811
0.802246
0.809072
0.804688
0.801835
0.94233
0.823875
0.829499
0.939228
0.8031
0.796237
0.938108
0.815196
0.934322
0.807122
0.9361
0.824078
0.927114
0.801859
0.82885
0.930717
0.819811
0.935383
0.80929
0.886621
0.847339
0.801613
0.933595
0.895628
0.835603
0.805778
0.933277
0.803897
0.929068
0.809219
0.799886
0.931212
0.83662
0.812415
0.931306
0.873883
0.935006
0.801706
0.933464
0.822114
0.824534
0.814795
0.908974
0.806096
0.932877
0.802181
0.803095
0.81974
0.803019
0.904121
0.939492
0.812949
0.938466
0.83793
0.807306
0.91487
0.85859
0.807076
0.934965
0.854802
0.811473
0.858709
0.824138
0.801457
0.821702
0.882642
0.830626
0.829743
0.877398
0.811958
0.936962
0.80613
0.803301
0.820358
0.825561
0.915719
0.822681
0.933422
0.922457
0.811612
0.803946
0.810559
0.802771
0.799675
0.81157
0.933635
0.912673
0.845094
0.801751
0.805584
0.801899
0.933575
0.933102
0.802986
0.938942
0.906724
0.808957
0.801781
0.933309
0.806657
0.917643
0.801753
0.803012
0.828241
0.805087
0.896073
0.834009
0.806931
0.801637
0.913438
0.941299
0.931031
0.811769
0.933192
0.802421
0.829077
0.801637
0.93727
0.94058
0.801509
0.810066
0.802179
0.93492
0.932261
0.8191
0.91567
0.853239
0.807559
0.813955
0.938827
0.842231
0.838089
0.827422
0.815108
0.835869
0.831394
0.829486
0.941595
0.80706
0.79464
0.927344
0.939816
0.933344
0.933102
0.934733
0.851299
0.818109
0.936742
0.820055
0.832762
0.803978
0.93214
0.935424
0.93924
0.933134
0.940896
0.85468
0.808782
0.834836
0.855629
0.809278
0.801325
0.80249
0.879701
0.829316
0.844745
0.81018
0.93955
0.862492
0.930332
0.807428
0.919149
0.814027
0.831707
0.933215
0.801714
0.932636
0.804794
0.937704
0.806268
0.940638
0.933183
0.831505
0.815466
0.802567
0.808069
0.841367
0.935061
0.816923
0.934322
0.93515
0.930648
0.935055
0.80697
0.801454
0.933276
0.938928
0.807943
0.844866
0.935291
0.816613
0.804023
0.932934
0.928668
0.937798
0.931732
0.81299
0.93494
0.856114
0.930646
0.828857
0.934368
0.801739
0.933815
0.801357
0.815822
0.866402
0.830983
0.803888
0.921865
0.939412
0.934314
0.848618
0.817086
0.853485
0.933372
0.813172
0.903362
0.801806
0.854189
0.805874
0.851518
0.934852
0.93819
0.939806
0.936035
0.933331
0.818754
0.813838
0.799007
0.940961
0.934856
0.858449
0.933062
0.801893
0.807871
0.912464
0.926444
0.872388
0.802403
0.802798
0.938168
0.933863
0.835305
0.937254
0.831626
0.847078
0.884021
0.936003
0.951257
0.801521
0.826368
0.858789
0.849989
0.80824
0.91042
0.932883
0.934986
0.936818
0.865849
0.851211
0.801484
0.912467
0.829652
0.886581
0.816303
0.943467
0.795421
0.807762
0.801809
0.80272
0.937625
0.934454
0.933991
0.848839
0.830762
0.842682
0.830871
0.848805
0.921089
0.80282
0.840053
0.874354
0.826897
0.929391
0.933732
0.80249
0.802938
0.82992
0.843775
0.828619
0.938927
0.937642
0.794688
0.82093
0.823367
0.805853
0.938325
0.801544
0.940603
0.826003
0.80703
0.842507
0.937427
0.801048
0.907388
0.93809
0.805202
0.803273
0.934179
0.807236
0.932964
0.815486
0.918137
0.807623
0.825192
0.804878
0.852047
0.926515
0.850449
0.934348
0.943151
0.831607
0.820592
0.893646
0.802573
0.938731
0.816553
0.932719
0.93317
0.799974
0.93325
0.813213
0.933154
0.933617
0.932543
0.830127
0.933348
0.816744
0.812477
0.80218
0.91092
0.896468
0.80434
0.797246
0.931192
0.891376
0.804739
0.839019
0.843369
0.85792
0.937899
0.934373
0.939917
0.931077
0.802263
0.940467
0.805305
0.929136
0.868561
0.801686
0.823744
0.921458
0.933518
0.808997
0.810021
0.884621
0.817048
0.840391
0.801921
0.842091
0.914931
0.816398
0.813681
0.815633
0.898032
0.900882
0.9359
0.935077
0.933298
0.938751
0.86945
0.83233
0.93359
0.928058
0.814909
0.813829
0.801897
0.93435
0.844971
0.937656
0.815541
0.842551
0.899639
0.932573
0.8203
0.802305
0.935059
0.81602
0.93663
0.935107
0.801449
0.910528
0.92797
0.801628
0.93533
0.82184
0.804918
0.803073
0.911996
0.93287
0.874179
0.936155
0.80203
0.933836
0.802851
0.816508
0.811783
0.835582
0.867073
0.84948
0.935745
0.913907
0.932549
0.893916
0.812297
0.935211
0.933045
0.801861
0.874502
0.921778
0.818357
0.801593
0.842011
0.936978
0.931952
0.839103
0.93845
0.933249
0.934787
0.934891
0.889335
0.838858
0.926688
0.806839
0.928365
0.935804
0.825089
0.937214
0.936577
0.820624
0.8089
0.925927
0.940789
0.909846
0.916912
0.806664
0.854227
0.802226
0.940812
0.935192
0.941464
0.837357
0.937148
0.840419
0.942604
0.815763
0.933991
0.830918
0.800935
0.82635
0.911476
0.940059
0.921333
0.933714
0.816887
0.845611
0.802135
0.801998
0.858153
0.931816
0.819045
0.815628
0.935858
0.938476
0.851811
0.799303
0.928892
0.934022
0.912941
0.82704
0.840058
0.801502
0.813974
0.809904
0.803635
0.930913
0.802639
0.934209
0.817789
0.828844
0.801711
0.921715
0.881262
0.940321
0.933512
0.895411
0.936972
0.926524
0.829452
0.932799
0.801693
0.802066
0.930756
0.818949
0.827942
0.934301
0.802354
0.808345
0.93921
0.933451
0.931274
0.932768
0.801497
0.830686
0.933973
0.821851
0.798617
0.801793
0.940213
0.843122
0.8027
0.830926
0.81237
0.803263
0.919862
0.935255
0.80578
0.929071
0.796863
0.933208
0.936429
0.801905
0.927801
0.939162
0.861935
0.933443
0.806775
0.936428
0.950588
0.802332
0.92863
0.803255
0.802245
0.934128
0.802091
0.801692
0.823315
0.812093
0.93036
0.940424
0.896764
0.916743
0.932647
0.815278
0.933159
0.806861
0.933251
0.939735
0.933605
0.827244
0.878837
0.934843
0.933743
0.933723
0.934402
0.934034
0.810369
0.918685
0.802071
0.933281
0.938741
0.936965
0.88422
0.936068
0.93183
0.814013
0.82082
0.819543
0.803187
0.88599
0.934185
0.933681
0.827148
0.85513
0.935281
0.937909
0.933567
0.934622
0.930267
0.813744
0.802989
0.811845
0.886947
0.939012
0.82054
0.930928
0.816443
0.852013
0.818198
0.814284
0.80239
0.933347
0.803879
0.934643
0.933748
0.804915
0.932837
0.8014
0.80903
0.833461
0.936028
0.932853
0.933334
0.818486
0.799396
0.876028
0.811044
0.951579
0.935156
0.802711
0.936647
0.814075
0.810867
0.93527
0.93321
0.81665
0.938131
0.934185
0.802581
0.9057
0.899243
0.93847
0.805806
0.802648
0.845521
0.808755
0.803691
0.875363
0.841215
0.93368
0.802175
0.809968
0.803298
0.93312
0.922091
0.937978
0.940685
0.878826
0.9303
0.80679
0.811011
0.840682
0.820878
0.933763
0.80171
0.813527
0.931013
0.912647
0.932883
0.811904
0.809297
0.93326
0.821361
0.929871
0.839071
0.941486
0.876846
0.935535
0.924913
0.939956
0.825954
0.801997
0.933277
0.84051
0.837901
0.930762
0.933331
0.933296
0.921247
0.809568
0.809029
0.847576
0.8369
0.795667
0.804763
0.929782
0.805473
0.801633
0.852071
0.804194
0.832862
0.817388
0.936061
0.804562
0.82365
0.93295
0.928167
0.93147
0.818553
0.839302
0.820697
0.803176
0.940335
0.801627
0.888957
0.935392
0.934459
0.940074
0.90346
0.801156
0.80265
0.806668
0.824176
0.940623
0.834179
0.828946
0.934837
0.934247
0.93519
0.933514
0.935289
0.932935
0.801455
0.79455
0.821142
0.824787
0.830475
0.826671
0.84254
0.814145
0.934944
0.864783
0.817985
0.811876
0.933238
0.937594
0.795889
0.852621
0.940215
0.92406
0.935926
0.933645
0.934746
0.934277
0.935469
0.939379
0.813409
0.936434
0.801962
0.932841
0.801881
0.933216
0.937351
0.828836
0.93722
0.934045
0.85047
0.839804
0.803862
0.933823
0.916332
0.805581
0.855939
0.839802
0.930747
0.917685
0.813409
0.938192
0.801679
0.933911
0.812908
0.817617
0.85973
0.820348
0.805711
0.93421
0.801237
0.811035
0.938125
0.931887
0.803236
0.854385
0.852357
0.801669
0.816471
0.9362
0.897234
0.802771
0.933819
0.815966
0.813421
0.799268
0.81079
0.830037
0.837228
0.934153
0.933406
0.933447
0.828576
0.802646
0.845068
0.853435
0.824307
0.933254
0.812514
0.822822
0.939288
0.90747
0.933619
0.938995
0.898711
0.933211
0.935051
0.932758
0.944636
0.93518
0.936977
0.804737
0.816084
0.865382
0.933424
0.802487
0.814663
0.802179
0.818178
0.937451
0.932761
0.9274
0.933181
0.818605
0.822246
0.805615
0.93235
0.802137
0.803453
0.806115
0.905307
0.934776
0.817197
0.824273
0.862187
0.935641
0.804074
0.813298
0.920832
0.928881
0.890663
0.825413
0.89594
0.8647
0.794874
0.94084
0.898516
0.801775
0.935696
0.801104
0.833855
0.823382
0.912362
0.925254
0.935387
0.931465
0.81996
0.808105
0.839816
0.829063
0.816263
0.934206
0.801415
0.875843
0.940336
0.892063
0.933203
0.902123
0.940727
0.802169
0.919636
0.894692
0.795393
0.898856
0.93349
0.802471
0.848532
0.820815
0.794214
0.844964
0.935601
0.933474
0.814731
0.828362
0.822387
0.938343
0.795984
0.820377
0.801867
0.907727
0.802662
0.930933
0.925693
0.824031
0.933049
0.803675
0.903397
0.930473
0.803518
0.938615
0.800741
0.80758
0.910412
0.803277
0.814233
0.838097
0.930813
0.933774
0.937344
0.801557
0.805182
0.802055
0.809283
0.842692
0.923354
0.881743
0.859457
0.931492
0.803192
0.82225
0.801629
0.895561
0.818799
0.940445
0.836341
0.918908
0.93359
0.927012
0.919917
0.937588
0.918761
0.879935
0.875497
0.851541
0.93351
0.940388
0.918292
0.839461
0.934796
0.935591
0.836432
0.928981
0.937493
0.925802
0.941104
0.925231
0.884875
0.932731
0.810209
0.809204
0.811034
0.939667
0.820483
0.937905
0.821934
0.801149
0.803804
0.937765
0.841396
0.826716
0.802647
0.920526
0.937565
0.801381
0.799705
0.933209
0.93526
0.805772
0.820294
0.808766
0.932755
0.802072
0.830992
0.932954
0.926207
0.806288
0.929658
0.879708
0.806745
0.944622
0.919088
0.934504
0.80179
0.805837
0.802695
0.801566
0.934933
0.879562
0.854352
0.942284
0.879721
0.934227
0.936636
0.933786
0.934769
0.918007
0.802466
0.93621
0.931722
0.89006
0.937794
0.936109
0.825067
0.804316
0.818334
0.937046
0.897037
0.801445
0.800911
0.802149
0.802487
0.934876
0.940741
0.849648
0.808569
0.803093
0.795452
0.801763
0.940721
0.933917
0.803236
0.940864
0.936435
0.802856
0.906649
0.803329
0.838335
0.864752
0.93688
0.93581
0.818029
0.880155
0.811456
0.931738
0.806922
0.80986
0.849625
0.93521
0.833618
0.803447
0.801116
0.803407
0.909721
0.833884
0.808084
0.934246
0.838333
0.933293
0.940011
0.92306
0.82618
0.824986
0.900291
0.814544
0.801932
0.79665
0.813783
0.801638
0.832329
0.935542
0.927235
0.844707
0.822812
0.935174
0.941163
0.823593
0.802269
0.825774
0.940592
0.9475
0.91244
0.856482
0.808222
0.897366
0.934802
0.799239
0.794693
0.931548
0.860841
0.854328
0.80131
0.801815
0.803179
0.857424
0.793855
0.932777
0.939297
0.933175
0.825793
0.923658
0.938522
0.933282
0.929601
0.813813
0.941179
0.896047
0.805718
0.9339
0.940669
0.867376
0.826275
0.9412
0.855043
0.884059
0.822818
0.934533
0.801618
0.813819
0.837848
0.923804
0.951751
0.933397
0.857397
0.935496
0.908309
0.8021
0.823084
0.82418
0.927315
0.815379
0.931927
0.923643
0.833922
0.93345
0.900241
0.933356
0.802193
0.932969
0.911168
0.93584
0.801554
0.860767
0.92896
0.916055
0.809629
0.804096
0.933836
0.801705
0.846886
0.804784
0.933791
0.827365
0.859429
0.801818
0.913339
0.875297
0.877401
0.809674
0.80808
0.824766
0.801602
0.810859
0.933187
0.81266
0.897049
0.856607
0.828114
0.817056
0.892112
0.800516
0.811168
0.933217
0.802264
0.802772
0.898473
0.946122
0.801839
0.932877
0.801644
0.940652
0.8779
0.810161
0.8891
0.933187
0.945187
0.930402
0.89247
0.932802
0.901549
0.941078
0.801851
0.89765
0.936696
0.9046
0.794015
0.808424
0.897004
0.88608
0.826641
0.802842
0.799967
0.932206
0.933331
0.842575
0.811484
0.818065
0.864047
0.835131
0.822108
0.932993
0.934118
0.80107
0.843148
0.938334
0.80331
0.803186
0.939466
0.941006
0.810795
0.940882
0.803379
0.933607
0.802953
0.881921
0.803537
0.845294
0.802707
0.921897
0.803475
0.851069
0.921939
0.917729
0.820855
0.821203
0.821989
0.829143
0.802292
0.873958
0.885544
0.827372
0.880194
0.93684
0.809554
0.817382
0.808266
0.917354
0.864962
0.898414
0.807012
0.933015
0.85376
0.803174
0.947752
0.816423
0.933951
0.830623
0.872174
0.92443
0.9401
0.935657
0.933342
0.938154
0.806565
0.802292
0.801334
0.878777
0.807083
0.842815
0.902632
0.815647
0.810705
0.934337
0.934771
0.808734
0.801586
0.813116
0.933342
0.800753
0.822296
0.81865
0.893235
0.800277
0.924026
0.82199
0.827481
0.827387
0.859264
0.839586
0.832669
0.802389
0.83684
0.841673
0.93967
0.811931
0.899982
0.87726
0.839548
0.857316
0.81063
0.933155
0.897618
0.819782
0.846181
0.895053
0.932698
0.934424
0.940348
0.934623
0.85543
0.894639
0.932991
0.807247
0.934537
0.941084
0.802348
0.938274
0.812085
0.931173
0.93128
0.932857
0.931541
0.93284
0.800898
0.93293
0.931812
0.932182
0.932882
0.795344
0.932853
0.933315
0.863505
0.933313
0.940406
0.933305
0.799805
0.853381
0.938131
0.933443
0.933217
0.801665
0.940348
0.816148
0.937043
0.821136
0.869683
0.812018
0.93445
0.80098
0.80114
0.933769
0.829896
0.805687
0.934776
0.905329
0.93454
0.933871
0.926807
0.860717
0.831571
0.934353
0.933129
0.915945
0.936428
0.933534
0.814801
0.93187
0.904975
0.934903
0.933129
0.935161
0.933399
0.816785
0.934379
0.936574
0.934313
0.93291
0.933702
0.933312
0.80081
0.932434
0.805857
0.807175
0.806038
0.933466
0.93988
0.909461
0.816089
0.93717
0.805287
0.934013
0.805357
0.934347
0.803858
0.934612
0.939336
0.806207
0.802072
0.801789
0.939603
0.818746
0.81126
0.939834
0.937262
0.938831
0.811175
0.936366
0.807183
0.940038
0.933275
0.939059
0.801707
0.809239
0.935009
0.934633
0.801613
0.803059
0.917279
0.80453
0.940231
0.810391
0.81053
0.937824
0.939122
0.938668
0.937708
0.810139
0.831739
0.835827
0.944266
0.931494
0.812018
0.820769
0.934704
0.82932
0.821631
0.855154
0.801899
0.937814
0.855149
0.801538
0.802566
0.819473
0.915127
0.937853
0.811012
0.840716
0.801736
0.820783
0.816352
0.945799
0.916727
0.820643
0.821901
0.924073
0.937596
0.933205
0.932926
0.849642
0.919223
0.858307
0.936571
0.936716
0.807024
0.93689
0.924136
0.80581
0.928812
0.824281
0.938809
0.822769
0.935758
0.940177
0.937074
0.85947
0.936905
0.848956
0.802377
0.815367
0.932586
0.934879
0.824028
0.818287
0.933542
0.937549
0.92052
0.933148
0.93747
0.933212
0.802196
0.822979
0.819211
0.818617
0.813216
0.934447
0.825637
0.838834
0.907625
0.79859
0.939359
0.940091
0.939957
0.810329
0.826252
0.799671
0.815103
0.919571
0.827124
0.801678
0.800483
0.817214
0.810127
0.907643
0.822443
0.937597
0.93562
0.923903
0.802606
0.816712
0.831712
0.802671
0.924889
0.807373
0.797843
0.928597
0.802557
0.817909
0.938544
0.927033
0.85172
0.827155
0.806979
0.800567
0.936937
0.836495
0.938638
0.800841
0.801276
0.799014
0.938283
0.937953
0.933419
0.939244
0.810789
0.802559
0.801291
0.939713
0.947682
0.938455
0.903018
0.842119
0.79391
0.801977
0.838896
0.940019
0.80002
0.828071
0.828561
0.940029
0.925518
0.849089
0.801613
0.932914
0.814758
0.824011
0.893172
0.915974
0.927055
0.816612
0.936001
0.824065
0.934897
0.850557
0.901791
0.821228
0.809928
0.816246
0.845758
0.939836
0.816322
0.939825
0.801569
0.807826
0.799955
0.802638
0.818266
0.932629
0.933158
0.934589
0.933722
0.939962
0.812714
0.809446
0.939999
0.801765
0.902791
0.822867
0.800812
0.937312
0.933325
0.80672
0.803633
0.801929
0.92789
0.933777
0.803399
0.80322
0.802977
0.820519
0.933251
0.827472
0.937269
0.80169
0.820667
0.80375
0.915771
0.822618
0.825745
0.84015
0.801905
0.80541
0.801689
0.934894
0.821183
0.929638
0.799015
0.856473
0.802506
0.802105
0.924038
0.930485
0.823419
0.932656
0.932744
0.936992
0.886327
0.932761
0.933257
0.858204
0.802521
0.799699
0.80057
0.933159
0.932552
0.803979
0.801726
0.801712
0.933143
0.803014
0.801726
0.801778
0.933165
0.801657
0.801952
0.805039
0.932534
0.801968
0.801872
0.827275
0.802684
0.934701
0.8579
0.93327
0.933571
0.804858
0.933363
0.801649
0.933437
0.934313
0.801067
0.932952
0.802454
0.809472
0.822178
0.801901
0.802978
0.805165
0.80639
0.805906
0.932978
0.935251
0.81241
0.93366
0.803293
0.802515
0.801783
0.824464
0.932738
0.8017
0.93332
0.934804
0.80769
0.806046
0.802626
0.933086
0.85487
0.801808
0.868615
0.802124
0.935002
0.933889
0.807567
0.802136
0.822061
0.933442
0.829038
0.830652
0.915075
0.849521
0.93314
0.813489
0.815455
0.810888
0.801705
0.814546
0.809301
0.835616
0.93599
0.826211
0.935964
0.937276
0.933374
0.899233
0.809938
0.935597
0.932263
0.827169
0.861652
0.812617
0.939145
0.914754
0.802402
0.905005
0.938981
0.80337
0.94138
0.91543
0.933613
0.933223
0.804076
0.80389
0.938774
0.934248
0.805297
0.937064
0.82008
0.943275
0.834544
0.810739
0.801599
0.929577
0.813445
0.837732
0.810587
0.806314
0.81584
0.934061
0.928107
0.935984
0.930954
0.833026
0.817797
0.862019
0.818064
0.938493
0.933646
0.806082
0.937128
0.811107
0.93317
0.802649
0.805012
0.934262
0.936419
0.80204
0.937473
0.801691
0.801804
0.810162
0.923451
0.895793
0.907032
0.932927
0.845701
0.834893
0.801627
0.923437
0.800883
0.81956
0.806221
0.802043
0.802265
0.802181
0.916561
0.80819
0.804161
0.934041
0.83245
0.830553
0.806553
0.822238
0.850331
0.801536
0.824864
0.802652
0.807513
0.804067
0.933551
0.834223
0.936358
0.939606
0.811026
0.805946
0.943802
0.934179
0.807332
0.816691
0.828468
0.810973
0.809196
0.817828
0.935524
0.936505
0.801895
0.807569
0.802061
0.826424
0.925672
0.800986
0.910279
0.808482
0.934078
0.81081
0.804262
0.804428
0.831724
0.812109
0.812011
0.801708
0.934705
0.936415
0.815304
0.833403
0.817304
0.93604
0.940642
0.933832
0.936298
0.80257
0.93321
0.830075
0.829768
0.809095
0.884846
0.827413
0.937011
0.822422
0.935094
0.842786
0.836735
0.861689
0.945636
0.812274
0.906991
0.822447
0.821456
0.81034
0.845381
0.810624
0.801747
0.937234
0.933255
0.808245
0.80492
0.935565
0.811379
0.837364
0.931215
0.83696
0.922172
0.827662
0.939492
0.937776
0.92772
0.8212
0.937846
0.841037
0.808228
0.930648
0.923571
0.939876
0.940416
0.821454
0.80926
0.934313
0.801669
0.936761
0.818741
0.933995
0.938846
0.813385
0.94253
0.815636
0.814217
0.937647
0.932563
0.807735
0.93579
0.857083
0.805354
0.936347
0.834206
0.813718
0.930939
0.937733
0.810593
0.823794
0.930938
0.801585
0.934512
0.932902
0.815426
0.929018
0.915997
0.931075
0.932835
0.812263
0.933295
0.887164
0.848637
0.933291
0.81742
0.938995
0.939338
0.932721
0.932787
0.939601
0.931371
0.933455
0.933275
0.801571
0.827072
0.930003
0.819533
0.816652
0.801612
0.801829
0.93938
0.933415
0.830693
0.939841
0.93275
0.801494
0.931587
0.940045
0.938787
0.798273
0.935371
0.937439
0.822438
0.940241
0.933048
0.824066
0.932032
0.824711
0.825003
0.935493
0.933273
0.929515
0.93274
0.932688
0.930149
0.933874
0.933437
0.875469
0.939415
0.801767
0.934537
0.822092
0.835808
0.933169
0.918397
0.933511
0.933214
0.938181
0.822921
0.822911
0.926024
0.938771
0.934534
0.821665
0.933753
0.938148
0.934445
0.802445
0.940345
0.938676
0.812604
0.842852
0.819703
0.933233
0.801989
0.931292
0.93438
0.841198
0.878089
0.9367
0.826386
0.92572
0.932882
0.938597
0.928917
0.936851
0.807923
0.940187
0.927142
0.844201
0.937868
0.882147
0.834238
0.933797
0.80222
0.802402
0.93478
0.935899
0.939067
0.937818
0.934965
0.925813
0.92827
0.826061
0.932721
0.936166
0.932505
0.933761
0.849049
0.933663
0.882385
0.801987
0.832583
0.801474
0.8021
0.805379
0.893134
0.937713
0.934998
0.87957
0.934717
0.828851
0.937267
0.934871
0.802084
0.93316
0.940096
0.826247
0.80955
0.9253
0.932395
0.809963
0.933392
0.935126
0.940362
0.849836
0.80938
0.83752
0.825291
0.81433
0.847995
0.885575
0.84073
0.937822
0.853721
0.920415
0.93307
0.89193
0.808401
0.93355
0.825454
0.933056
0.934376
0.934345
0.939966
0.932689
0.801278
0.889312
0.836025
0.932073
0.933309
0.80317
0.817503
0.804104
0.93431
0.936634
0.849971
0.933067
0.806187
0.931681
0.933378
0.933484
0.81839
0.817922
0.806095
0.820772
0.842243
0.836076
0.81217
0.801684
0.934632
0.93342
0.933249
0.93851
0.933453
0.932292
0.933227
0.799292
0.93279
0.935897
0.934558
0.825478
0.935265
0.846644
0.806193
0.939362
0.93371
0.801882
0.933199
0.809647
0.801275
0.801559
0.933324
0.804315
0.933699
0.801629
0.934703
0.854696
0.816655
0.933194
0.933605
0.825615
0.936167
0.818798
0.802291
0.93671
0.949449
0.828459
0.934122
0.837403
0.936987
0.857962
0.808087
0.807496
0.847415
0.798591
0.805071
0.846983
0.817234
0.832379
0.81199
0.937119
0.840729