# vtk DataFile Version 1.0
unstructured grid
ascii
DATASET UNSTRUCTURED_GRID
points 7812 float
-1 0 0
-1 1 0
2 0 0
2 1 0
0 0 0
1 0 0
-1 1 0.1
-1 0 0.1
0 0 0.1
1 0 0.1
2 0 0.1
2 1 0.1
-0.99 0 0
-0.98 0 0
-0.97 0 0
-0.96 0 0
-0.95 0 0
-0.94 0 0
-0.93 0 0
-0.92 0 0
-0.91 0 0
-0.9 0 0
-0.89 0 0
-0.88 0 0
-0.87 0 0
-0.86 0 0
-0.85 0 0
-0.84 0 0
-0.83 0 0
-0.82 0 0
-0.81 0 0
-0.8 0 0
-0.79 0 0
-0.78 0 0
-0.77 0 0
-0.76 0 0
-0.75 0 0
-0.74 0 0
-0.73 0 0
-0.72 0 0
-0.71 0 0
-0.7 0 0
-0.69 0 0
-0.68 0 0
-0.67 0 0
-0.66 0 0
-0.65 0 0
-0.64 0 0
-0.63 0 0
-0.62 0 0
-0.61 0 0
-0.6 0 0
-0.59 0 0
-0.58 0 0
-0.57 0 0
-0.56 0 0
-0.55 0 0
-0.54 0 0
-0.53 0 0
-0.52 0 0
-0.51 0 0
-0.5 0 0
-0.49 0 0
-0.48 0 0
-0.47 0 0
-0.46 0 0
-0.45 0 0
-0.44 0 0
-0.43 0 0
-0.42 0 0
-0.41 0 0
-0.4 0 0
-0.39 0 0
-0.38 0 0
-0.37 0 0
-0.36 0 0
-0.35 0 0
-0.34 0 0
-0.33 0 0
-0.32 0 0
-0.31 0 0
-0.3 0 0
-0.29 0 0
-0.28 0 0
-0.27 0 0
-0.26 0 0
-0.25 0 0
-0.24 0 0
-0.23 0 0
-0.22 0 0
-0.21 0 0
-0.2 0 0
-0.19 0 0
-0.18 0 0
-0.17 0 0
-0.16 0 0
-0.15 0 0
-0.14 0 0
-0.13 0 0
-0.12 0 0
-0.11 0 0
-0.1 0 0
-0.09 0 0
-0.08 0 0
-0.07 0 0
-0.06 0 0
-0.05 0 0
-0.04 0 0
-0.03 0 0
-0.02 0 0
-0.01 0 0
1.01 0 0
1.02 0 0
1.03 0 0
1.04 0 0
1.05 0 0
1.06 0 0
1.07 0 0
1.08 0 0
1.09 0 0
1.1 0 0
1.11 0 0
1.12 0 0
1.13 0 0
1.14 0 0
1.15 0 0
1.16 0 0
1.17 0 0
1.18 0 0
1.19 0 0
1.2 0 0
1.21 0 0
1.22 0 0
1.23 0 0
1.24 0 0
1.25 0 0
1.26 0 0
1.27 0 0
1.28 0 0
1.29 0 0
1.3 0 0
1.31 0 0
1.32 0 0
1.33 0 0
1.34 0 0
1.35 0 0
1.36 0 0
1.37 0 0
1.38 0 0
1.39 0 0
1.4 0 0
1.41 0 0
1.42 0 0
1.43 0 0
1.44 0 0
1.45 0 0
1.46 0 0
1.47 0 0
1.48 0 0
1.49 0 0
1.5 0 0
1.51 0 0
1.52 0 0
1.53 0 0
1.54 0 0
1.55 0 0
1.56 0 0
1.57 0 0
1.58 0 0
1.59 0 0
1.6 0 0
1.61 0 0
1.62 0 0
1.63 0 0
1.64 0 0
1.65 0 0
1.66 0 0
1.67 0 0
1.68 0 0
1.69 0 0
1.7 0 0
1.71 0 0
1.72 0 0
1.73 0 0
1.74 0 0
1.75 0 0
1.76 0 0
1.77 0 0
1.78 0 0
1.79 0 0
1.8 0 0
1.81 0 0
1.82 0 0
1.83 0 0
1.84 0 0
1.85 0 0
1.86 0 0
1.87 0 0
1.88 0 0
1.89 0 0
1.9 0 0
1.91 0 0
1.92 0 0
1.93 0 0
1.94 0 0
1.95 0 0
1.96 0 0
1.97 0 0
1.98 0 0
1.99 0 0
2 0.010289 0
2 0.0215307 0
2 0.0338135 0
2 0.0472336 0
2 0.0618965 0
2 0.0779171 0
2 0.0954213 0
2 0.114546 0
2 0.135442 0
2 0.158274 0
2 0.183219 0
2 0.210474 0
2 0.240253 0
2 0.27279 0
2 0.308339 0
2 0.347181 0
2 0.389619 0
2 0.435987 0
2 0.486649 0
2 0.542002 0
2 0.602481 0
2 0.66856 0
2 0.740758 0
2 0.819642 0
2 0.90583 0
1.9 1 0
1.8 1 0
1.7 1 0
1.6 1 0
1.5 1 0
1.4 1 0
1.3 1 0
1.2 1 0
1.1 1 0
1 1 0
0.9 1 0
0.8 1 0
0.7 1 0
0.6 1 0
0.5 1 0
0.4 1 0
0.3 1 0
0.2 1 0
0.1 1 0
3.69793e-12 1 0
-0.1 1 0
-0.2 1 0
-0.3 1 0
-0.4 1 0
-0.5 1 0
-0.6 1 0
-0.7 1 0
-0.8 1 0
-0.9 1 0
-1 0.90583 0
-1 0.819642 0
-1 0.740758 0
-1 0.66856 0
-1 0.602481 0
-1 0.542002 0
-1 0.486649 0
-1 0.435987 0
-1 0.389619 0
-1 0.347181 0
-1 0.308339 0
-1 0.27279 0
-1 0.240253 0
-1 0.210474 0
-1 0.183219 0
-1 0.158274 0
-1 0.135442 0
-1 0.114546 0
-1 0.0954213 0
-1 0.0779171 0
-1 0.0618965 0
-1 0.0472336 0
-1 0.0338135 0
-1 0.0215307 0
-1 0.010289 0
0.00921362 0.00379763 0
0.0184561 0.00752451 0
0.0277268 0.0111804 0
0.0370253 0.0147652 0
0.0463511 0.0182786 0
0.0557034 0.0217203 0
0.0650819 0.0250903 0
0.074486 0.0283883 0
0.083915 0.0316141 0
0.0933685 0.0347675 0
0.102846 0.0378484 0
0.112347 0.0408565 0
0.12187 0.0437917 0
0.131416 0.0466538 0
0.140983 0.0494427 0
0.150572 0.0521581 0
0.160181 0.0547999 0
0.16981 0.0573681 0
0.179458 0.0598623 0
0.189125 0.0622825 0
0.198811 0.0646285 0
0.208514 0.0669001 0
0.218234 0.0690974 0
0.227971 0.07122 0
0.237724 0.073268 0
0.247493 0.0752411 0
0.257276 0.0771393 0
0.267073 0.0789625 0
0.276884 0.0807105 0
0.286708 0.0823832 0
0.296545 0.0839806 0
0.306394 0.0855025 0
0.316254 0.0869488 0
0.326125 0.0883196 0
0.336006 0.0896146 0
0.345896 0.0908339 0
0.355796 0.0919773 0
0.365704 0.0930447 0
0.375621 0.0940362 0
0.385544 0.0949517 0
0.395474 0.095791 0
0.40541 0.0965542 0
0.415352 0.0972412 0
0.425299 0.097852 0
0.43525 0.0983865 0
0.445205 0.0988447 0
0.455164 0.0992266 0
0.465125 0.0995321 0
0.475088 0.0997613 0
0.485052 0.0999141 0
0.495017 0.0999904 0
0.504983 0.0999904 0
0.514948 0.0999141 0
0.524912 0.0997613 0
0.534875 0.0995321 0
0.544836 0.0992266 0
0.554795 0.0988447 0
0.56475 0.0983865 0
0.574701 0.097852 0
0.584648 0.0972412 0
0.59459 0.0965542 0
0.604526 0.095791 0
0.614456 0.0949517 0
0.624379 0.0940362 0
0.634296 0.0930447 0
0.644204 0.0919773 0
0.654104 0.0908339 0
0.663994 0.0896146 0
0.673875 0.0883196 0
0.683746 0.0869488 0
0.693606 0.0855025 0
0.703455 0.0839806 0
0.713292 0.0823832 0
0.723116 0.0807105 0
0.732927 0.0789625 0
0.742724 0.0771393 0
0.752508 0.0752411 0
0.762276 0.073268 0
0.772029 0.07122 0
0.781766 0.0690974 0
0.791486 0.0669001 0
0.801189 0.0646285 0
0.810875 0.0622825 0
0.820542 0.0598623 0
0.83019 0.0573681 0
0.839819 0.0547999 0
0.849428 0.0521581 0
0.859017 0.0494427 0
0.868584 0.0466538 0
0.87813 0.0437917 0
0.887653 0.0408565 0
0.897154 0.0378484 0
0.906631 0.0347675 0
0.916085 0.0316141 0
0.925514 0.0283883 0
0.934918 0.0250903 0
0.944297 0.0217203 0
0.953649 0.0182786 0
0.962975 0.0147652 0
0.972273 0.0111804 0
0.981544 0.00752451 0
0.990786 0.00379763 0
-1 0.90583 0.1
-1 0.819642 0.1
-1 0.740758 0.1
-1 0.66856 0.1
-1 0.602481 0.1
-1 0.542002 0.1
-1 0.486649 0.1
-1 0.435987 0.1
-1 0.389619 0.1
-1 0.347181 0.1
-1 0.308339 0.1
-1 0.27279 0.1
-1 0.240253 0.1
-1 0.210474 0.1
-1 0.183219 0.1
-1 0.158274 0.1
-1 0.135442 0.1
-1 0.114546 0.1
-1 0.0954213 0.1
-1 0.0779171 0.1
-1 0.0618965 0.1
-1 0.0472336 0.1
-1 0.0338135 0.1
-1 0.0215307 0.1
-1 0.010289 0.1
-0.99 0 0.1
-0.98 0 0.1
-0.97 0 0.1
-0.96 0 0.1
-0.95 0 0.1
-0.94 0 0.1
-0.93 0 0.1
-0.92 0 0.1
-0.91 0 0.1
-0.9 0 0.1
-0.89 0 0.1
-0.88 0 0.1
-0.87 0 0.1
-0.86 0 0.1
-0.85 0 0.1
-0.84 0 0.1
-0.83 0 0.1
-0.82 0 0.1
-0.81 0 0.1
-0.8 0 0.1
-0.79 0 0.1
-0.78 0 0.1
-0.77 0 0.1
-0.76 0 0.1
-0.75 0 0.1
-0.74 0 0.1
-0.73 0 0.1
-0.72 0 0.1
-0.71 0 0.1
-0.7 0 0.1
-0.69 0 0.1
-0.68 0 0.1
-0.67 0 0.1
-0.66 0 0.1
-0.65 0 0.1
-0.64 0 0.1
-0.63 0 0.1
-0.62 0 0.1
-0.61 0 0.1
-0.6 0 0.1
-0.59 0 0.1
-0.58 0 0.1
-0.57 0 0.1
-0.56 0 0.1
-0.55 0 0.1
-0.54 0 0.1
-0.53 0 0.1
-0.52 0 0.1
-0.51 0 0.1
-0.5 0 0.1
-0.49 0 0.1
-0.48 0 0.1
-0.47 0 0.1
-0.46 0 0.1
-0.45 0 0.1
-0.44 0 0.1
-0.43 0 0.1
-0.42 0 0.1
-0.41 0 0.1
-0.4 0 0.1
-0.39 0 0.1
-0.38 0 0.1
-0.37 0 0.1
-0.36 0 0.1
-0.35 0 0.1
-0.34 0 0.1
-0.33 0 0.1
-0.32 0 0.1
-0.31 0 0.1
-0.3 0 0.1
-0.29 0 0.1
-0.28 0 0.1
-0.27 0 0.1
-0.26 0 0.1
-0.25 0 0.1
-0.24 0 0.1
-0.23 0 0.1
-0.22 0 0.1
-0.21 0 0.1
-0.2 0 0.1
-0.19 0 0.1
-0.18 0 0.1
-0.17 0 0.1
-0.16 0 0.1
-0.15 0 0.1
-0.14 0 0.1
-0.13 0 0.1
-0.12 0 0.1
-0.11 0 0.1
-0.1 0 0.1
-0.09 0 0.1
-0.08 0 0.1
-0.07 0 0.1
-0.06 0 0.1
-0.05 0 0.1
-0.04 0 0.1
-0.03 0 0.1
-0.02 0 0.1
-0.01 0 0.1
0.00921362 0.00379763 0.1
0.0184561 0.00752451 0.1
0.0277268 0.0111804 0.1
0.0370253 0.0147652 0.1
0.0463511 0.0182786 0.1
0.0557034 0.0217203 0.1
0.0650819 0.0250903 0.1
0.074486 0.0283883 0.1
0.083915 0.0316141 0.1
0.0933685 0.0347675 0.1
0.102846 0.0378484 0.1
0.112347 0.0408565 0.1
0.12187 0.0437917 0.1
0.131416 0.0466538 0.1
0.140983 0.0494427 0.1
0.150572 0.0521581 0.1
0.160181 0.0547999 0.1
0.16981 0.0573681 0.1
0.179458 0.0598623 0.1
0.189125 0.0622825 0.1
0.198811 0.0646285 0.1
0.208514 0.0669001 0.1
0.218234 0.0690974 0.1
0.227971 0.07122 0.1
0.237724 0.073268 0.1
0.247493 0.0752411 0.1
0.257276 0.0771393 0.1
0.267073 0.0789625 0.1
0.276884 0.0807105 0.1
0.286708 0.0823832 0.1
0.296545 0.0839806 0.1
0.306394 0.0855025 0.1
0.316254 0.0869488 0.1
0.326125 0.0883196 0.1
0.336006 0.0896146 0.1
0.345896 0.0908339 0.1
0.355796 0.0919773 0.1
0.365704 0.0930447 0.1
0.375621 0.0940362 0.1
0.385544 0.0949517 0.1
0.395474 0.095791 0.1
0.40541 0.0965542 0.1
0.415352 0.0972412 0.1
0.425299 0.097852 0.1
0.43525 0.0983865 0.1
0.445205 0.0988447 0.1
0.455164 0.0992266 0.1
0.465125 0.0995321 0.1
0.475088 0.0997613 0.1
0.485052 0.0999141 0.1
0.495017 0.0999904 0.1
0.504983 0.0999904 0.1
0.514948 0.0999141 0.1
0.524912 0.0997613 0.1
0.534875 0.0995321 0.1
0.544836 0.0992266 0.1
0.554795 0.0988447 0.1
0.56475 0.0983865 0.1
0.574701 0.097852 0.1
0.584648 0.0972412 0.1
0.59459 0.0965542 0.1
0.604526 0.095791 0.1
0.614456 0.0949517 0.1
0.624379 0.0940362 0.1
0.634296 0.0930447 0.1
0.644204 0.0919773 0.1
0.654104 0.0908339 0.1
0.663994 0.0896146 0.1
0.673875 0.0883196 0.1
0.683746 0.0869488 0.1
0.693606 0.0855025 0.1
0.703455 0.0839806 0.1
0.713292 0.0823832 0.1
0.723116 0.0807105 0.1
0.732927 0.0789625 0.1
0.742724 0.0771393 0.1
0.752508 0.0752411 0.1
0.762276 0.073268 0.1
0.772029 0.07122 0.1
0.781766 0.0690974 0.1
0.791486 0.0669001 0.1
0.801189 0.0646285 0.1
0.810875 0.0622825 0.1
0.820542 0.0598623 0.1
0.83019 0.0573681 0.1
0.839819 0.0547999 0.1
0.849428 0.0521581 0.1
0.859017 0.0494427 0.1
0.868584 0.0466538 0.1
0.87813 0.0437917 0.1
0.887653 0.0408565 0.1
0.897154 0.0378484 0.1
0.906631 0.0347675 0.1
0.916085 0.0316141 0.1
0.925514 0.0283883 0.1
0.934918 0.0250903 0.1
0.944297 0.0217203 0.1
0.953649 0.0182786 0.1
0.962975 0.0147652 0.1
0.972273 0.0111804 0.1
0.981544 0.00752451 0.1
0.990786 0.00379763 0.1
1.01 0 0.1
1.02 0 0.1
1.03 0 0.1
1.04 0 0.1
1.05 0 0.1
1.06 0 0.1
1.07 0 0.1
1.08 0 0.1
1.09 0 0.1
1.1 0 0.1
1.11 0 0.1
1.12 0 0.1
1.13 0 0.1
1.14 0 0.1
1.15 0 0.1
1.16 0 0.1
1.17 0 0.1
1.18 0 0.1
1.19 0 0.1
1.2 0 0.1
1.21 0 0.1
1.22 0 0.1
1.23 0 0.1
1.24 0 0.1
1.25 0 0.1
1.26 0 0.1
1.27 0 0.1
1.28 0 0.1
1.29 0 0.1
1.3 0 0.1
1.31 0 0.1
1.32 0 0.1
1.33 0 0.1
1.34 0 0.1
1.35 0 0.1
1.36 0 0.1
1.37 0 0.1
1.38 0 0.1
1.39 0 0.1
1.4 0 0.1
1.41 0 0.1
1.42 0 0.1
1.43 0 0.1
1.44 0 0.1
1.45 0 0.1
1.46 0 0.1
1.47 0 0.1
1.48 0 0.1
1.49 0 0.1
1.5 0 0.1
1.51 0 0.1
1.52 0 0.1
1.53 0 0.1
1.54 0 0.1
1.55 0 0.1
1.56 0 0.1
1.57 0 0.1
1.58 0 0.1
1.59 0 0.1
1.6 0 0.1
1.61 0 0.1
1.62 0 0.1
1.63 0 0.1
1.64 0 0.1
1.65 0 0.1
1.66 0 0.1
1.67 0 0.1
1.68 0 0.1
1.69 0 0.1
1.7 0 0.1
1.71 0 0.1
1.72 0 0.1
1.73 0 0.1
1.74 0 0.1
1.75 0 0.1
1.76 0 0.1
1.77 0 0.1
1.78 0 0.1
1.79 0 0.1
1.8 0 0.1
1.81 0 0.1
1.82 0 0.1
1.83 0 0.1
1.84 0 0.1
1.85 0 0.1
1.86 0 0.1
1.87 0 0.1
1.88 0 0.1
[...]
CELL_DATA 7425
SCALARS rho float
LOOKUP_TABLE default
0.649973
0.808067
0.838367
0.842111
0.803604
0.836944
0.83309
0.838925
0.841874
0.759543
0.868806
0.813718
0.839322
0.841966
0.80849
0.837844
0.801735
0.840844
0.805813
0.779245
0.845043
0.824461
0.747558
0.842878
0.806546
0.744623
0.844545
0.850748
0.804055
0.812079
0.831933
0.735747
0.806028
0.700659
0.65139
0.842855
0.806035
0.839007
0.81473
0.841181
0.752001
0.742844
0.804135
0.696906
0.665331
0.764282
0.815508
0.839404
0.719499
0.729152
0.755402
0.808261
0.815595
0.802497
0.71527
0.677632
0.839858
0.80251
0.759538
0.730556
0.751525
0.811071
0.840937
0.802666
0.80287
0.83776
0.647133
0.789846
0.680126
0.812044
0.808513
0.804473
0.886344
0.823632
0.814018
0.841853
0.808126
0.80411
0.840825
0.765902
0.837933
0.810678
0.83652
0.794715
0.844869
0.805297
0.634641
0.842358
0.648686
0.857601
0.699096
0.751774
0.847829
0.805212
0.837705
0.782996
0.838031
0.795557
0.841392
0.807375
0.828315
0.748367
0.805773
0.84154
0.652996
0.814656
0.839189
0.741693
0.838295
0.803009
0.83725
0.791161
0.795529
0.81564
0.803968
0.794302
0.84451
0.80423
0.702766
0.705343
0.808187
0.793141
0.84204
0.797334
0.866535
0.841739
0.811057
0.81716
0.700286
0.642314
0.837991
0.703032
0.64773
0.869199
0.718411
0.803756
0.814523
0.750476
0.640889
0.753822
0.757293
0.814048
0.83688
0.71209
0.807335
0.786524
0.627609
0.807644
0.788445
0.842728
0.829115
0.698799
0.807605
0.75376
0.712816
0.806051
0.814077
0.844462
0.81151
0.717034
0.805281
0.697672
0.805361
0.844013
0.838562
0.803686
0.841569
0.79971
0.810096
0.805023
0.838422
0.809553
0.810152
0.802921
0.802384
0.765321
0.808512
0.783339
0.675772
0.692488
0.803549
0.808799
0.883204
0.843825
0.692683
0.839868
0.801999
0.830793
0.803677
0.840017
0.842833
0.805316
0.810699
0.712656
0.838204
0.837174
0.781678
0.812801
0.862232
0.811207
0.815836
0.839932
0.663278
0.841771
0.632915
0.653305
0.651448
0.693455
0.83105
0.882939
0.81087
0.802748
0.84916
0.84238
0.837111
0.838716
0.838069
0.676075
0.688951
0.839638
0.651522
0.673437
0.70847
0.833303
0.838295
0.841859
0.845883
0.843386
0.865807
0.714375
0.837088
0.753434
0.809167
0.806556
0.803891
0.7433
0.750328
0.662394
0.703655
0.870418
0.876531
0.828303
0.811072
0.815585
0.815742
0.750501
0.839225
0.804796
0.840953
0.800512
0.837704
0.730981
0.84306
0.840283
0.766081
0.629677
0.802729
0.746263
0.844267
0.838017
0.737142
0.837742
0.838391
0.856742
0.834916
0.809342
0.805225
0.841406
0.868068
0.810556
0.661321
0.857839
0.817204
0.808789
0.842248
0.846532
0.840271
0.837833
0.799729
0.838253
0.868094
0.856809
0.830306
0.848967
0.80539
0.837853
0.804551
0.767758
0.743233
0.640416
0.701604
0.819331
0.841916
0.837929
0.856746
0.788926
0.684341
0.84229
0.653144
0.790415
0.805173
0.685262
0.672479
0.677168
0.838201
0.840892
0.842369
0.838148
0.842047
0.781755
0.814786
0.805834
0.843432
0.851905
0.868746
0.846108
0.80591
0.696894
0.810355
0.843407
0.723586
0.802077
0.803688
0.870681
0.837874
0.644671
0.83999
0.766562
0.854476
0.760554
0.836295
0.908045
0.80427
0.801121
0.698408
0.677381
0.717204
0.800578
0.841623
0.838238
0.839701
0.883334
0.859075
0.803732
0.812117
0.827867
0.766649
0.807167
0.883709
0.803982
0.810089
0.805089
0.803961
0.840095
0.837972
0.837715
0.693063
0.832696
0.713418
0.812434
0.695356
0.819086
0.803762
0.841417
0.762609
0.819017
0.828821
0.837681
0.802543
0.803764
0.814377
0.743904
0.826482
0.841553
0.84007
0.803712
0.751236
0.626079
0.809857
0.83927
0.805057
0.843096
0.800445
0.672461
0.847152
0.840129
0.806469
0.800626
0.840816
0.808987
0.807277
0.837879
0.810892
0.839465
0.781871
0.824417
0.811203
0.631296
0.808153
0.678159
0.846836
0.678221
0.837358
0.882471
0.687302
0.821564
0.770786
0.807829
0.877453
0.655406
0.839565
0.839508
0.806188
0.841433
0.815146
0.840113
0.84459
0.840376
0.765176
0.842527
0.769202
0.814569
0.80017
0.808143
0.778381
0.808889
0.80407
0.833768
0.778808
0.808757
0.658341
0.665081
0.737033
0.840264
0.854078
0.871473
0.842537
0.802079
0.842782
0.80911
0.834115
0.713598
0.804815
0.761383
0.834003
0.836425
0.810888
0.71627
0.753948
0.637967
0.652957
0.805473
0.657316
0.809598
0.773223
0.782933
0.736808
0.781851
0.787434
0.835659
0.838343
0.838341
0.840115
0.749508
0.695394
0.850078
0.826675
0.791726
0.81504
0.805816
0.848837
0.755637
0.863529
0.771813
0.761292
0.785768
0.833693
0.64388
0.802215
0.852635
0.817479
0.839541
0.835108
0.803337
0.800428
0.845061
0.804927
0.853706
0.739976
0.713681
0.802606
0.809695
0.839125
0.742981
0.857598
0.805265
0.83739
0.801765
0.788568
0.813449
0.646173
0.710727
0.673344
0.837979
0.816117
0.841264
0.768715
0.813951
0.838436
0.838484
0.802722
0.763246
0.816043
0.819177
0.804962
0.746916
0.839815
0.83672
0.841312
0.839206
0.841208
0.867656
0.863781
0.770611
0.653278
0.846336
0.810197
0.851032
0.838844
0.826108
0.840047
0.8395
0.707304
0.810732
0.826281
0.8432
0.805944
0.822443
0.809701
0.86203
0.802175
0.843165
0.838377
0.877342
0.648891
0.839922
0.844956
0.886351
0.631458
0.837733
0.832641
0.801543
0.817619
0.809324
0.873562
0.825453
0.845101
0.817755
0.666585
0.804413
0.806968
0.738646
0.859636
0.767983
0.806505
0.838766
0.840806
0.861331
0.800845
0.84394
0.847439
0.803774
0.828112
0.844646
0.80391
0.815447
0.812078
0.808472
0.833646
0.804025
0.854718
0.776865
0.81289
0.805819
0.827716
0.752906
0.842828
0.838027
0.771768
0.839803
0.831013
0.831054
0.840745
0.804906
0.803609
0.857279
0.775051
0.829185
0.854058
0.807863
0.64438
0.841696
0.843049
0.858891
0.834505
0.804439
0.812218
0.861761
0.786119
0.805722
0.805187
0.842752
0.760544
0.806762
0.832405
0.813489
0.800773
0.812748
0.853828
0.809973
0.852681
0.804081
0.840582
0.838606
0.806979
0.849674
0.841633
0.726218
0.838141
0.810519
0.838676
0.906646
0.803486
0.832232
0.802546
0.803287
0.837809
0.803462
0.805892
0.789408
0.75622
0.828536
0.842916
0.777648
0.809881
0.839466
0.816198
0.839502
0.810416
0.841458
0.87929
0.844596
0.68233
0.734138
0.851934
0.83783
0.853741
0.83745
0.858153
0.812451
0.82444
0.802786
0.849499
0.868112
0.861423
0.760082
0.839078
0.838345
0.752702
0.82167
0.782936
0.802431
0.760094
0.83781
0.844777
0.825656
0.863417
0.838219
0.840659
0.833926
0.837663
0.846144
0.81547
0.801632
0.813605
0.765249
0.840259
0.780763
0.844418
0.81761
0.676996
0.787056
0.815845
0.802423
0.838509
0.807381
0.837703
0.837839
0.808763
0.837801
0.807199
0.811174
0.68092
0.856894
0.840788
0.842047
0.819533
0.805945
0.729438
0.812116
0.908292
0.837696
0.806042
0.838915
0.791078
0.812588
0.837636
0.83907
0.817758
0.840836
0.837888
0.685705
0.795981
0.785872
0.840758
0.809514
0.806
0.668592
0.811009
0.807346
0.74168
0.838871
0.837724
0.806082
0.812351
0.801864
0.837118
0.826974
0.840717
0.843156
0.734815
0.843303
0.80506
0.812712
0.844286
0.821914
0.837423
0.803838
0.762305
0.838681
0.805226
0.838845
0.796548
0.811136
0.838953
0.752204
0.83407
0.719332
0.877433
0.733809
0.855218
0.820582
0.879178
0.79918
0.804347
0.838834
0.838009
0.83955
0.839507
0.83849
0.836145
0.818274
0.808407
0.812132
0.760372
0.829359
0.803729
0.729686
0.842246
0.690063
0.804631
0.862013
0.808831
0.742733
0.803234
0.839072
0.709507
0.791333
0.837912
0.84238
0.829795
0.695117
0.761058
0.81569
0.80645
0.842865
0.804668
0.759119
0.838239
0.837981
0.842261
0.791304
0.805268
0.807512
0.809073
0.627153
0.842964
0.835765
0.667255
0.838176
0.837906
0.838367
0.838037
0.838334
0.840522
0.803274
0.800346
0.778307
0.825836
0.831842
0.827787
0.838077
0.780384
0.834433
0.76071
0.779882
0.813764
0.838991
0.840289
0.804141
0.859589
0.84275
0.81969
0.835832
0.837199
0.838076
0.848847
0.838589
0.841826
0.815203
0.839344
0.805074
0.838585
0.806531
0.83984
0.840157
0.663982
0.840049
0.847289
0.859504
0.83945
0.656787
0.837716
0.817964
0.640791
0.721076
0.715603
0.845355
0.820874
0.814898
0.840581
0.804276
0.83779
0.815008
0.639055
0.735036
0.821478
0.809943
0.837637
0.805865
0.813724
0.839044
0.837326
0.802002
0.740637
0.857813
0.804282
0.817822
0.838945
0.775947
0.655741
0.846144
0.817524
0.750749
0.804083
0.811882
0.68436
0.82982
0.837162
0.84269
0.838148
0.829934
0.807744
0.756502
0.682455
0.630098
0.841203
0.813858
0.788712
0.84186
0.798143
0.83795
0.877491
0.779887
0.839228
0.837557
0.841123
0.887313
0.838226
0.838546
0.807311
0.81696
0.732927
0.842986
0.802763
0.815497
0.804295
0.792074
0.862628
0.839037
0.848472
0.839157
0.765649
0.770155
0.80855
0.836703
0.804378
0.808483
0.806874
0.79485
0.83785
0.778047
0.825296
0.696716
0.838513
0.807001
0.7444
0.833194
0.833629
0.760839
0.805421
0.776913
0.881511
0.803787
0.843271
0.782132
0.804858
0.838739
0.806821
0.647288
0.824363
0.812196
0.821138
0.838519
0.840078
0.774899
0.810652
0.844279
0.830659
0.817806
0.848285
0.683973
0.72804
0.842869
0.764511
0.83952
0.787798
0.843176
0.804436
0.823422
0.771422
0.799751
0.784443
0.833648
0.804182
0.671931
0.785819
0.803014
0.851293
0.838669
0.843291
0.646659
0.827282
0.791541
0.866342
0.804243
0.821521
0.805033
0.801541
0.80192
0.839754
0.844284
0.82509
0.836991
0.71437
0.792328
0.833496
0.808565
0.838827
0.806937
0.708427
0.807271
0.807451
0.815597
0.829863
0.857823
0.845455
0.840153
0.803423
0.808807
0.805886
0.789521
0.661657
0.819179
0.761897
0.70143
0.838409
0.801624
0.783863
0.803827
0.773049
0.792894
0.841873
0.825335
0.818392
0.837101
0.831924
0.830969
0.840368
0.821731
0.736832
0.728216
0.67948
0.843691
0.87515
0.826322
0.842635
0.856872
0.869022
0.764401
0.832862
0.869103
0.826787
0.843565
0.830125
0.759969
0.834335
0.812024
0.811416
0.637383
0.842238
0.775834
0.840534
0.816851
0.805843
0.711816
0.840394
0.659902
0.827995
0.806546
0.832307
0.863407
0.805771
0.800871
0.838898
0.836558
0.809653
0.776523
0.649474
0.838462
0.806852
0.832703
0.841228
0.822317
0.810358
0.844931
0.750612
0.658653
0.889318
0.816662
0.83801
0.807522
0.717368
0.801798
0.804049
0.838245
0.767873
0.683692
0.886246
0.742474
0.848766
0.838303
0.846121
0.85321
0.810953
0.807705
0.838925
0.859339
0.759437
0.875069
0.839088
0.634091
0.80757
0.758171
0.861546
0.782041
0.807333
0.806776
0.802929
0.803721
0.834273
0.843229
0.856658
0.811073
0.803793
0.803846
0.803621
0.842742
0.83785
0.803618
0.843051
0.858619
0.803962
0.799369
0.803384
0.842114
0.761139
0.839739
0.838614
0.70463
0.741684
0.809637
0.83873
0.809134
0.645216
0.858149
0.837544
0.836172
0.808417
0.805251
0.802878
0.803053
0.641129
0.808397
0.837901
0.837179
0.838798
0.842574
0.817611
0.769681
0.805957
0.78841
0.795011
0.802934
0.797475
0.759737
0.804647
0.815905
0.83603
0.842206
0.8511
0.643138
0.852891
0.843581
0.823289
0.806115
0.824954
0.841681
0.896731
0.81306
0.868497
0.809557
0.781592
0.867536
0.805781
0.803637
0.839259
0.696547
0.682732
0.805602
0.806537
0.683402
0.69066
0.803271
0.840024
0.841906
0.839683
0.756715
0.829988
0.840974
0.841683
0.833625
0.815202
0.843612
0.773885
0.808896
0.837301
0.84195
0.707769
0.64011
0.843659
0.686656
0.745314
0.634281
0.852203
0.80393
0.659637
0.651775
0.83741
0.908533
0.837815
0.689224
0.838448
0.802172
0.805837
0.792575
0.825028
0.82784
0.79562
0.83781
0.819775
0.651329
0.837738
0.785701
0.836793
0.706538
0.839314
0.805788
0.838729
0.804405
0.698331
0.851249
0.819226
0.811801
0.6492
0.837739
0.803976
0.854236
0.719583
0.837794
0.689977
0.757258
0.805304
0.811301
0.76582
0.748598
0.723102
0.657401
0.698055
0.804542
0.657965
0.839698
0.675004
0.775861
0.722997
0.70053
0.661806
0.765911
0.804593
0.721595
0.839077
0.803578
0.8069
0.779428
0.892468
0.802794
0.84045
0.805966
0.843056
0.733179
0.812447
0.758738
0.839354
0.889375
0.844678
0.769907
0.83947
0.788426
0.883224
0.807002
0.776906
0.859793
0.79399
0.803301
0.810646
0.776679
0.773641
0.721909
0.808033
0.804758
0.836482
0.846228
0.656828
0.813161
0.65008
0.701812
0.698832
0.822933
0.838751
0.833649
0.806984
0.661328
0.876626
0.803615
0.803795
0.870315
0.843109
0.784509
0.842797
0.803425
0.837937
0.803936
0.742341
0.807573
0.719413
0.802028
0.820424
0.802946
0.677252
0.825266
0.822569
0.741667
0.822093
0.643414
0.63802
0.807601
0.72544
0.748926
0.636401
0.75532
0.839683
0.707764
0.784154
0.724552
0.824084
0.704499
0.780148
0.810509
0.833601
0.705529
0.803342
0.897238
0.802285
0.837852
0.677808
0.725334
0.820254
0.842652
0.83855
0.858988
0.840415
0.808252
0.807336
0.805503
0.74343
0.726175
0.666815
0.791045
0.668282
0.732447
0.834513
0.837707
0.81119
0.803259
0.684768
0.832931
0.806677
0.64752
0.65632
0.766753
0.806518
0.823056
0.636207
0.803058
0.646276
0.758296
0.662282
0.817056
0.80633
0.655289
0.658118
0.873625
0.814188
0.783188
0.750491
0.696752
0.691684
0.713036
0.836594
0.777766
0.773007
0.671989
0.775177
0.832457
0.837777
0.842516
0.838065
0.866521
0.777182
0.837742
0.807531
0.859224
0.843535
0.80429
0.84087
0.73074
0.832952
0.832571
0.835872
0.832399
0.836187
0.805275
0.837214
0.832225
0.832226
0.836863
0.803744
0.836524
0.838086
0.701871
0.837929
0.874307
0.837724
0.799082
0.685542
0.866124
0.838147
0.840934
0.803356
0.84159
0.765457
0.861276
0.686162
0.761981
0.813319
0.837946
0.80696
0.805554
0.845572
0.809964
0.809431
0.838149
0.795852
0.850274
0.852244
0.830451
0.699665
0.703641
0.837874
0.836841
0.807595
0.85891
0.855853
0.815935
0.834033
0.795023
0.83769
0.837388
0.838006
0.838094
0.817886
0.837932
0.859985
0.837921
0.8356
0.837892
0.837558
0.793313
0.834893
0.80902
0.80956
0.809347
0.838072
0.841248
0.804032
0.762131
0.839366
0.80962
0.833397
0.809691
0.863943
0.807742
0.837303
0.841671
0.809654
0.673306
0.806597
0.841985
0.819637
0.813706
0.842255
0.839934
0.841429
0.81353
0.869696
0.651076
0.842477
0.851742
0.841356
0.805528
0.812248
0.838299
0.851082
0.80464
0.806322
0.824027
0.685655
0.842682
0.812795
0.812488
0.839992
0.841621
0.841255
0.840471
0.651466
0.815318
0.752146
0.888862
0.837448
0.742261
0.715564
0.83811
0.808165
0.822631
0.684039
0.804358
0.84057
0.685192
0.803872
0.807221
0.820198
0.818417
0.864666
0.813225
0.656571
0.804217
0.781673
0.814672
0.891886
0.817251
0.818466
0.822893
0.841077
0.840375
0.839606
0.847887
0.67828
0.818033
0.692221
0.83945
0.839556
0.719382
0.839677
0.822333
0.721115
0.831774
0.732713
0.868238
0.790319
0.838826
0.842675
0.839812
0.712949
0.839771
0.672123
0.803056
0.798802
0.83901
0.838216
0.740309
0.774045
0.844178
0.839835
0.83164
0.839308
0.840261
0.841174
0.802761
0.630027
0.763984
0.776443
0.740279
0.849587
0.826565
0.835896
0.796838
0.805419
0.841967
0.842637
0.842507
0.786091
0.635793
0.805481
0.661574
0.821883
0.828278
0.803497
0.806617
0.81799
0.809955
0.799746
0.749558
0.840366
0.865452
0.827721
0.802304
0.746843
0.814037
0.796074
0.842501
0.664863
0.801231
0.826598
0.802054
0.712911
0.840967
0.828034
0.858398
0.632787
0.810773
0.805276
0.839226
0.692695
0.841269
0.805265
0.805519
0.80555
0.840969
0.840686
0.836936
0.841855
0.724915
0.807479
0.804994
0.842289
0.897965
0.841113
0.791597
0.842544
0.802949
0.804512
0.652957
0.842511
0.805527
0.8295
0.806283
0.872534
0.829373
0.854569
0.804561
0.838473
0.787953
0.640303
0.776613
0.81104
0.824121
0.817018
0.838809
0.635808
0.867262
0.859242
0.78931
0.76907
0.747851
0.81715
0.849573
0.842358
0.817693
0.842376
0.807291
0.736374
0.806399
0.80217
0.771616
0.840126
0.83987
0.867219
0.837067
0.842521
0.682085
0.812277
0.842526
0.80413
0.790392
0.820751
0.804583
0.839671
0.842136
0.803607
0.807712
0.804122
0.831195
0.850228
0.807067
0.801807
0.806417
0.774047
0.838425
0.64178
0.873084
0.806292
0.63031
0.80761
0.81674
0.823616
0.700029
0.660277
0.805481
0.80863
0.804851
0.866384
0.786439
0.832305
0.805795
0.866959
0.80774
0.807357
0.836605
0.833833
0.824331
0.838541
0.838146
0.87227
0.752605
0.859113
0.837241
0.690637
0.806547
0.806214
0.806774
0.838925
0.839628
0.808058
0.805011
0.803666
0.839687
0.807165
0.80621
0.803309
0.840603
0.806653
0.804501
0.809445
0.842148
0.805247
0.805473
0.828401
0.802453
0.838103
0.688705
0.841803
0.857735
0.808868
0.838397
0.805669
0.843303
0.849423
0.805529
0.838905
0.803213
0.811902
0.795813
0.804615
0.807132
0.809631
0.810011
0.809262
0.837534
0.838451
0.814633
0.845085
0.806922
0.803964
0.803478
0.794294
0.846053
0.805584
0.838236
0.83813
0.811069
0.809535
0.804061
0.849711
0.865967
0.803185
0.710225
0.803832
0.852952
0.837682
0.810249
0.807327
0.822975
0.853889
0.702548
0.832366
0.81082
0.852429
0.837799
0.815482
0.817044
0.813037
0.806597
0.816354
0.812355
0.64601
0.857518
0.799664
0.838993
0.862837
0.83828
0.780897
0.812683
0.838705
0.835368
0.80693
0.697909
0.814255
0.86989
0.815911
0.803329
0.794687
0.875813
0.802411
0.881135
0.819084
0.837614
0.838739
0.807333
0.807958
0.841009
0.837788
0.808507
0.839706
0.821074
0.885085
0.823373
0.812743
0.80453
0.840655
0.813927
0.841493
0.813079
0.810298
0.817012
0.837857
0.840938
0.838687
0.837819
0.834642
0.818833
0.743845
0.715332
0.841066
0.837897
0.808989
0.839633
0.667346
0.861313
0.802578
0.809527
0.836848
0.839072
0.806775
0.839524
0.80411
0.804392
0.812641
0.828188
0.780226
0.799413
0.839633
0.84494
0.836661
0.804089
0.82205
0.805552
0.816157
0.809872
0.802967
0.802908
0.803712
0.822548
0.80312
0.807638
0.847938
0.834624
0.758181
0.685274
0.811449
0.744937
0.803525
0.689277
0.807448
0.810949
0.807749
0.837974
0.836831
0.839299
0.842055
0.813652
0.807857
0.885421
0.837877
0.809991
0.783652
0.692305
0.813557
0.81163
0.781808
0.838597
0.839433
0.79804
0.80544
0.806867
0.710585
0.840269
0.805863
0.800946
0.789285
0.860066
0.813311
0.807743
0.807684
0.814827
0.814493
0.659657
0.804954
0.850985
0.83936
0.803859
0.667863
0.818562
0.839009
0.843146
0.846668
0.839219
0.807144
0.839345
0.810281
0.642495
0.81226
0.766057
0.803025
0.839859
0.741656
0.838348
0.848215
0.833185
0.700035
0.893212
0.793685
0.796721
0.802118
0.787234
0.812924
0.851868
0.81283
0.805647
0.840053
0.8327
0.791618
0.794021
0.838331
0.813308
0.83617
0.837296
0.837054
0.818892
0.805128
0.842088
0.86453
0.831866
0.822301
0.840588
0.655578
0.801328
0.83841
0.838706
0.872223
0.842665
0.82256
0.659149
0.83432
0.804195
0.838841
0.819558
0.85629
0.841425
0.814412
0.884922
0.779671
0.816173
0.840285
0.832129
0.809097
0.838803
0.692808
0.80518
0.858788
0.835163
0.81532
0.833043
0.840477
0.812938
0.731031
0.832486
0.804561
0.850254
0.837432
0.816585
0.842389
0.810143
0.832124
0.83706
0.813915
0.838203
0.772192
0.855877
0.838054
0.818498
0.841583
0.841642
0.835973
0.836708
0.84195
0.83202
0.851418
0.837874
0.804155
0.827916
0.839928
0.820519
0.818071
0.804172
0.804429
0.841972
0.838206
0.83161
0.842234
0.836346
0.804039
0.831763
0.842465
0.841167
0.805466
0.83854
0.840114
0.807619
0.842675
0.847485
0.804522
0.831883
0.825634
0.64692
0.838445
0.837679
0.832715
0.835657
0.838923
0.841276
0.837217
0.838145
0.729825
0.842022
0.804478
0.83801
0.823126
0.836539
0.839147
0.826506
0.843728
0.840944
0.838882
0.821721
0.823825
0.823503
0.841431
0.838
0.822753
0.845585
0.840352
0.837934
0.804219
0.842835
0.841245
0.666681
0.694566
0.817386
0.839141
0.805691
0.838056
0.837955
0.842822
0.734928
0.839566
0.754547
0.831156
0.833272
0.841247
0.840939
0.839682
0.810237
0.842672
0.840605
0.841842
0.840194
0.744135
0.821953
0.837322
0.803008
0.804245
0.838153
0.86319
0.841321
0.84057
0.858238
0.839254
0.850887
0.680137
0.843031
0.839072
0.833251
0.837881
0.852268
0.837921
0.742426
0.802993
0.833618
0.804142
0.803004
0.809327
0.767691
0.840471
0.837934
0.756745
0.837601
0.829732
0.839911
0.837592
0.802692
0.837646
0.842636
0.8274
0.812139
0.825205
0.835249
0.695888
0.838201
0.837926
0.842886
0.696785
0.726396
0.649253
0.82613
0.676107
0.855506
0.75002
0.843784
0.839925
0.759333
0.831684
0.836431
0.763184
0.811585
0.838044
0.799263
0.836708
0.837927
0.837857
0.842508
0.831524
0.806077
0.758578
0.83902
0.837448
0.837024
0.801858
0.818915
0.807233
0.837914
0.839298
0.85569
0.837284
0.666145
0.833667
0.838063
0.838114
0.78729
0.819185
0.810108
0.821709
0.847653
0.654185
0.814004
0.803108
0.837981
0.837599
0.837442
0.840582
0.838057
0.834604
0.835984
0.805645
0.835351
0.85615
0.837191
0.797158
0.836446
0.670184
0.728045
0.841966
0.837647
0.805962
0.839537
0.744952
0.804316
0.804026
0.838641
0.67972
0.837888
0.803281
0.838113
0.865978
0.793297
0.839354
0.837951
0.826741
0.839123
0.781388
0.804244
0.839462
0.903285
0.829613
0.837873
0.833655
0.836821
0.869309
0.727728
0.68896
0.853249
0.804843