# vtk DataFile Version 1.0
unstructured grid
ascii
DATASET UNSTRUCTURED_GRID
points 7812 float
-1 0 0
-1 1 0
2 0 0
2 1 0
0 0 0
1 0 0
-1 1 0.1
-1 0 0.1
0 0 0.1
1 0 0.1
2 0 0.1
2 1 0.1
-0.99 0 0
-0.98 0 0
-0.97 0 0
-0.96 0 0
-0.95 0 0
-0.94 0 0
-0.93 0 0
-0.92 0 0
-0.91 0 0
-0.9 0 0
-0.89 0 0
-0.88 0 0
-0.87 0 0
-0.86 0 0
-0.85 0 0
-0.84 0 0
-0.83 0 0
-0.82 0 0
-0.81 0 0
-0.8 0 0
-0.79 0 0
-0.78 0 0
-0.77 0 0
-0.76 0 0
-0.75 0 0
-0.74 0 0
-0.73 0 0
-0.72 0 0
-0.71 0 0
-0.7 0 0
-0.69 0 0
-0.68 0 0
-0.67 0 0
-0.66 0 0
-0.65 0 0
-0.64 0 0
-0.63 0 0
-0.62 0 0
-0.61 0 0
-0.6 0 0
-0.59 0 0
-0.58 0 0
-0.57 0 0
-0.56 0 0
-0.55 0 0
-0.54 0 0
-0.53 0 0
-0.52 0 0
-0.51 0 0
-0.5 0 0
-0.49 0 0
-0.48 0 0
-0.47 0 0
-0.46 0 0
-0.45 0 0
-0.44 0 0
-0.43 0 0
-0.42 0 0
-0.41 0 0
-0.4 0 0
-0.39 0 0
-0.38 0 0
-0.37 0 0
-0.36 0 0
-0.35 0 0
-0.34 0 0
-0.33 0 0
-0.32 0 0
-0.31 0 0
-0.3 0 0
-0.29 0 0
-0.28 0 0
-0.27 0 0
-0.26 0 0
-0.25 0 0
-0.24 0 0
-0.23 0 0
-0.22 0 0
-0.21 0 0
-0.2 0 0
-0.19 0 0
-0.18 0 0
-0.17 0 0
-0.16 0 0
-0.15 0 0
-0.14 0 0
-0.13 0 0
-0.12 0 0
-0.11 0 0
-0.1 0 0
-0.09 0 0
-0.08 0 0
-0.07 0 0
-0.06 0 0
-0.05 0 0
-0.04 0 0
-0.03 0 0
-0.02 0 0
-0.01 0 0
1.01 0 0
1.02 0 0
1.03 0 0
1.04 0 0
1.05 0 0
1.06 0 0
1.07 0 0
1.08 0 0
1.09 0 0
1.1 0 0
1.11 0 0
1.12 0 0
1.13 0 0
1.14 0 0
1.15 0 0
1.16 0 0
1.17 0 0
1.18 0 0
1.19 0 0
1.2 0 0
1.21 0 0
1.22 0 0
1.23 0 0
1.24 0 0
1.25 0 0
1.26 0 0
1.27 0 0
1.28 0 0
1.29 0 0
1.3 0 0
1.31 0 0
1.32 0 0
1.33 0 0
1.34 0 0
1.35 0 0
1.36 0 0
1.37 0 0
1.38 0 0
1.39 0 0
1.4 0 0
1.41 0 0
1.42 0 0
1.43 0 0
1.44 0 0
1.45 0 0
1.46 0 0
1.47 0 0
1.48 0 0
1.49 0 0
1.5 0 0
1.51 0 0
1.52 0 0
1.53 0 0
1.54 0 0
1.55 0 0
1.56 0 0
1.57 0 0
1.58 0 0
1.59 0 0
1.6 0 0
1.61 0 0
1.62 0 0
1.63 0 0
1.64 0 0
1.65 0 0
1.66 0 0
1.67 0 0
1.68 0 0
1.69 0 0
1.7 0 0
1.71 0 0
1.72 0 0
1.73 0 0
1.74 0 0
1.75 0 0
1.76 0 0
1.77 0 0
1.78 0 0
1.79 0 0
1.8 0 0
1.81 0 0
1.82 0 0
1.83 0 0
1.84 0 0
1.85 0 0
1.86 0 0
1.87 0 0
1.88 0 0
1.89 0 0
1.9 0 0
1.91 0 0
1.92 0 0
1.93 0 0
1.94 0 0
1.95 0 0
1.96 0 0
1.97 0 0
1.98 0 0
1.99 0 0
2 0.010289 0
2 0.0215307 0
2 0.0338135 0
2 0.0472336 0
2 0.0618965 0
2 0.0779171 0
2 0.0954213 0
2 0.114546 0
2 0.135442 0
2 0.158274 0
2 0.183219 0
2 0.210474 0
2 0.240253 0
2 0.27279 0
2 0.308339 0
2 0.347181 0
2 0.389619 0
2 0.435987 0
2 0.486649 0
2 0.542002 0
2 0.602481 0
2 0.66856 0
2 0.740758 0
2 0.819642 0
2 0.90583 0
1.9 1 0
1.8 1 0
1.7 1 0
1.6 1 0
1.5 1 0
1.4 1 0
1.3 1 0
1.2 1 0
1.1 1 0
1 1 0
0.9 1 0
0.8 1 0
0.7 1 0
0.6 1 0
0.5 1 0
0.4 1 0
0.3 1 0
0.2 1 0
0.1 1 0
3.69793e-12 1 0
-0.1 1 0
-0.2 1 0
-0.3 1 0
-0.4 1 0
-0.5 1 0
-0.6 1 0
-0.7 1 0
-0.8 1 0
-0.9 1 0
-1 0.90583 0
-1 0.819642 0
-1 0.740758 0
-1 0.66856 0
-1 0.602481 0
-1 0.542002 0
-1 0.486649 0
-1 0.435987 0
-1 0.389619 0
-1 0.347181 0
-1 0.308339 0
-1 0.27279 0
-1 0.240253 0
-1 0.210474 0
-1 0.183219 0
-1 0.158274 0
-1 0.135442 0
-1 0.114546 0
-1 0.0954213 0
-1 0.0779171 0
-1 0.0618965 0
-1 0.0472336 0
-1 0.0338135 0
-1 0.0215307 0
-1 0.010289 0
0.00921362 0.00379763 0
0.0184561 0.00752451 0
0.0277268 0.0111804 0
0.0370253 0.0147652 0
0.0463511 0.0182786 0
0.0557034 0.0217203 0
0.0650819 0.0250903 0
0.074486 0.0283883 0
0.083915 0.0316141 0
0.0933685 0.0347675 0
0.102846 0.0378484 0
0.112347 0.0408565 0
0.12187 0.0437917 0
0.131416 0.0466538 0
0.140983 0.0494427 0
0.150572 0.0521581 0
0.160181 0.0547999 0
0.16981 0.0573681 0
0.179458 0.0598623 0
0.189125 0.0622825 0
0.198811 0.0646285 0
0.208514 0.0669001 0
0.218234 0.0690974 0
0.227971 0.07122 0
0.237724 0.073268 0
0.247493 0.0752411 0
0.257276 0.0771393 0
0.267073 0.0789625 0
0.276884 0.0807105 0
0.286708 0.0823832 0
0.296545 0.0839806 0
0.306394 0.0855025 0
0.316254 0.0869488 0
0.326125 0.0883196 0
0.336006 0.0896146 0
0.345896 0.0908339 0
0.355796 0.0919773 0
0.365704 0.0930447 0
0.375621 0.0940362 0
0.385544 0.0949517 0
0.395474 0.095791 0
0.40541 0.0965542 0
0.415352 0.0972412 0
0.425299 0.097852 0
0.43525 0.0983865 0
0.445205 0.0988447 0
0.455164 0.0992266 0
0.465125 0.0995321 0
0.475088 0.0997613 0
0.485052 0.0999141 0
0.495017 0.0999904 0
0.504983 0.0999904 0
0.514948 0.0999141 0
0.524912 0.0997613 0
0.534875 0.0995321 0
0.544836 0.0992266 0
0.554795 0.0988447 0
0.56475 0.0983865 0
0.574701 0.097852 0
0.584648 0.0972412 0
0.59459 0.0965542 0
0.604526 0.095791 0
0.614456 0.0949517 0
0.624379 0.0940362 0
0.634296 0.0930447 0
0.644204 0.0919773 0
0.654104 0.0908339 0
0.663994 0.0896146 0
0.673875 0.0883196 0
0.683746 0.0869488 0
0.693606 0.0855025 0
0.703455 0.0839806 0
0.713292 0.0823832 0
0.723116 0.0807105 0
0.732927 0.0789625 0
0.742724 0.0771393 0
0.752508 0.0752411 0
0.762276 0.073268 0
0.772029 0.07122 0
0.781766 0.0690974 0
0.791486 0.0669001 0
0.801189 0.0646285 0
0.810875 0.0622825 0
0.820542 0.0598623 0
0.83019 0.0573681 0
0.839819 0.0547999 0
0.849428 0.0521581 0
0.859017 0.0494427 0
0.868584 0.0466538 0
0.87813 0.0437917 0
0.887653 0.0408565 0
0.897154 0.0378484 0
0.906631 0.0347675 0
0.916085 0.0316141 0
0.925514 0.0283883 0
0.934918 0.0250903 0
0.944297 0.0217203 0
0.953649 0.0182786 0
0.962975 0.0147652 0
0.972273 0.0111804 0
0.981544 0.00752451 0
0.990786 0.00379763 0
-1 0.90583 0.1
-1 0.819642 0.1
-1 0.740758 0.1
-1 0.66856 0.1
-1 0.602481 0.1
-1 0.542002 0.1
-1 0.486649 0.1
-1 0.435987 0.1
-1 0.389619 0.1
-1 0.347181 0.1
-1 0.308339 0.1
-1 0.27279 0.1
-1 0.240253 0.1
-1 0.210474 0.1
-1 0.183219 0.1
-1 0.158274 0.1
-1 0.135442 0.1
-1 0.114546 0.1
-1 0.0954213 0.1
-1 0.0779171 0.1
-1 0.0618965 0.1
-1 0.0472336 0.1
-1 0.0338135 0.1
-1 0.0215307 0.1
-1 0.010289 0.1
-0.99 0 0.1
-0.98 0 0.1
-0.97 0 0.1
-0.96 0 0.1
-0.95 0 0.1
-0.94 0 0.1
-0.93 0 0.1
-0.92 0 0.1
-0.91 0 0.1
-0.9 0 0.1
-0.89 0 0.1
-0.88 0 0.1
-0.87 0 0.1
-0.86 0 0.1
-0.85 0 0.1
-0.84 0 0.1
-0.83 0 0.1
-0.82 0 0.1
-0.81 0 0.1
-0.8 0 0.1
-0.79 0 0.1
-0.78 0 0.1
-0.77 0 0.1
-0.76 0 0.1
-0.75 0 0.1
-0.74 0 0.1
-0.73 0 0.1
-0.72 0 0.1
-0.71 0 0.1
-0.7 0 0.1
-0.69 0 0.1
-0.68 0 0.1
-0.67 0 0.1
-0.66 0 0.1
-0.65 0 0.1
-0.64 0 0.1
-0.63 0 0.1
-0.62 0 0.1
-0.61 0 0.1
-0.6 0 0.1
-0.59 0 0.1
-0.58 0 0.1
-0.57 0 0.1
-0.56 0 0.1
-0.55 0 0.1
-0.54 0 0.1
-0.53 0 0.1
-0.52 0 0.1
-0.51 0 0.1
-0.5 0 0.1
-0.49 0 0.1
-0.48 0 0.1
-0.47 0 0.1
-0.46 0 0.1
-0.45 0 0.1
-0.44 0 0.1
-0.43 0 0.1
-0.42 0 0.1
-0.41 0 0.1
-0.4 0 0.1
-0.39 0 0.1
-0.38 0 0.1
-0.37 0 0.1
-0.36 0 0.1
-0.35 0 0.1
-0.34 0 0.1
-0.33 0 0.1
-0.32 0 0.1
-0.31 0 0.1
-0.3 0 0.1
-0.29 0 0.1
-0.28 0 0.1
-0.27 0 0.1
-0.26 0 0.1
-0.25 0 0.1
-0.24 0 0.1
-0.23 0 0.1
-0.22 0 0.1
-0.21 0 0.1
-0.2 0 0.1
-0.19 0 0.1
-0.18 0 0.1
-0.17 0 0.1
-0.16 0 0.1
-0.15 0 0.1
-0.14 0 0.1
-0.13 0 0.1
-0.12 0 0.1
-0.11 0 0.1
-0.1 0 0.1
-0.09 0 0.1
-0.08 0 0.1
-0.07 0 0.1
-0.06 0 0.1
-0.05 0 0.1
-0.04 0 0.1
-0.03 0 0.1
-0.02 0 0.1
-0.01 0 0.1
0.00921362 0.00379763 0.1
0.0184561 0.00752451 0.1
0.0277268 0.0111804 0.1
0.0370253 0.0147652 0.1
0.0463511 0.0182786 0.1
0.0557034 0.0217203 0.1
0.0650819 0.0250903 0.1
0.074486 0.0283883 0.1
0.083915 0.0316141 0.1
0.0933685 0.0347675 0.1
0.102846 0.0378484 0.1
0.112347 0.0408565 0.1
0.12187 0.0437917 0.1
0.131416 0.0466538 0.1
0.140983 0.0494427 0.1
0.150572 0.0521581 0.1
0.160181 0.0547999 0.1
0.16981 0.0573681 0.1
0.179458 0.0598623 0.1
0.189125 0.0622825 0.1
0.198811 0.0646285 0.1
0.208514 0.0669001 0.1
0.218234 0.0690974 0.1
0.227971 0.07122 0.1
0.237724 0.073268 0.1
0.247493 0.0752411 0.1
0.257276 0.0771393 0.1
0.267073 0.0789625 0.1
0.276884 0.0807105 0.1
0.286708 0.0823832 0.1
0.296545 0.0839806 0.1
0.306394 0.0855025 0.1
0.316254 0.0869488 0.1
0.326125 0.0883196 0.1
0.336006 0.0896146 0.1
0.345896 0.0908339 0.1
0.355796 0.0919773 0.1
0.365704 0.0930447 0.1
0.375621 0.0940362 0.1
0.385544 0.0949517 0.1
0.395474 0.095791 0.1
0.40541 0.0965542 0.1
0.415352 0.0972412 0.1
0.425299 0.097852 0.1
0.43525 0.0983865 0.1
0.445205 0.0988447 0.1
0.455164 0.0992266 0.1
0.465125 0.0995321 0.1
0.475088 0.0997613 0.1
0.485052 0.0999141 0.1
0.495017 0.0999904 0.1
0.504983 0.0999904 0.1
0.514948 0.0999141 0.1
0.524912 0.0997613 0.1
0.534875 0.0995321 0.1
0.544836 0.0992266 0.1
0.554795 0.0988447 0.1
0.56475 0.0983865 0.1
0.574701 0.097852 0.1
0.584648 0.0972412 0.1
0.59459 0.0965542 0.1
0.604526 0.095791 0.1
0.614456 0.0949517 0.1
0.624379 0.0940362 0.1
0.634296 0.0930447 0.1
0.644204 0.0919773 0.1
0.654104 0.0908339 0.1
0.663994 0.0896146 0.1
0.673875 0.0883196 0.1
0.683746 0.0869488 0.1
0.693606 0.0855025 0.1
0.703455 0.0839806 0.1
0.713292 0.0823832 0.1
0.723116 0.0807105 0.1
0.732927 0.0789625 0.1
0.742724 0.0771393 0.1
0.752508 0.0752411 0.1
0.762276 0.073268 0.1
0.772029 0.07122 0.1
0.781766 0.0690974 0.1
0.791486 0.0669001 0.1
0.801189 0.0646285 0.1
0.810875 0.0622825 0.1
0.820542 0.0598623 0.1
0.83019 0.0573681 0.1
0.839819 0.0547999 0.1
0.849428 0.0521581 0.1
0.859017 0.0494427 0.1
0.868584 0.0466538 0.1
0.87813 0.0437917 0.1
0.887653 0.0408565 0.1
0.897154 0.0378484 0.1
0.906631 0.0347675 0.1
0.916085 0.0316141 0.1
0.925514 0.0283883 0.1
0.934918 0.0250903 0.1
0.944297 0.0217203 0.1
0.953649 0.0182786 0.1
0.962975 0.0147652 0.1
0.972273 0.0111804 0.1
0.981544 0.00752451 0.1
0.990786 0.00379763 0.1
1.01 0 0.1
1.02 0 0.1
1.03 0 0.1
1.04 0 0.1
1.05 0 0.1
1.06 0 0.1
1.07 0 0.1
1.08 0 0.1
1.09 0 0.1
1.1 0 0.1
1.11 0 0.1
1.12 0 0.1
1.13 0 0.1
1.14 0 0.1
1.15 0 0.1
1.16 0 0.1
1.17 0 0.1
1.18 0 0.1
1.19 0 0.1
1.2 0 0.1
1.21 0 0.1
1.22 0 0.1
1.23 0 0.1
1.24 0 0.1
1.25 0 0.1
1.26 0 0.1
1.27 0 0.1
1.28 0 0.1
1.29 0 0.1
1.3 0 0.1
1.31 0 0.1
1.32 0 0.1
1.33 0 0.1
1.34 0 0.1
1.35 0 0.1
1.36 0 0.1
1.37 0 0.1
1.38 0 0.1
1.39 0 0.1
1.4 0 0.1
1.41 0 0.1
1.42 0 0.1
1.43 0 0.1
1.44 0 0.1
1.45 0 0.1
1.46 0 0.1
1.47 0 0.1
1.48 0 0.1
1.49 0 0.1
1.5 0 0.1
1.51 0 0.1
1.52 0 0.1
1.53 0 0.1
1.54 0 0.1
1.55 0 0.1
1.56 0 0.1
1.57 0 0.1
1.58 0 0.1
1.59 0 0.1
1.6 0 0.1
1.61 0 0.1
1.62 0 0.1
1.63 0 0.1
1.64 0 0.1
1.65 0 0.1
1.66 0 0.1
1.67 0 0.1
1.68 0 0.1
1.69 0 0.1
1.7 0 0.1
1.71 0 0.1
1.72 0 0.1
1.73 0 0.1
1.74 0 0.1
1.75 0 0.1
1.76 0 0.1
1.77 0 0.1
1.78 0 0.1
1.79 0 0.1
1.8 0 0.1
1.81 0 0.1
1.82 0 0.1
1.83 0 0.1
1.84 0 0.1
1.85 0 0.1
1.86 0 0.1
1.87 0 0.1
1.88 0 0.1
[...]
CELL_DATA 7425
SCALARS rho float
LOOKUP_TABLE default
0.631385
0.80707
0.830731
0.837611
0.802684
0.830185
0.830681
0.826317
0.825809
0.754151
0.869822
0.813169
0.826172
0.837469
0.807515
0.828691
0.801315
0.825871
0.804914
0.776336
0.841054
0.825168
0.741435
0.83818
0.805547
0.736833
0.840868
0.853799
0.802649
0.811374
0.829324
0.729314
0.805111
0.688218
0.633094
0.83815
0.805032
0.826308
0.814283
0.837739
0.745065
0.735278
0.801446
0.687332
0.645554
0.759856
0.811555
0.826129
0.709742
0.723208
0.75167
0.807262
0.815946
0.801851
0.707664
0.666596
0.833652
0.802099
0.754075
0.722698
0.744807
0.810287
0.825862
0.802033
0.801333
0.829056
0.627971
0.78627
0.669476
0.811338
0.807542
0.803952
0.888406
0.82427
0.814607
0.825855
0.807125
0.80272
0.82585
0.763013
0.82773
0.809857
0.822783
0.793991
0.844126
0.804289
0.616356
0.839413
0.627884
0.856421
0.689515
0.745949
0.850712
0.804428
0.828875
0.77851
0.839904
0.793619
0.836042
0.806344
0.820093
0.744061
0.804776
0.837983
0.636905
0.814206
0.834628
0.734042
0.826956
0.802207
0.828241
0.790273
0.794867
0.815408
0.801228
0.792249
0.840902
0.803784
0.694122
0.694787
0.807174
0.789809
0.825809
0.795907
0.866154
0.843789
0.810258
0.815022
0.689531
0.622984
0.82648
0.691035
0.629028
0.873387
0.708574
0.802814
0.814745
0.743997
0.62439
0.747855
0.750877
0.813542
0.822295
0.704326
0.806319
0.785266
0.607031
0.802719
0.787167
0.837934
0.826808
0.689122
0.806589
0.750028
0.705288
0.804978
0.813561
0.84028
0.809002
0.705337
0.804414
0.68828
0.804343
0.839692
0.831485
0.803293
0.825825
0.796777
0.809366
0.804006
0.830866
0.808656
0.804994
0.80214
0.801976
0.760553
0.807538
0.778852
0.657475
0.682487
0.802693
0.805406
0.885039
0.841117
0.681837
0.833663
0.801432
0.831876
0.802821
0.825863
0.825684
0.804501
0.810078
0.705108
0.826958
0.830296
0.778938
0.809392
0.866061
0.810421
0.815505
0.824009
0.648614
0.84383
0.614986
0.634191
0.635413
0.678578
0.832207
0.884652
0.810059
0.801199
0.849093
0.825888
0.828204
0.831758
0.8271
0.66473
0.675937
0.826076
0.631112
0.655133
0.700584
0.823591
0.826176
0.825856
0.842583
0.826028
0.869666
0.70648
0.83892
0.747002
0.808442
0.805573
0.803336
0.73604
0.744024
0.649131
0.69439
0.870454
0.881221
0.818552
0.810271
0.811299
0.815407
0.743893
0.832513
0.803757
0.835997
0.79902
0.822585
0.725116
0.825887
0.834373
0.761521
0.605251
0.802186
0.741903
0.846884
0.826373
0.730786
0.827368
0.826839
0.857052
0.821933
0.808448
0.804445
0.836065
0.867842
0.80974
0.648161
0.856762
0.817064
0.80782
0.837651
0.845576
0.825556
0.832124
0.798534
0.827015
0.872135
0.857137
0.831401
0.845956
0.804516
0.828699
0.803976
0.764968
0.735263
0.624053
0.692864
0.814495
0.825744
0.827736
0.859956
0.786864
0.673016
0.837331
0.634865
0.786882
0.804167
0.673866
0.659819
0.665814
0.827112
0.825856
0.825885
0.825032
0.837001
0.780168
0.814466
0.804661
0.826033
0.849515
0.872929
0.842941
0.80496
0.687204
0.807664
0.842595
0.714962
0.801507
0.803226
0.871225
0.828651
0.629049
0.825849
0.762069
0.85753
0.754554
0.822603
0.911321
0.803276
0.800878
0.687411
0.664975
0.709695
0.796083
0.836778
0.826898
0.826057
0.888404
0.862725
0.802802
0.809852
0.829142
0.761144
0.806682
0.885014
0.802835
0.809248
0.804067
0.803499
0.825513
0.82752
0.828028
0.678906
0.834017
0.701131
0.812946
0.681537
0.814621
0.803312
0.84385
0.756954
0.819798
0.820542
0.828527
0.801983
0.803365
0.815029
0.736131
0.827632
0.82582
0.825476
0.802426
0.745873
0.603997
0.80896
0.823786
0.804311
0.825961
0.800143
0.659454
0.849856
0.825806
0.805479
0.797693
0.825867
0.808043
0.80626
0.827939
0.810082
0.833261
0.778856
0.822657
0.810412
0.60858
0.807159
0.666821
0.846608
0.66578
0.826586
0.883646
0.671242
0.821823
0.76575
0.806776
0.879014
0.636287
0.833757
0.833074
0.805146
0.836134
0.814745
0.83412
0.840478
0.835228
0.760504
0.837706
0.766475
0.81411
0.798515
0.805478
0.774049
0.807928
0.803175
0.825945
0.774176
0.807801
0.642762
0.650338
0.728289
0.82541
0.852492
0.871598
0.839399
0.801468
0.825704
0.808171
0.829207
0.704375
0.803871
0.756585
0.833005
0.826548
0.810124
0.70845
0.747597
0.615062
0.638467
0.804458
0.643273
0.805683
0.77093
0.779942
0.730471
0.777703
0.783362
0.821962
0.826909
0.830724
0.824286
0.742326
0.680544
0.847826
0.818993
0.789843
0.814656
0.804869
0.84579
0.749666
0.862801
0.769447
0.756134
0.781499
0.823485
0.62092
0.801613
0.850351
0.81731
0.826113
0.822133
0.802435
0.795884
0.844039
0.80421
0.851581
0.733342
0.706046
0.802215
0.806994
0.832814
0.735389
0.856101
0.804193
0.82772
0.801322
0.78646
0.812904
0.630692
0.701398
0.660955
0.825186
0.814127
0.836556
0.763906
0.813501
0.826811
0.831422
0.801974
0.757632
0.809951
0.81919
0.804256
0.739656
0.825991
0.82995
0.84364
0.823579
0.835783
0.868653
0.864083
0.76533
0.638689
0.845992
0.809337
0.851021
0.826387
0.826819
0.825968
0.826123
0.696757
0.80996
0.820832
0.825925
0.803303
0.820697
0.808814
0.865828
0.80155
0.825851
0.826734
0.878092
0.633321
0.825898
0.847271
0.888345
0.607398
0.828059
0.833964
0.799964
0.818286
0.806712
0.874043
0.822723
0.841123
0.817642
0.652574
0.803754
0.805973
0.73001
0.860126
0.764799
0.805973
0.826168
0.825418
0.864919
0.799166
0.842337
0.844126
0.799149
0.829025
0.846951
0.802973
0.815084
0.811392
0.807484
0.82623
0.803549
0.853362
0.774813
0.813423
0.804908
0.825358
0.746293
0.825914
0.829707
0.767089
0.825986
0.826966
0.832171
0.835522
0.803912
0.802919
0.857651
0.772681
0.830152
0.85249
0.806818
0.625032
0.825716
0.838387
0.859384
0.824529
0.803899
0.812724
0.861966
0.784719
0.80455
0.804212
0.825934
0.755308
0.805746
0.83375
0.812984
0.799206
0.807079
0.851776
0.809087
0.852759
0.803148
0.834824
0.825131
0.80599
0.849586
0.825681
0.716164
0.830073
0.809692
0.825203
0.909867
0.80287
0.826856
0.802211
0.802651
0.827906
0.802782
0.804988
0.788102
0.752569
0.818804
0.825933
0.773232
0.805069
0.833666
0.816001
0.833077
0.809571
0.836171
0.880907
0.84049
0.666124
0.727134
0.84956
0.828808
0.852348
0.826657
0.857619
0.811803
0.822538
0.802103
0.847228
0.867957
0.860489
0.754032
0.826307
0.832802
0.748429
0.821917
0.781418
0.802081
0.754088
0.827791
0.840693
0.826642
0.867317
0.826299
0.825879
0.822401
0.826584
0.844454
0.81514
0.80123
0.813137
0.759552
0.82422
0.778922
0.841954
0.817463
0.665614
0.784934
0.815518
0.801835
0.830976
0.806349
0.826619
0.82882
0.807806
0.830522
0.80614
0.810423
0.663629
0.855276
0.835541
0.836994
0.819567
0.804881
0.721858
0.811494
0.911513
0.825705
0.804966
0.825277
0.789107
0.811971
0.825444
0.832236
0.817674
0.825848
0.827948
0.675258
0.792319
0.781655
0.825371
0.808601
0.804926
0.654747
0.810237
0.806316
0.733974
0.841259
0.828721
0.805081
0.811682
0.801553
0.828679
0.824321
0.825881
0.825966
0.727903
0.840872
0.803989
0.812105
0.846757
0.822176
0.827931
0.802998
0.759177
0.834119
0.801266
0.832318
0.795016
0.810399
0.831951
0.746906
0.828343
0.708035
0.878197
0.726061
0.853398
0.813473
0.880698
0.798749
0.803609
0.831708
0.840321
0.84178
0.835506
0.830978
0.826452
0.813416
0.807635
0.811432
0.75509
0.831091
0.802329
0.72376
0.83977
0.679944
0.803593
0.865632
0.807869
0.735182
0.802522
0.826308
0.701582
0.790117
0.830525
0.840697
0.819296
0.683113
0.755822
0.815895
0.805379
0.82595
0.803709
0.753638
0.826135
0.827527
0.825493
0.787872
0.804461
0.806515
0.808156
0.604902
0.8258
0.83754
0.648085
0.827092
0.827839
0.826725
0.829718
0.826488
0.83504
0.802375
0.798487
0.77594
0.826532
0.83316
0.828686
0.840323
0.777053
0.821462
0.755116
0.778188
0.813238
0.832056
0.825814
0.802855
0.863275
0.825932
0.81303
0.822128
0.827738
0.827097
0.845847
0.826584
0.825671
0.814855
0.826122
0.803995
0.831923
0.805563
0.833586
0.825946
0.644233
0.825969
0.843904
0.863003
0.841805
0.640992
0.828398
0.815536
0.620866
0.710321
0.703626
0.843227
0.818599
0.814561
0.825459
0.80383
0.828358
0.814586
0.616009
0.725868
0.821735
0.809041
0.827396
0.804955
0.813175
0.823668
0.831112
0.801667
0.732394
0.861329
0.803812
0.817734
0.825903
0.771579
0.639897
0.842494
0.817359
0.746378
0.803457
0.811244
0.668139
0.831577
0.826641
0.837899
0.830078
0.830959
0.806735
0.750631
0.670939
0.607534
0.835771
0.813373
0.787484
0.82581
0.794365
0.829322
0.879007
0.775786
0.832521
0.825638
0.836144
0.888907
0.826493
0.824357
0.806277
0.816843
0.724103
0.838328
0.802206
0.815181
0.803644
0.790466
0.861779
0.832826
0.848289
0.832441
0.762341
0.766418
0.807584
0.829309
0.803861
0.807478
0.805878
0.790951
0.826645
0.774592
0.825888
0.68656
0.826137
0.805946
0.739308
0.832212
0.828701
0.75549
0.805308
0.772527
0.886485
0.802495
0.825959
0.777941
0.803798
0.82642
0.805776
0.631203
0.824894
0.809866
0.813979
0.826602
0.835747
0.771136
0.809844
0.846548
0.831732
0.817678
0.845142
0.67349
0.72031
0.825951
0.759399
0.833051
0.784145
0.825936
0.803791
0.820969
0.766745
0.797847
0.780321
0.822121
0.803784
0.659576
0.784454
0.801518
0.854113
0.826488
0.838725
0.626189
0.828435
0.79064
0.865961
0.802935
0.821767
0.803974
0.798513
0.801421
0.835745
0.843853
0.825688
0.828551
0.70688
0.788602
0.826636
0.807576
0.82288
0.80586
0.69999
0.804617
0.806447
0.815252
0.831614
0.858263
0.841576
0.825943
0.802554
0.80785
0.804887
0.787089
0.646969
0.812967
0.755963
0.690579
0.833297
0.801276
0.782044
0.802953
0.76851
0.791367
0.824605
0.826723
0.814962
0.827651
0.827903
0.829852
0.825913
0.819204
0.730047
0.720324
0.668001
0.839277
0.87583
0.82489
0.845033
0.855764
0.87005
0.759704
0.827507
0.869563
0.821589
0.826041
0.826658
0.754054
0.824325
0.811354
0.810677
0.616419
0.825869
0.772416
0.825745
0.817224
0.804944
0.704078
0.825756
0.645405
0.828883
0.805514
0.831258
0.862682
0.804877
0.799203
0.831925
0.823876
0.808752
0.773153
0.630764
0.831823
0.805716
0.833985
0.836114
0.814672
0.809498
0.843201
0.743936
0.642647
0.891264
0.812723
0.827505
0.806463
0.710006
0.801313
0.803127
0.827015
0.762606
0.672772
0.888312
0.735368
0.845767
0.824443
0.842486
0.851218
0.805837
0.806699
0.825874
0.859805
0.754012
0.876494
0.826251
0.610937
0.806548
0.753918
0.860611
0.77767
0.806264
0.805738
0.802261
0.803159
0.821334
0.826002
0.860101
0.810302
0.803491
0.802724
0.80281
0.825386
0.828469
0.803319
0.825637
0.857251
0.803655
0.79627
0.803087
0.844207
0.755588
0.826017
0.826026
0.694137
0.734401
0.809023
0.833513
0.808229
0.626371
0.861468
0.82537
0.83775
0.807429
0.804462
0.802595
0.799651
0.623753
0.807562
0.827834
0.839403
0.831613
0.825915
0.811126
0.765444
0.805799
0.784108
0.793463
0.802198
0.79536
0.756212
0.803712
0.816692
0.822794
0.840863
0.853917
0.620277
0.850625
0.82602
0.823907
0.805094
0.825793
0.824266
0.899139
0.810914
0.872555
0.808783
0.777133
0.868512
0.804557
0.802257
0.834482
0.686177
0.671742
0.804738
0.805575
0.672879
0.68015
0.80187
0.834412
0.825861
0.833368
0.751159
0.827308
0.825553
0.83649
0.827908
0.814882
0.826042
0.769282
0.807949
0.827402
0.824517
0.698594
0.617147
0.82608
0.675934
0.738992
0.610051
0.850061
0.80305
0.642149
0.636441
0.836312
0.911742
0.829506
0.678517
0.826282
0.799125
0.804819
0.79175
0.825605
0.821675
0.794149
0.83183
0.813574
0.632485
0.829236
0.781687
0.827541
0.698535
0.833012
0.802529
0.826144
0.80341
0.688251
0.851109
0.817152
0.811098
0.632083
0.828418
0.803129
0.857279
0.712593
0.828636
0.674967
0.751317
0.804324
0.808512
0.760515
0.741453
0.716019
0.640565
0.684911
0.803516
0.640292
0.833378
0.660412
0.771418
0.712352
0.687203
0.643857
0.760892
0.803936
0.714198
0.832243
0.802946
0.805884
0.775194
0.894536
0.802038
0.834981
0.805048
0.825875
0.725766
0.811788
0.753183
0.832777
0.891177
0.842527
0.76487
0.833483
0.784668
0.885123
0.805996
0.772558
0.858596
0.790472
0.801902
0.809852
0.772351
0.768735
0.712231
0.807027
0.804003
0.829117
0.842932
0.642786
0.812595
0.630024
0.692165
0.684661
0.823309
0.831987
0.821368
0.805919
0.647548
0.878154
0.80334
0.803525
0.870358
0.825599
0.781581
0.825332
0.803145
0.829327
0.803663
0.735615
0.806566
0.707944
0.801545
0.815964
0.802681
0.665839
0.822247
0.820586
0.7352
0.822383
0.620307
0.61948
0.806527
0.717465
0.7428
0.615279
0.748758
0.826002
0.699072
0.781581
0.717743
0.822525
0.694705
0.776019
0.809667
0.822721
0.693342
0.802996
0.899662
0.801466
0.828402
0.659958
0.716979
0.81357
0.825923
0.82617
0.858884
0.825301
0.807341
0.80625
0.804655
0.736248
0.719682
0.652165
0.787122
0.651676
0.726293
0.822239
0.826393
0.810425
0.802405
0.672407
0.821351
0.805609
0.625505
0.637223
0.761724
0.80543
0.817957
0.611401
0.802887
0.623694
0.752477
0.646738
0.817901
0.805315
0.638649
0.64341
0.874237
0.813692
0.779175
0.743576
0.681966
0.681193
0.704794
0.827586
0.773541
0.770276
0.65816
0.770467
0.821511
0.827204
0.825508
0.827329
0.870627
0.772533
0.830137
0.806636
0.858737
0.826022
0.803739
0.825728
0.724221
0.824603
0.823768
0.826807
0.823051
0.827433
0.804455
0.829241
0.822393
0.821849
0.828652
0.802336
0.828055
0.830204
0.692012
0.829902
0.874821
0.829512
0.797228
0.674001
0.865777
0.830079
0.835385
0.802527
0.824355
0.762364
0.860279
0.671574
0.756376
0.812845
0.827475
0.805875
0.804687
0.84174
0.810317
0.808516
0.827165
0.792718
0.847572
0.850429
0.826023
0.689675
0.690339
0.827548
0.828119
0.802585
0.857614
0.855036
0.815635
0.825292
0.791527
0.826121
0.829189
0.826182
0.83006
0.817762
0.827604
0.85888
0.827724
0.826205
0.829031
0.829159
0.790888
0.8258
0.808079
0.808679
0.808427
0.829888
0.824499
0.800992
0.758671
0.82516
0.808694
0.82115
0.808773
0.864448
0.806732
0.825993
0.825546
0.808756
0.661822
0.805622
0.825636
0.819693
0.813169
0.825719
0.825765
0.825771
0.812989
0.870621
0.633232
0.825783
0.850078
0.825454
0.804654
0.811553
0.826961
0.848572
0.803656
0.805248
0.822457
0.675234
0.825834
0.812163
0.81185
0.825155
0.825688
0.825743
0.825894
0.632793
0.816016
0.74572
0.890839
0.831761
0.737077
0.706228
0.82724
0.808376
0.822972
0.67303
0.8036
0.825885
0.674285
0.802961
0.80623
0.82032
0.816504
0.86411
0.812675
0.641947
0.803378
0.779856
0.814532
0.89395
0.814547
0.818746
0.823273
0.84054
0.82591
0.833203
0.845354
0.665613
0.81441
0.681703
0.826065
0.825997
0.71213
0.825919
0.816816
0.714177
0.826032
0.724805
0.868087
0.789259
0.82644
0.825878
0.825851
0.702035
0.826033
0.660304
0.80246
0.79764
0.83301
0.827098
0.733457
0.771663
0.839947
0.825293
0.830491
0.832757
0.825924
0.835769
0.802116
0.605137
0.760275
0.77283
0.734721
0.846722
0.827292
0.838051
0.792407
0.804341
0.82586
0.825916
0.825895
0.783322
0.612508
0.804533
0.644095
0.819099
0.829156
0.802663
0.805558
0.817902
0.809285
0.796319
0.743876
0.825898
0.865825
0.824347
0.801784
0.741609
0.814655
0.794027
0.842
0.650019
0.799526
0.818138
0.801527
0.703858
0.82554
0.822193
0.861989
0.611692
0.809941
0.80444
0.82526
0.677058
0.825791
0.804466
0.80468
0.804523
0.825834
0.82587
0.8277
0.825849
0.717919
0.806485
0.804261
0.825883
0.900532
0.825812
0.787991
0.845133
0.801447
0.80396
0.637423
0.825837
0.804624
0.830483
0.806328
0.872826
0.825516
0.857912
0.80358
0.831606
0.785642
0.616602
0.771865
0.807132
0.816314
0.816945
0.826019
0.611315
0.868189
0.862735
0.785143
0.765507
0.743495
0.81698
0.852602
0.82584
0.817556
0.825871
0.806241
0.730951
0.805317
0.801659
0.768966
0.834734
0.833711
0.8682
0.827335
0.825906
0.669557
0.811625
0.825875
0.803299
0.78689
0.821266
0.803949
0.825367
0.83714
0.802413
0.806706
0.803368
0.826124
0.847913
0.806027
0.801463
0.805352
0.771296
0.830979
0.618631
0.874335
0.805343
0.605202
0.806598
0.814246
0.824044
0.686876
0.644625
0.804495
0.807663
0.803884
0.867143
0.785141
0.825868
0.804683
0.871077
0.80672
0.80634
0.835294
0.827136
0.824838
0.832117
0.831299
0.873444
0.74661
0.859229
0.82863
0.679926
0.805529
0.805091
0.805665
0.83206
0.83405
0.807065
0.804043
0.802843
0.833418
0.80615
0.805275
0.80252
0.834917
0.805669
0.803758
0.808506
0.837859
0.804187
0.804477
0.829299
0.801949
0.827238
0.677785
0.836686
0.857303
0.807913
0.830735
0.804789
0.838776
0.846587
0.804677
0.832333
0.802635
0.81119
0.794761
0.803859
0.806121
0.80871
0.809132
0.808337
0.829769
0.826751
0.814186
0.841142
0.805879
0.803426
0.802685
0.793501
0.84307
0.804719
0.830488
0.827092
0.810269
0.80863
0.803652
0.847612
0.869902
0.802413
0.701163
0.803157
0.850783
0.828187
0.809404
0.806324
0.82338
0.852662
0.689243
0.833611
0.807177
0.855608
0.829958
0.815122
0.816838
0.812436
0.805629
0.816074
0.81167
0.629081
0.856074
0.799277
0.826346
0.862101
0.830476
0.77679
0.812033
0.826534
0.826941
0.806945
0.68753
0.813776
0.869958
0.813579
0.80274
0.790794
0.877042
0.802116
0.882598
0.817135
0.828649
0.831621
0.806297
0.806964
0.825336
0.827608
0.807534
0.825728
0.821252
0.886691
0.824657
0.812172
0.803525
0.837863
0.813562
0.84354
0.812473
0.80943
0.816803
0.82817
0.838966
0.825864
0.832948
0.836244
0.818801
0.735993
0.706414
0.825704
0.829164
0.808051
0.825549
0.651702
0.861688
0.802065
0.808601
0.825858
0.825769
0.805801
0.824998
0.803245
0.80357
0.811997
0.825146
0.775611
0.796435
0.833605
0.847621
0.838483
0.803195
0.816935
0.804671
0.816296
0.808988
0.802263
0.802279
0.80305
0.820894
0.801974
0.806621
0.844783
0.836058
0.752661
0.674666
0.811532
0.737346
0.802638
0.674295
0.806457
0.810145
0.806737
0.829518
0.838464
0.826169
0.825716
0.813107
0.806919
0.886937
0.827938
0.809133
0.781005
0.677381
0.813012
0.810904
0.778961
0.826484
0.826144
0.796189
0.804418
0.805883
0.699095
0.839096
0.804937
0.796641
0.786797
0.859907
0.812758
0.806729
0.806668
0.815541
0.814033
0.641977
0.804069
0.848407
0.826176
0.803088
0.648203
0.81851
0.826248
0.825986
0.843201
0.82615
0.806154
0.832736
0.810665
0.620925
0.811568
0.760407
0.80287
0.826004
0.735087
0.826878
0.850801
0.83513
0.689949
0.89553
0.791861
0.792703
0.801575
0.785433
0.812304
0.85475
0.812212
0.804743
0.82596
0.821121
0.789372
0.791881
0.825999
0.812735
0.83826
0.831879
0.83913
0.813638
0.805168
0.825871
0.863972
0.827192
0.822607
0.825872
0.641066
0.800022
0.83408
0.837928
0.872504
0.825622
0.822906
0.642314
0.822033
0.803324
0.825003
0.819602
0.855372
0.825762
0.814072
0.8867
0.776327
0.815876
0.825734
0.821201
0.808291
0.826351
0.682222
0.804033
0.857497
0.836926
0.814937
0.825078
0.825871
0.812373
0.723021
0.824135
0.803552
0.847561
0.829688
0.816346
0.840323
0.805941
0.823312
0.829095
0.813413
0.830464
0.767121
0.859207
0.830179
0.818437
0.825791
0.825514
0.827223
0.828506
0.825605
0.822666
0.849572
0.82985
0.803228
0.828846
0.836648
0.820659
0.817969
0.803271
0.803634
0.825848
0.830251
0.832954
0.825693
0.827883
0.803085
0.821949
0.825765
0.825512
0.804307
0.826681
0.825782
0.807472
0.825822
0.844755
0.804274
0.821519
0.826272
0.624304
0.826288
0.82947
0.826607
0.826595
0.832711
0.838304
0.827306
0.830087
0.722145
0.825867
0.803647
0.827408
0.823513
0.838487
0.832438
0.825076
0.839328
0.835401
0.823411
0.82228
0.824289
0.816454
0.825846
0.827395
0.82313
0.841769
0.825239
0.827465
0.803685
0.82591
0.825728
0.650255
0.679808
0.8176
0.832336
0.804693
0.832932
0.827642
0.845413
0.72771
0.826049
0.748847
0.827744
0.8224
0.825819
0.838581
0.825991
0.809407
0.825868
0.838973
0.84435
0.825352
0.73759
0.82317
0.82766
0.802367
0.803781
0.827169
0.86303
0.825412
0.825887
0.85738
0.83785
0.850876
0.663852
0.838968
0.826146
0.822886
0.828872
0.855446
0.829175
0.735929
0.802279
0.835185
0.803157
0.802326
0.8084
0.762808
0.825891
0.826331
0.750415
0.826297
0.830863
0.82574
0.826022
0.802011
0.829637
0.825914
0.828193
0.811481
0.819781
0.826516
0.686
0.830288
0.826107
0.825948
0.682874
0.719671
0.634381
0.826871
0.66138
0.85869
0.744032
0.846307
0.825087
0.753791
0.830563
0.827418
0.757922
0.810832
0.829674
0.798667
0.827984
0.8276
0.827532
0.825891
0.820181
0.805148
0.753133
0.840857
0.831036
0.828096
0.801505
0.818899
0.806191
0.827719
0.825771
0.859138
0.82909
0.651917
0.824937
0.830033
0.829938
0.785194
0.8192
0.809225
0.821993
0.850193
0.637754
0.813497
0.802303
0.827154
0.82901
0.829044
0.825128
0.829877
0.825507
0.826278
0.804606
0.825947
0.85441
0.825889
0.796532
0.823744
0.656227
0.721879
0.825858
0.828501
0.805023
0.833084
0.740322
0.803817
0.803677
0.831265
0.66879
0.82903
0.802439
0.82725
0.869909
0.791689
0.832774
0.829353
0.827479
0.826215
0.778618
0.803642
0.825882
0.906245
0.830709
0.828062
0.835686
0.822223
0.87359
0.721301
0.678559
0.856521
0.803914
0.672054