# vtk DataFile Version 1.0
unstructured grid
ascii
DATASET UNSTRUCTURED_GRID
points 7812 float
-1 0 0
-1 1 0
2 0 0
2 1 0
0 0 0
1 0 0
-1 1 0.1
-1 0 0.1
0 0 0.1
1 0 0.1
2 0 0.1
2 1 0.1
-0.99 0 0
-0.98 0 0
-0.97 0 0
-0.96 0 0
-0.95 0 0
-0.94 0 0
-0.93 0 0
-0.92 0 0
-0.91 0 0
-0.9 0 0
-0.89 0 0
-0.88 0 0
-0.87 0 0
-0.86 0 0
-0.85 0 0
-0.84 0 0
-0.83 0 0
-0.82 0 0
-0.81 0 0
-0.8 0 0
-0.79 0 0
-0.78 0 0
-0.77 0 0
-0.76 0 0
-0.75 0 0
-0.74 0 0
-0.73 0 0
-0.72 0 0
-0.71 0 0
-0.7 0 0
-0.69 0 0
-0.68 0 0
-0.67 0 0
-0.66 0 0
-0.65 0 0
-0.64 0 0
-0.63 0 0
-0.62 0 0
-0.61 0 0
-0.6 0 0
-0.59 0 0
-0.58 0 0
-0.57 0 0
-0.56 0 0
-0.55 0 0
-0.54 0 0
-0.53 0 0
-0.52 0 0
-0.51 0 0
-0.5 0 0
-0.49 0 0
-0.48 0 0
-0.47 0 0
-0.46 0 0
-0.45 0 0
-0.44 0 0
-0.43 0 0
-0.42 0 0
-0.41 0 0
-0.4 0 0
-0.39 0 0
-0.38 0 0
-0.37 0 0
-0.36 0 0
-0.35 0 0
-0.34 0 0
-0.33 0 0
-0.32 0 0
-0.31 0 0
-0.3 0 0
-0.29 0 0
-0.28 0 0
-0.27 0 0
-0.26 0 0
-0.25 0 0
-0.24 0 0
-0.23 0 0
-0.22 0 0
-0.21 0 0
-0.2 0 0
-0.19 0 0
-0.18 0 0
-0.17 0 0
-0.16 0 0
-0.15 0 0
-0.14 0 0
-0.13 0 0
-0.12 0 0
-0.11 0 0
-0.1 0 0
-0.09 0 0
-0.08 0 0
-0.07 0 0
-0.06 0 0
-0.05 0 0
-0.04 0 0
-0.03 0 0
-0.02 0 0
-0.01 0 0
1.01 0 0
1.02 0 0
1.03 0 0
1.04 0 0
1.05 0 0
1.06 0 0
1.07 0 0
1.08 0 0
1.09 0 0
1.1 0 0
1.11 0 0
1.12 0 0
1.13 0 0
1.14 0 0
1.15 0 0
1.16 0 0
1.17 0 0
1.18 0 0
1.19 0 0
1.2 0 0
1.21 0 0
1.22 0 0
1.23 0 0
1.24 0 0
1.25 0 0
1.26 0 0
1.27 0 0
1.28 0 0
1.29 0 0
1.3 0 0
1.31 0 0
1.32 0 0
1.33 0 0
1.34 0 0
1.35 0 0
1.36 0 0
1.37 0 0
1.38 0 0
1.39 0 0
1.4 0 0
1.41 0 0
1.42 0 0
1.43 0 0
1.44 0 0
1.45 0 0
1.46 0 0
1.47 0 0
1.48 0 0
1.49 0 0
1.5 0 0
1.51 0 0
1.52 0 0
1.53 0 0
1.54 0 0
1.55 0 0
1.56 0 0
1.57 0 0
1.58 0 0
1.59 0 0
1.6 0 0
1.61 0 0
1.62 0 0
1.63 0 0
1.64 0 0
1.65 0 0
1.66 0 0
1.67 0 0
1.68 0 0
1.69 0 0
1.7 0 0
1.71 0 0
1.72 0 0
1.73 0 0
1.74 0 0
1.75 0 0
1.76 0 0
1.77 0 0
1.78 0 0
1.79 0 0
1.8 0 0
1.81 0 0
1.82 0 0
1.83 0 0
1.84 0 0
1.85 0 0
1.86 0 0
1.87 0 0
1.88 0 0
1.89 0 0
1.9 0 0
1.91 0 0
1.92 0 0
1.93 0 0
1.94 0 0
1.95 0 0
1.96 0 0
1.97 0 0
1.98 0 0
1.99 0 0
2 0.010289 0
2 0.0215307 0
2 0.0338135 0
2 0.0472336 0
2 0.0618965 0
2 0.0779171 0
2 0.0954213 0
2 0.114546 0
2 0.135442 0
2 0.158274 0
2 0.183219 0
2 0.210474 0
2 0.240253 0
2 0.27279 0
2 0.308339 0
2 0.347181 0
2 0.389619 0
2 0.435987 0
2 0.486649 0
2 0.542002 0
2 0.602481 0
2 0.66856 0
2 0.740758 0
2 0.819642 0
2 0.90583 0
1.9 1 0
1.8 1 0
1.7 1 0
1.6 1 0
1.5 1 0
1.4 1 0
1.3 1 0
1.2 1 0
1.1 1 0
1 1 0
0.9 1 0
0.8 1 0
0.7 1 0
0.6 1 0
0.5 1 0
0.4 1 0
0.3 1 0
0.2 1 0
0.1 1 0
3.69793e-12 1 0
-0.1 1 0
-0.2 1 0
-0.3 1 0
-0.4 1 0
-0.5 1 0
-0.6 1 0
-0.7 1 0
-0.8 1 0
-0.9 1 0
-1 0.90583 0
-1 0.819642 0
-1 0.740758 0
-1 0.66856 0
-1 0.602481 0
-1 0.542002 0
-1 0.486649 0
-1 0.435987 0
-1 0.389619 0
-1 0.347181 0
-1 0.308339 0
-1 0.27279 0
-1 0.240253 0
-1 0.210474 0
-1 0.183219 0
-1 0.158274 0
-1 0.135442 0
-1 0.114546 0
-1 0.0954213 0
-1 0.0779171 0
-1 0.0618965 0
-1 0.0472336 0
-1 0.0338135 0
-1 0.0215307 0
-1 0.010289 0
0.00921362 0.00379763 0
0.0184561 0.00752451 0
0.0277268 0.0111804 0
0.0370253 0.0147652 0
0.0463511 0.0182786 0
0.0557034 0.0217203 0
0.0650819 0.0250903 0
0.074486 0.0283883 0
0.083915 0.0316141 0
0.0933685 0.0347675 0
0.102846 0.0378484 0
0.112347 0.0408565 0
0.12187 0.0437917 0
0.131416 0.0466538 0
0.140983 0.0494427 0
0.150572 0.0521581 0
0.160181 0.0547999 0
0.16981 0.0573681 0
0.179458 0.0598623 0
0.189125 0.0622825 0
0.198811 0.0646285 0
0.208514 0.0669001 0
0.218234 0.0690974 0
0.227971 0.07122 0
0.237724 0.073268 0
0.247493 0.0752411 0
0.257276 0.0771393 0
0.267073 0.0789625 0
0.276884 0.0807105 0
0.286708 0.0823832 0
0.296545 0.0839806 0
0.306394 0.0855025 0
0.316254 0.0869488 0
0.326125 0.0883196 0
0.336006 0.0896146 0
0.345896 0.0908339 0
0.355796 0.0919773 0
0.365704 0.0930447 0
0.375621 0.0940362 0
0.385544 0.0949517 0
0.395474 0.095791 0
0.40541 0.0965542 0
0.415352 0.0972412 0
0.425299 0.097852 0
0.43525 0.0983865 0
0.445205 0.0988447 0
0.455164 0.0992266 0
0.465125 0.0995321 0
0.475088 0.0997613 0
0.485052 0.0999141 0
0.495017 0.0999904 0
0.504983 0.0999904 0
0.514948 0.0999141 0
0.524912 0.0997613 0
0.534875 0.0995321 0
0.544836 0.0992266 0
0.554795 0.0988447 0
0.56475 0.0983865 0
0.574701 0.097852 0
0.584648 0.0972412 0
0.59459 0.0965542 0
0.604526 0.095791 0
0.614456 0.0949517 0
0.624379 0.0940362 0
0.634296 0.0930447 0
0.644204 0.0919773 0
0.654104 0.0908339 0
0.663994 0.0896146 0
0.673875 0.0883196 0
0.683746 0.0869488 0
0.693606 0.0855025 0
0.703455 0.0839806 0
0.713292 0.0823832 0
0.723116 0.0807105 0
0.732927 0.0789625 0
0.742724 0.0771393 0
0.752508 0.0752411 0
0.762276 0.073268 0
0.772029 0.07122 0
0.781766 0.0690974 0
0.791486 0.0669001 0
0.801189 0.0646285 0
0.810875 0.0622825 0
0.820542 0.0598623 0
0.83019 0.0573681 0
0.839819 0.0547999 0
0.849428 0.0521581 0
0.859017 0.0494427 0
0.868584 0.0466538 0
0.87813 0.0437917 0
0.887653 0.0408565 0
0.897154 0.0378484 0
0.906631 0.0347675 0
0.916085 0.0316141 0
0.925514 0.0283883 0
0.934918 0.0250903 0
0.944297 0.0217203 0
0.953649 0.0182786 0
0.962975 0.0147652 0
0.972273 0.0111804 0
0.981544 0.00752451 0
0.990786 0.00379763 0
-1 0.90583 0.1
-1 0.819642 0.1
-1 0.740758 0.1
-1 0.66856 0.1
-1 0.602481 0.1
-1 0.542002 0.1
-1 0.486649 0.1
-1 0.435987 0.1
-1 0.389619 0.1
-1 0.347181 0.1
-1 0.308339 0.1
-1 0.27279 0.1
-1 0.240253 0.1
-1 0.210474 0.1
-1 0.183219 0.1
-1 0.158274 0.1
-1 0.135442 0.1
-1 0.114546 0.1
-1 0.0954213 0.1
-1 0.0779171 0.1
-1 0.0618965 0.1
-1 0.0472336 0.1
-1 0.0338135 0.1
-1 0.0215307 0.1
-1 0.010289 0.1
-0.99 0 0.1
-0.98 0 0.1
-0.97 0 0.1
-0.96 0 0.1
-0.95 0 0.1
-0.94 0 0.1
-0.93 0 0.1
-0.92 0 0.1
-0.91 0 0.1
-0.9 0 0.1
-0.89 0 0.1
-0.88 0 0.1
-0.87 0 0.1
-0.86 0 0.1
-0.85 0 0.1
-0.84 0 0.1
-0.83 0 0.1
-0.82 0 0.1
-0.81 0 0.1
-0.8 0 0.1
-0.79 0 0.1
-0.78 0 0.1
-0.77 0 0.1
-0.76 0 0.1
-0.75 0 0.1
-0.74 0 0.1
-0.73 0 0.1
-0.72 0 0.1
-0.71 0 0.1
-0.7 0 0.1
-0.69 0 0.1
-0.68 0 0.1
-0.67 0 0.1
-0.66 0 0.1
-0.65 0 0.1
-0.64 0 0.1
-0.63 0 0.1
-0.62 0 0.1
-0.61 0 0.1
-0.6 0 0.1
-0.59 0 0.1
-0.58 0 0.1
-0.57 0 0.1
-0.56 0 0.1
-0.55 0 0.1
-0.54 0 0.1
-0.53 0 0.1
-0.52 0 0.1
-0.51 0 0.1
-0.5 0 0.1
-0.49 0 0.1
-0.48 0 0.1
-0.47 0 0.1
-0.46 0 0.1
-0.45 0 0.1
-0.44 0 0.1
-0.43 0 0.1
-0.42 0 0.1
-0.41 0 0.1
-0.4 0 0.1
-0.39 0 0.1
-0.38 0 0.1
-0.37 0 0.1
-0.36 0 0.1
-0.35 0 0.1
-0.34 0 0.1
-0.33 0 0.1
-0.32 0 0.1
-0.31 0 0.1
-0.3 0 0.1
-0.29 0 0.1
-0.28 0 0.1
-0.27 0 0.1
-0.26 0 0.1
-0.25 0 0.1
-0.24 0 0.1
-0.23 0 0.1
-0.22 0 0.1
-0.21 0 0.1
-0.2 0 0.1
-0.19 0 0.1
-0.18 0 0.1
-0.17 0 0.1
-0.16 0 0.1
-0.15 0 0.1
-0.14 0 0.1
-0.13 0 0.1
-0.12 0 0.1
-0.11 0 0.1
-0.1 0 0.1
-0.09 0 0.1
-0.08 0 0.1
-0.07 0 0.1
-0.06 0 0.1
-0.05 0 0.1
-0.04 0 0.1
-0.03 0 0.1
-0.02 0 0.1
-0.01 0 0.1
0.00921362 0.00379763 0.1
0.0184561 0.00752451 0.1
0.0277268 0.0111804 0.1
0.0370253 0.0147652 0.1
0.0463511 0.0182786 0.1
0.0557034 0.0217203 0.1
0.0650819 0.0250903 0.1
0.074486 0.0283883 0.1
0.083915 0.0316141 0.1
0.0933685 0.0347675 0.1
0.102846 0.0378484 0.1
0.112347 0.0408565 0.1
0.12187 0.0437917 0.1
0.131416 0.0466538 0.1
0.140983 0.0494427 0.1
0.150572 0.0521581 0.1
0.160181 0.0547999 0.1
0.16981 0.0573681 0.1
0.179458 0.0598623 0.1
0.189125 0.0622825 0.1
0.198811 0.0646285 0.1
0.208514 0.0669001 0.1
0.218234 0.0690974 0.1
0.227971 0.07122 0.1
0.237724 0.073268 0.1
0.247493 0.0752411 0.1
0.257276 0.0771393 0.1
0.267073 0.0789625 0.1
0.276884 0.0807105 0.1
0.286708 0.0823832 0.1
0.296545 0.0839806 0.1
0.306394 0.0855025 0.1
0.316254 0.0869488 0.1
0.326125 0.0883196 0.1
0.336006 0.0896146 0.1
0.345896 0.0908339 0.1
0.355796 0.0919773 0.1
0.365704 0.0930447 0.1
0.375621 0.0940362 0.1
0.385544 0.0949517 0.1
0.395474 0.095791 0.1
0.40541 0.0965542 0.1
0.415352 0.0972412 0.1
0.425299 0.097852 0.1
0.43525 0.0983865 0.1
0.445205 0.0988447 0.1
0.455164 0.0992266 0.1
0.465125 0.0995321 0.1
0.475088 0.0997613 0.1
0.485052 0.0999141 0.1
0.495017 0.0999904 0.1
0.504983 0.0999904 0.1
0.514948 0.0999141 0.1
0.524912 0.0997613 0.1
0.534875 0.0995321 0.1
0.544836 0.0992266 0.1
0.554795 0.0988447 0.1
0.56475 0.0983865 0.1
0.574701 0.097852 0.1
0.584648 0.0972412 0.1
0.59459 0.0965542 0.1
0.604526 0.095791 0.1
0.614456 0.0949517 0.1
0.624379 0.0940362 0.1
0.634296 0.0930447 0.1
0.644204 0.0919773 0.1
0.654104 0.0908339 0.1
0.663994 0.0896146 0.1
0.673875 0.0883196 0.1
0.683746 0.0869488 0.1
0.693606 0.0855025 0.1
0.703455 0.0839806 0.1
0.713292 0.0823832 0.1
0.723116 0.0807105 0.1
0.732927 0.0789625 0.1
0.742724 0.0771393 0.1
0.752508 0.0752411 0.1
0.762276 0.073268 0.1
0.772029 0.07122 0.1
0.781766 0.0690974 0.1
0.791486 0.0669001 0.1
0.801189 0.0646285 0.1
0.810875 0.0622825 0.1
0.820542 0.0598623 0.1
0.83019 0.0573681 0.1
0.839819 0.0547999 0.1
0.849428 0.0521581 0.1
0.859017 0.0494427 0.1
0.868584 0.0466538 0.1
0.87813 0.0437917 0.1
0.887653 0.0408565 0.1
0.897154 0.0378484 0.1
0.906631 0.0347675 0.1
0.916085 0.0316141 0.1
0.925514 0.0283883 0.1
0.934918 0.0250903 0.1
0.944297 0.0217203 0.1
0.953649 0.0182786 0.1
0.962975 0.0147652 0.1
0.972273 0.0111804 0.1
0.981544 0.00752451 0.1
0.990786 0.00379763 0.1
1.01 0 0.1
1.02 0 0.1
1.03 0 0.1
1.04 0 0.1
1.05 0 0.1
1.06 0 0.1
1.07 0 0.1
1.08 0 0.1
1.09 0 0.1
1.1 0 0.1
1.11 0 0.1
1.12 0 0.1
1.13 0 0.1
1.14 0 0.1
1.15 0 0.1
1.16 0 0.1
1.17 0 0.1
1.18 0 0.1
1.19 0 0.1
1.2 0 0.1
1.21 0 0.1
1.22 0 0.1
1.23 0 0.1
1.24 0 0.1
1.25 0 0.1
1.26 0 0.1
1.27 0 0.1
1.28 0 0.1
1.29 0 0.1
1.3 0 0.1
1.31 0 0.1
1.32 0 0.1
1.33 0 0.1
1.34 0 0.1
1.35 0 0.1
1.36 0 0.1
1.37 0 0.1
1.38 0 0.1
1.39 0 0.1
1.4 0 0.1
1.41 0 0.1
1.42 0 0.1
1.43 0 0.1
1.44 0 0.1
1.45 0 0.1
1.46 0 0.1
1.47 0 0.1
1.48 0 0.1
1.49 0 0.1
1.5 0 0.1
1.51 0 0.1
1.52 0 0.1
1.53 0 0.1
1.54 0 0.1
1.55 0 0.1
1.56 0 0.1
1.57 0 0.1
1.58 0 0.1
1.59 0 0.1
1.6 0 0.1
1.61 0 0.1
1.62 0 0.1
1.63 0 0.1
1.64 0 0.1
1.65 0 0.1
1.66 0 0.1
1.67 0 0.1
1.68 0 0.1
1.69 0 0.1
1.7 0 0.1
1.71 0 0.1
1.72 0 0.1
1.73 0 0.1
1.74 0 0.1
1.75 0 0.1
1.76 0 0.1
1.77 0 0.1
1.78 0 0.1
1.79 0 0.1
1.8 0 0.1
1.81 0 0.1
1.82 0 0.1
1.83 0 0.1
1.84 0 0.1
1.85 0 0.1
1.86 0 0.1
1.87 0 0.1
1.88 0 0.1
[...]
CELL_DATA 7425
SCALARS rho float
LOOKUP_TABLE default
0.592843
0.805275
0.821248
0.828965
0.800753
0.820796
0.822225
0.816106
0.81512
0.740673
0.86426
0.810604
0.815895
0.828822
0.804881
0.818941
0.799994
0.815351
0.803674
0.768303
0.832663
0.82246
0.726972
0.829507
0.804082
0.708157
0.832567
0.850312
0.800434
0.808755
0.820713
0.723736
0.803823
0.656755
0.530522
0.829474
0.803683
0.816087
0.811708
0.829366
0.720233
0.709687
0.791465
0.692199
0.593346
0.749606
0.801003
0.815835
0.675291
0.717764
0.746235
0.805394
0.812749
0.800327
0.705634
0.695694
0.824502
0.801009
0.740554
0.703777
0.715637
0.807931
0.815326
0.800566
0.799058
0.819372
0.589835
0.774975
0.689672
0.808711
0.80514
0.803317
0.883984
0.821538
0.811256
0.815177
0.805295
0.80069
0.815328
0.758006
0.817827
0.807514
0.812332
0.789511
0.836961
0.802239
0.579838
0.831261
0.550745
0.849534
0.695931
0.731868
0.847194
0.803376
0.819169
0.761157
0.837202
0.788676
0.827145
0.803739
0.809915
0.738333
0.803463
0.829604
0.601951
0.811608
0.825839
0.711066
0.816905
0.80047
0.818492
0.785388
0.790586
0.812727
0.791205
0.787023
0.832612
0.803215
0.69365
0.658645
0.805288
0.778897
0.815092
0.791014
0.859876
0.840506
0.807984
0.805674
0.664757
0.515466
0.816395
0.659722
0.525788
0.870228
0.676383
0.800845
0.811497
0.726251
0.587465
0.728818
0.727318
0.81063
0.811727
0.702657
0.804103
0.780299
0.570742
0.790526
0.782947
0.829233
0.818103
0.694969
0.804076
0.744343
0.70143
0.803467
0.811
0.831816
0.799057
0.660875
0.803039
0.693704
0.80226
0.831164
0.822113
0.802611
0.815187
0.786366
0.806599
0.801886
0.821397
0.80576
0.793145
0.80043
0.800852
0.743415
0.804879
0.76163
0.601822
0.693173
0.80092
0.794422
0.880413
0.833116
0.683803
0.824515
0.799945
0.82863
0.801072
0.815454
0.8148
0.8034
0.80727
0.70095
0.816916
0.820905
0.771143
0.798807
0.863263
0.808115
0.81269
0.813305
0.617317
0.84056
0.57853
0.542124
0.600254
0.612812
0.829267
0.879961
0.807791
0.798934
0.842344
0.815128
0.81846
0.822413
0.817093
0.641478
0.583606
0.815746
0.554126
0.600092
0.698621
0.81355
0.816015
0.815177
0.834454
0.815111
0.866578
0.705015
0.836283
0.718575
0.805506
0.804129
0.802399
0.716838
0.724644
0.623072
0.69816
0.864495
0.878176
0.808151
0.807976
0.800597
0.812488
0.721035
0.823234
0.801523
0.827181
0.795112
0.811958
0.719971
0.815003
0.825301
0.743291
0.535812
0.800899
0.736084
0.84445
0.816271
0.724946
0.817436
0.816761
0.850832
0.811529
0.805316
0.803429
0.827169
0.861676
0.806727
0.622729
0.849927
0.81348
0.805863
0.828991
0.838405
0.815066
0.822995
0.794044
0.816976
0.86907
0.850835
0.828455
0.838019
0.803153
0.818949
0.803304
0.760022
0.706389
0.586253
0.693723
0.804062
0.815036
0.817834
0.856781
0.78047
0.649144
0.828562
0.531928
0.775925
0.802131
0.649828
0.547603
0.642526
0.817093
0.815326
0.815126
0.814728
0.828205
0.775066
0.811778
0.802884
0.815109
0.841916
0.86968
0.834862
0.803355
0.6943
0.797443
0.835352
0.69467
0.800031
0.802414
0.86559
0.818893
0.597584
0.815441
0.743978
0.85432
0.735085
0.812153
0.908042
0.80119
0.796582
0.662542
0.639148
0.707413
0.782772
0.828015
0.816844
0.815716
0.885439
0.860076
0.800855
0.800543
0.826466
0.742256
0.80297
0.880072
0.801548
0.806109
0.801933
0.802778
0.815039
0.817583
0.818193
0.641665
0.831122
0.654619
0.809364
0.644731
0.804304
0.802541
0.841352
0.733077
0.816727
0.810389
0.81877
0.800626
0.802701
0.811715
0.704158
0.824899
0.815183
0.815001
0.800878
0.737229
0.565202
0.806685
0.813142
0.803356
0.815085
0.795672
0.540104
0.847333
0.815373
0.80405
0.787278
0.815349
0.805614
0.804026
0.818072
0.807778
0.824098
0.769975
0.813955
0.808101
0.568054
0.804405
0.643534
0.839744
0.63983
0.816582
0.878605
0.604351
0.818934
0.751166
0.804662
0.874016
0.544004
0.824681
0.823864
0.803684
0.82725
0.811932
0.825028
0.832035
0.826341
0.743056
0.828988
0.761736
0.811212
0.794722
0.795181
0.76062
0.805928
0.80222
0.816205
0.755465
0.805522
0.6091
0.618732
0.695291
0.814896
0.845308
0.865702
0.831197
0.799917
0.814833
0.805773
0.820051
0.683669
0.802047
0.744808
0.825192
0.816638
0.806851
0.706846
0.729935
0.541533
0.609638
0.802405
0.615264
0.794391
0.765795
0.771364
0.725124
0.764466
0.769658
0.811487
0.816846
0.821243
0.813602
0.715325
0.6149
0.840229
0.808743
0.783912
0.811248
0.80324
0.837841
0.723691
0.856271
0.764101
0.733084
0.766833
0.813391
0.552672
0.800111
0.84281
0.814314
0.8158
0.811734
0.800524
0.782502
0.836784
0.803279
0.844145
0.722618
0.703248
0.801185
0.796714
0.823619
0.712355
0.849053
0.801796
0.817875
0.799979
0.780005
0.809628
0.599193
0.680606
0.635907
0.814923
0.805144
0.82782
0.751175
0.810887
0.816724
0.822048
0.800293
0.733752
0.798778
0.815702
0.803359
0.709963
0.815627
0.820555
0.841149
0.812908
0.82686
0.863066
0.858129
0.746924
0.607861
0.839037
0.806756
0.844337
0.816196
0.823904
0.81557
0.815816
0.660148
0.806662
0.810968
0.815023
0.793382
0.811898
0.805985
0.862772
0.799989
0.814939
0.816642
0.872693
0.602127
0.815505
0.844112
0.883906
0.537994
0.818226
0.831086
0.796567
0.815126
0.796497
0.868412
0.813618
0.832737
0.814149
0.623437
0.802754
0.804395
0.697151
0.854004
0.759495
0.80225
0.815955
0.814826
0.861906
0.795779
0.83477
0.836038
0.786394
0.826155
0.843935
0.801033
0.811797
0.808258
0.805577
0.816559
0.802828
0.846308
0.76977
0.810071
0.803529
0.816571
0.72628
0.815079
0.820095
0.754505
0.815622
0.817844
0.828913
0.82663
0.801901
0.801569
0.851387
0.767997
0.826625
0.845317
0.804796
0.516934
0.81504
0.829734
0.853252
0.814509
0.803261
0.80926
0.85592
0.780435
0.802799
0.802303
0.815117
0.731971
0.803663
0.831004
0.809511
0.795449
0.795472
0.844367
0.806871
0.84625
0.802158
0.825804
0.81479
0.804445
0.842823
0.815008
0.684664
0.820505
0.807375
0.814862
0.906541
0.801645
0.817483
0.801267
0.801344
0.818042
0.801436
0.803657
0.783716
0.747326
0.808422
0.815086
0.760021
0.793341
0.824588
0.813319
0.823868
0.807121
0.827289
0.875972
0.832051
0.587236
0.711216
0.841963
0.819076
0.84525
0.816653
0.851079
0.808648
0.813729
0.800566
0.839614
0.861841
0.853811
0.734623
0.816077
0.823731
0.74334
0.818481
0.776568
0.801081
0.735915
0.817911
0.832266
0.82391
0.864209
0.816164
0.815385
0.812144
0.81655
0.836951
0.812523
0.799921
0.81053
0.74061
0.8135
0.774357
0.834085
0.814099
0.642285
0.778438
0.812354
0.800396
0.821518
0.803744
0.816583
0.819088
0.805405
0.821078
0.804387
0.807238
0.605781
0.848154
0.826648
0.828199
0.816226
0.80341
0.704474
0.808005
0.908228
0.815545
0.802413
0.814921
0.783076
0.808672
0.815253
0.822929
0.814991
0.815325
0.818082
0.687337
0.779803
0.766929
0.81478
0.806179
0.802396
0.625456
0.807077
0.803825
0.711679
0.83848
0.818988
0.803137
0.808655
0.800456
0.819009
0.815338
0.815379
0.81508
0.712078
0.832948
0.800678
0.808819
0.844149
0.818884
0.818114
0.801316
0.753858
0.82531
0.789332
0.823058
0.790045
0.807111
0.822608
0.738067
0.819004
0.661547
0.872802
0.707211
0.846145
0.802692
0.875824
0.794589
0.802349
0.822336
0.837535
0.839359
0.826892
0.821521
0.816551
0.802879
0.804547
0.808928
0.730794
0.8282
0.800335
0.718201
0.831796
0.692459
0.801368
0.862619
0.805892
0.708215
0.798339
0.816079
0.69996
0.785729
0.821071
0.833035
0.808912
0.613297
0.733303
0.812775
0.802725
0.815116
0.801814
0.739378
0.815976
0.81759
0.814677
0.777
0.803436
0.804792
0.80504
0.565745
0.814916
0.834998
0.588103
0.817073
0.817955
0.816634
0.820107
0.816369
0.826077
0.80046
0.795507
0.770886
0.823738
0.830518
0.825939
0.836609
0.767006
0.811037
0.729507
0.773009
0.810075
0.822725
0.815361
0.801187
0.860382
0.815115
0.802211
0.811657
0.817916
0.81709
0.837916
0.816449
0.814964
0.812269
0.815834
0.801567
0.82263
0.804064
0.824428
0.815531
0.583639
0.815571
0.835791
0.860135
0.839266
0.504948
0.818618
0.805989
0.508049
0.67531
0.654472
0.835509
0.809383
0.811945
0.814908
0.8033
0.818564
0.811814
0.542388
0.692637
0.818967
0.806886
0.817478
0.803709
0.810675
0.813037
0.82185
0.800559
0.699124
0.858113
0.803252
0.815078
0.815632
0.759595
0.500126
0.834252
0.814463
0.741267
0.802803
0.807754
0.60152
0.828608
0.816665
0.829194
0.820512
0.827457
0.804977
0.724915
0.646973
0.567406
0.826848
0.809968
0.783273
0.815123
0.781784
0.819657
0.873997
0.764132
0.823244
0.815482
0.827333
0.884211
0.816385
0.813905
0.803581
0.814162
0.696258
0.829669
0.800916
0.811656
0.802623
0.784892
0.85517
0.823642
0.841469
0.823159
0.757173
0.757128
0.804678
0.819798
0.803196
0.805493
0.802934
0.777747
0.8166
0.763457
0.822516
0.665303
0.815948
0.803272
0.734356
0.824398
0.81952
0.742036
0.801481
0.759229
0.883597
0.800924
0.81505
0.764702
0.801477
0.816244
0.804165
0.594896
0.821938
0.800127
0.803232
0.816476
0.827061
0.759192
0.806826
0.843339
0.82835
0.814883
0.837139
0.686002
0.702796
0.815116
0.746168
0.823834
0.773045
0.815039
0.802831
0.811813
0.753899
0.794616
0.766475
0.811854
0.803253
0.634654
0.779684
0.799492
0.850932
0.816331
0.830102
0.535922
0.825771
0.785928
0.85968
0.801163
0.818876
0.801647
0.787468
0.800019
0.827134
0.836792
0.822747
0.818879
0.703249
0.775815
0.817046
0.805625
0.812135
0.80412
0.70045
0.794376
0.804328
0.811969
0.828431
0.852086
0.833233
0.815528
0.800728
0.805305
0.80297
0.78057
0.616029
0.802176
0.734817
0.665522
0.824328
0.800046
0.777226
0.801178
0.756046
0.785912
0.813669
0.823389
0.804938
0.817828
0.818838
0.821838
0.815464
0.809911
0.714504
0.702147
0.644268
0.830714
0.870354
0.816588
0.842535
0.84889
0.864508
0.73966
0.81817
0.863838
0.811834
0.815091
0.817643
0.735664
0.814296
0.808077
0.807536
0.526747
0.81513
0.762661
0.815247
0.814166
0.803732
0.701193
0.81528
0.614955
0.826009
0.803331
0.823391
0.856155
0.803642
0.795801
0.822586
0.813579
0.806436
0.763669
0.521763
0.822529
0.80336
0.830483
0.827267
0.803991
0.807297
0.835634
0.723935
0.513516
0.886853
0.802271
0.817563
0.804553
0.706869
0.799917
0.801241
0.816976
0.740169
0.649894
0.883839
0.716955
0.837833
0.814036
0.834244
0.843826
0.794127
0.804974
0.815601
0.853651
0.740379
0.871399
0.816011
0.568163
0.803803
0.748159
0.853933
0.762657
0.80444
0.804159
0.80078
0.80215
0.810908
0.815111
0.85741
0.807267
0.802991
0.801476
0.801155
0.814453
0.818683
0.802773
0.814698
0.850285
0.8032
0.785138
0.802479
0.841132
0.730077
0.815666
0.815809
0.668707
0.715917
0.805915
0.824547
0.805048
0.522449
0.858399
0.815179
0.834491
0.805553
0.803474
0.801847
0.788051
0.591391
0.804634
0.81795
0.836903
0.822231
0.815126
0.800065
0.749842
0.801914
0.768391
0.788189
0.800577
0.79148
0.75111
0.801909
0.812674
0.812401
0.833338
0.850893
0.560717
0.843098
0.815062
0.821194
0.803026
0.823072
0.813294
0.895134
0.801616
0.86955
0.806011
0.762127
0.862902
0.802522
0.800468
0.825646
0.663814
0.648755
0.803586
0.804111
0.689382
0.657664
0.800123
0.825399
0.815176
0.824189
0.735899
0.818557
0.814959
0.827639
0.818549
0.812248
0.815083
0.756509
0.805149
0.81752
0.813548
0.679178
0.572021
0.815121
0.653282
0.724171
0.561038
0.842578
0.801287
0.538872
0.60528
0.828653
0.90846
0.81989
0.655774
0.816119
0.788109
0.80277
0.787189
0.822101
0.811799
0.788927
0.822642
0.802843
0.593336
0.819581
0.768661
0.817736
0.696045
0.823822
0.791372
0.815931
0.801341
0.666194
0.844473
0.807937
0.807943
0.506709
0.818638
0.801467
0.854154
0.708453
0.818882
0.598673
0.724397
0.802429
0.798239
0.73711
0.719112
0.712647
0.519533
0.612849
0.801332
0.52994
0.8242
0.54075
0.759055
0.677256
0.618073
0.551724
0.747456
0.803197
0.711278
0.822936
0.80173
0.803824
0.763026
0.890249
0.800351
0.826016
0.803705
0.814989
0.708554
0.808763
0.738856
0.823531
0.886652
0.834784
0.749981
0.824367
0.772357
0.880515
0.80442
0.760486
0.851739
0.778654
0.800149
0.806692
0.76008
0.74825
0.678192
0.805222
0.80315
0.8196
0.834811
0.615244
0.809301
0.54701
0.671691
0.627094
0.819895
0.822679
0.810996
0.804194
0.61954
0.873139
0.802823
0.803062
0.864397
0.814642
0.773306
0.814377
0.802573
0.819664
0.80324
0.719472
0.804323
0.664117
0.800205
0.805765
0.801985
0.642489
0.812986
0.811652
0.726111
0.819082
0.556525
0.582136
0.804395
0.699232
0.728158
0.577287
0.727125
0.815656
0.700602
0.774024
0.714075
0.814051
0.673438
0.763925
0.807213
0.81253
0.659628
0.802291
0.895673
0.797201
0.818608
0.594662
0.69685
0.802797
0.815122
0.81598
0.852579
0.814748
0.804575
0.803988
0.803528
0.716769
0.715381
0.620133
0.773593
0.546405
0.72183
0.81191
0.816326
0.807396
0.800581
0.581939
0.811033
0.803969
0.561523
0.552983
0.748581
0.803778
0.807861
0.555769
0.79901
0.575427
0.725894
0.612503
0.814479
0.80325
0.602091
0.612671
0.868692
0.810917
0.767209
0.721406
0.630362
0.65863
0.704233
0.817805
0.761576
0.765251
0.628221
0.756069
0.811247
0.817242
0.814646
0.817356
0.867888
0.757095
0.82063
0.803676
0.852247
0.815073
0.80296
0.815181
0.719911
0.81473
0.813805
0.816985
0.812999
0.817672
0.803433
0.81965
0.812263
0.811646
0.819008
0.800358
0.818354
0.820666
0.670709
0.820332
0.869224
0.819904
0.793421
0.649362
0.859516
0.820513
0.826423
0.80079
0.813418
0.757503
0.85357
0.580867
0.731433
0.810168
0.817535
0.804095
0.803546
0.833419
0.806129
0.806091
0.817159
0.782277
0.839798
0.843089
0.816738
0.667585
0.627668
0.817626
0.818393
0.790337
0.850694
0.848275
0.812238
0.815424
0.779579
0.816017
0.819569
0.816054
0.820498
0.814408
0.817683
0.852083
0.817821
0.816323
0.819328
0.819515
0.785633
0.815927
0.805288
0.805558
0.805741
0.8203
0.813664
0.790021
0.753654
0.814728
0.806538
0.810775
0.806645
0.858601
0.804372
0.815912
0.814841
0.806182
0.691815
0.804135
0.814895
0.81634
0.810646
0.814947
0.815352
0.815145
0.810464
0.865155
0.513707
0.814985
0.842788
0.814784
0.803342
0.809045
0.816911
0.840899
0.801656
0.802608
0.813872
0.69116
0.815009
0.809271
0.808677
0.814638
0.815017
0.81514
0.815428
0.523573
0.812625
0.721217
0.886429
0.822619
0.732155
0.684587
0.817248
0.804494
0.819847
0.649967
0.80232
0.815405
0.651368
0.801095
0.804502
0.816848
0.80759
0.857701
0.810127
0.611293
0.801799
0.775354
0.811573
0.889644
0.804785
0.815861
0.820295
0.833254
0.81546
0.824001
0.837574
0.638686
0.804246
0.659143
0.815757
0.815665
0.709045
0.81556
0.806543
0.710264
0.816537
0.706718
0.861978
0.78482
0.816257
0.815063
0.815465
0.672378
0.81568
0.636614
0.801169
0.79293
0.823869
0.817076
0.719106
0.766891
0.831457
0.81482
0.82247
0.823515
0.815492
0.82685
0.800655
0.557855
0.75447
0.761184
0.729731
0.838866
0.823811
0.835391
0.778348
0.80294
0.815165
0.815116
0.815114
0.775766
0.569227
0.803361
0.540261
0.809662
0.825716
0.800923
0.803959
0.814395
0.806355
0.784451
0.733441
0.815447
0.85998
0.815158
0.800442
0.735805
0.810757
0.789347
0.834759
0.51915
0.796373
0.807763
0.800117
0.696974
0.814946
0.812414
0.859096
0.574219
0.807676
0.803421
0.814861
0.621492
0.815193
0.803484
0.803582
0.803198
0.815289
0.815371
0.817899
0.81517
0.714458
0.804783
0.803353
0.815137
0.896655
0.815242
0.775828
0.842481
0.799432
0.803265
0.605846
0.815044
0.80351
0.827074
0.802621
0.86706
0.816309
0.855186
0.80157
0.822267
0.778818
0.564418
0.755331
0.796015
0.805792
0.81423
0.81578
0.561513
0.86256
0.859909
0.770759
0.758155
0.738165
0.813492
0.849969
0.815075
0.814629
0.815108
0.804495
0.725708
0.803698
0.800298
0.764178
0.825777
0.82457
0.86261
0.817467
0.815125
0.562313
0.809161
0.815086
0.80171
0.775649
0.81842
0.803225
0.814928
0.828358
0.798874
0.804487
0.802014
0.816735
0.840307
0.803563
0.800285
0.802813
0.76588
0.821532
0.572743
0.869091
0.803937
0.552075
0.804222
0.804594
0.820794
0.615707
0.610827
0.802574
0.804888
0.801968
0.861514
0.780575
0.816276
0.803129
0.868121
0.804947
0.804672
0.827472
0.817596
0.821451
0.822869
0.82195
0.868195
0.731529
0.853032
0.818941
0.65713
0.803475
0.803391
0.803853
0.822741
0.825029
0.804828
0.802155
0.801185
0.82425
0.804056
0.803877
0.800861
0.82591
0.804189
0.80255
0.806334
0.829271
0.801867
0.802541
0.825757
0.800667
0.817246
0.654786
0.827862
0.850792
0.80564
0.821246
0.803515
0.830166
0.838735
0.803572
0.823072
0.801416
0.808177
0.789975
0.802663
0.804035
0.806605
0.8067
0.805648
0.820228
0.816653
0.811624
0.832768
0.803401
0.802559
0.801053
0.789493
0.835053
0.803454
0.82098
0.817079
0.807809
0.806052
0.803074
0.840068
0.86701
0.800776
0.68187
0.801925
0.843309
0.818378
0.806412
0.804684
0.820524
0.845645
0.620738
0.830226
0.796222
0.852347
0.820415
0.812495
0.81404
0.809406
0.804176
0.813387
0.80922
0.59601
0.849049
0.795322
0.816131
0.855558
0.820958
0.764956
0.8094
0.816379
0.817197
0.803229
0.665105
0.810513
0.864011
0.804014
0.80154
0.777509
0.871913
0.801203
0.877725
0.808033
0.818917
0.822244
0.80357
0.804719
0.8147
0.817703
0.804742
0.815338
0.817954
0.881981
0.821543
0.809583
0.801427
0.829685
0.810793
0.840408
0.809708
0.807202
0.813441
0.81834
0.831102
0.815617
0.824008
0.833532
0.815458
0.70547
0.697733
0.815122
0.81948
0.805136
0.815141
0.52795
0.855709
0.800802
0.806476
0.815804
0.815463
0.804251
0.814519
0.801555
0.802074
0.809096
0.816132
0.759469
0.786167
0.824489
0.844379
0.835837
0.80141
0.806754
0.80353
0.813272
0.806547
0.80071
0.800877
0.801801
0.812176
0.798251
0.803994
0.836766
0.832769
0.733675
0.691548
0.807989
0.705477
0.800785
0.59074
0.804732
0.807679
0.804239
0.819881
0.835239
0.815893
0.814979
0.810604
0.804158
0.882164
0.818071
0.80612
0.773325
0.601259
0.810519
0.807863
0.770578
0.816334
0.815849
0.792005
0.801093
0.804311
0.646375
0.831549
0.803689
0.783604
0.780236
0.853615
0.810255
0.804111
0.803927
0.8114
0.811481
0.530876
0.80254
0.840698
0.815895
0.799044
0.595647
0.815517
0.816019
0.815107
0.835036
0.815881
0.804396
0.823482
0.806656
0.580858
0.809132
0.739941
0.799109
0.815636
0.72394
0.81681
0.847722
0.832471
0.667814
0.891425
0.786304
0.779508
0.797293
0.779941
0.809536
0.851763
0.80917
0.803327
0.81556
0.810794
0.783428
0.786632
0.81581
0.80958
0.83573
0.822786
0.836589
0.803036
0.800691
0.815158
0.857558
0.817962
0.819468
0.815386
0.611479
0.796008
0.825311
0.830416
0.866724
0.814755
0.819913
0.520995
0.811698
0.801643
0.814612
0.81611
0.848588
0.815136
0.811384
0.882104
0.766189
0.813197
0.815268
0.810925
0.80552
0.816159
0.659215
0.800869
0.850573
0.834371
0.81178
0.815278
0.815401
0.809838
0.704676
0.814243
0.801452
0.839787
0.820146
0.812952
0.832508
0.794541
0.813329
0.819502
0.810133
0.820955
0.747562
0.856515
0.820641
0.81508
0.815145
0.814809
0.817457
0.818859
0.814866
0.812598
0.842198
0.82028
0.801356
0.82609
0.828267
0.817319
0.815184
0.801494
0.802252
0.81515
0.820705
0.830261
0.814921
0.818178
0.801114
0.811801
0.814966
0.814882
0.802693
0.816564
0.815348
0.803652
0.814997
0.836885
0.800348
0.811303
0.822891
0.567042
0.816128
0.819862
0.817112
0.816768
0.823525
0.830103
0.817421
0.820522
0.704141
0.815163
0.802164
0.817451
0.820233
0.835959
0.823157
0.816737
0.830767
0.82644
0.812757
0.819513
0.820887
0.80601
0.815233
0.817438
0.820274
0.833451
0.814686
0.817524
0.80291
0.815073
0.815125
0.536687
0.634653
0.814687
0.823038
0.802737
0.823951
0.817724
0.842961
0.710673
0.815724
0.733454
0.818797
0.812199
0.815231
0.830571
0.815643
0.80626
0.815053
0.83123
0.841004
0.81484
0.721592
0.820043
0.817815
0.800976
0.803156
0.817163
0.856818
0.81474
0.815406
0.850684
0.830131
0.844196
0.58533
0.830479
0.815894
0.812752
0.819143
0.85239
0.819491
0.72069
0.800724
0.832583
0.801096
0.800851
0.806112
0.749788
0.815426
0.816232
0.728926
0.816229
0.828151
0.815326
0.815918
0.800457
0.82006
0.815114
0.824871
0.808973
0.809839
0.816714
0.693504
0.820749
0.815978
0.815109
0.645419
0.715935
0.603699
0.824072
0.549639
0.855745
0.729509
0.843879
0.81457
0.728043
0.822553
0.817633
0.744567
0.808335
0.820056
0.794593
0.818254
0.81768
0.81761
0.81511
0.809814
0.803856
0.739363
0.837663
0.821746
0.81835
0.800332
0.816124
0.803394
0.817816
0.815439
0.856419
0.819468
0.514505
0.815057
0.82047
0.820352
0.778811
0.816423
0.806978
0.819229
0.847086
0.601445
0.810344
0.800579
0.817164
0.819338
0.819397
0.814522
0.820289
0.815624
0.816374
0.803246
0.816057
0.847206
0.815807
0.792534
0.813443
0.626657
0.716989
0.815163
0.818744
0.803474
0.82387
0.73501
0.803246
0.80326
0.821841
0.696283
0.819326
0.800646
0.81726
0.866977
0.786151
0.823526
0.819692
0.824124
0.815967
0.770677
0.802731
0.815546
0.902721
0.827994
0.818214
0.83306
0.811653
0.87066
0.71712
0.691027
0.853966
0.802845
0.692939
0.851878
0.786697
0.832851