# vtk DataFile Version 1.0
unstructured grid
ascii
DATASET UNSTRUCTURED_GRID
points 7812 float
-1 0 0
-1 1 0
2 0 0
2 1 0
0 0 0
1 0 0
-1 1 0.1
-1 0 0.1
0 0 0.1
1 0 0.1
2 0 0.1
2 1 0.1
-0.99 0 0
-0.98 0 0
-0.97 0 0
-0.96 0 0
-0.95 0 0
-0.94 0 0
-0.93 0 0
-0.92 0 0
-0.91 0 0
-0.9 0 0
-0.89 0 0
-0.88 0 0
-0.87 0 0
-0.86 0 0
-0.85 0 0
-0.84 0 0
-0.83 0 0
-0.82 0 0
-0.81 0 0
-0.8 0 0
-0.79 0 0
-0.78 0 0
-0.77 0 0
-0.76 0 0
-0.75 0 0
-0.74 0 0
-0.73 0 0
-0.72 0 0
-0.71 0 0
-0.7 0 0
-0.69 0 0
-0.68 0 0
-0.67 0 0
-0.66 0 0
-0.65 0 0
-0.64 0 0
-0.63 0 0
-0.62 0 0
-0.61 0 0
-0.6 0 0
-0.59 0 0
-0.58 0 0
-0.57 0 0
-0.56 0 0
-0.55 0 0
-0.54 0 0
-0.53 0 0
-0.52 0 0
-0.51 0 0
-0.5 0 0
-0.49 0 0
-0.48 0 0
-0.47 0 0
-0.46 0 0
-0.45 0 0
-0.44 0 0
-0.43 0 0
-0.42 0 0
-0.41 0 0
-0.4 0 0
-0.39 0 0
-0.38 0 0
-0.37 0 0
-0.36 0 0
-0.35 0 0
-0.34 0 0
-0.33 0 0
-0.32 0 0
-0.31 0 0
-0.3 0 0
-0.29 0 0
-0.28 0 0
-0.27 0 0
-0.26 0 0
-0.25 0 0
-0.24 0 0
-0.23 0 0
-0.22 0 0
-0.21 0 0
-0.2 0 0
-0.19 0 0
-0.18 0 0
-0.17 0 0
-0.16 0 0
-0.15 0 0
-0.14 0 0
-0.13 0 0
-0.12 0 0
-0.11 0 0
-0.1 0 0
-0.09 0 0
-0.08 0 0
-0.07 0 0
-0.06 0 0
-0.05 0 0
-0.04 0 0
-0.03 0 0
-0.02 0 0
-0.01 0 0
1.01 0 0
1.02 0 0
1.03 0 0
1.04 0 0
1.05 0 0
1.06 0 0
1.07 0 0
1.08 0 0
1.09 0 0
1.1 0 0
1.11 0 0
1.12 0 0
1.13 0 0
1.14 0 0
1.15 0 0
1.16 0 0
1.17 0 0
1.18 0 0
1.19 0 0
1.2 0 0
1.21 0 0
1.22 0 0
1.23 0 0
1.24 0 0
1.25 0 0
1.26 0 0
1.27 0 0
1.28 0 0
1.29 0 0
1.3 0 0
1.31 0 0
1.32 0 0
1.33 0 0
1.34 0 0
1.35 0 0
1.36 0 0
1.37 0 0
1.38 0 0
1.39 0 0
1.4 0 0
1.41 0 0
1.42 0 0
1.43 0 0
1.44 0 0
1.45 0 0
1.46 0 0
1.47 0 0
1.48 0 0
1.49 0 0
1.5 0 0
1.51 0 0
1.52 0 0
1.53 0 0
1.54 0 0
1.55 0 0
1.56 0 0
1.57 0 0
1.58 0 0
1.59 0 0
1.6 0 0
1.61 0 0
1.62 0 0
1.63 0 0
1.64 0 0
1.65 0 0
1.66 0 0
1.67 0 0
1.68 0 0
1.69 0 0
1.7 0 0
1.71 0 0
1.72 0 0
1.73 0 0
1.74 0 0
1.75 0 0
1.76 0 0
1.77 0 0
1.78 0 0
1.79 0 0
1.8 0 0
1.81 0 0
1.82 0 0
1.83 0 0
1.84 0 0
1.85 0 0
1.86 0 0
1.87 0 0
1.88 0 0
1.89 0 0
1.9 0 0
1.91 0 0
1.92 0 0
1.93 0 0
1.94 0 0
1.95 0 0
1.96 0 0
1.97 0 0
1.98 0 0
1.99 0 0
2 0.010289 0
2 0.0215307 0
2 0.0338135 0
2 0.0472336 0
2 0.0618965 0
2 0.0779171 0
2 0.0954213 0
2 0.114546 0
2 0.135442 0
2 0.158274 0
2 0.183219 0
2 0.210474 0
2 0.240253 0
2 0.27279 0
2 0.308339 0
2 0.347181 0
2 0.389619 0
2 0.435987 0
2 0.486649 0
2 0.542002 0
2 0.602481 0
2 0.66856 0
2 0.740758 0
2 0.819642 0
2 0.90583 0
1.9 1 0
1.8 1 0
1.7 1 0
1.6 1 0
1.5 1 0
1.4 1 0
1.3 1 0
1.2 1 0
1.1 1 0
1 1 0
0.9 1 0
0.8 1 0
0.7 1 0
0.6 1 0
0.5 1 0
0.4 1 0
0.3 1 0
0.2 1 0
0.1 1 0
3.69793e-12 1 0
-0.1 1 0
-0.2 1 0
-0.3 1 0
-0.4 1 0
-0.5 1 0
-0.6 1 0
-0.7 1 0
-0.8 1 0
-0.9 1 0
-1 0.90583 0
-1 0.819642 0
-1 0.740758 0
-1 0.66856 0
-1 0.602481 0
-1 0.542002 0
-1 0.486649 0
-1 0.435987 0
-1 0.389619 0
-1 0.347181 0
-1 0.308339 0
-1 0.27279 0
-1 0.240253 0
-1 0.210474 0
-1 0.183219 0
-1 0.158274 0
-1 0.135442 0
-1 0.114546 0
-1 0.0954213 0
-1 0.0779171 0
-1 0.0618965 0
-1 0.0472336 0
-1 0.0338135 0
-1 0.0215307 0
-1 0.010289 0
0.00921362 0.00379763 0
0.0184561 0.00752451 0
0.0277268 0.0111804 0
0.0370253 0.0147652 0
0.0463511 0.0182786 0
0.0557034 0.0217203 0
0.0650819 0.0250903 0
0.074486 0.0283883 0
0.083915 0.0316141 0
0.0933685 0.0347675 0
0.102846 0.0378484 0
0.112347 0.0408565 0
0.12187 0.0437917 0
0.131416 0.0466538 0
0.140983 0.0494427 0
0.150572 0.0521581 0
0.160181 0.0547999 0
0.16981 0.0573681 0
0.179458 0.0598623 0
0.189125 0.0622825 0
0.198811 0.0646285 0
0.208514 0.0669001 0
0.218234 0.0690974 0
0.227971 0.07122 0
0.237724 0.073268 0
0.247493 0.0752411 0
0.257276 0.0771393 0
0.267073 0.0789625 0
0.276884 0.0807105 0
0.286708 0.0823832 0
0.296545 0.0839806 0
0.306394 0.0855025 0
0.316254 0.0869488 0
0.326125 0.0883196 0
0.336006 0.0896146 0
0.345896 0.0908339 0
0.355796 0.0919773 0
0.365704 0.0930447 0
0.375621 0.0940362 0
0.385544 0.0949517 0
0.395474 0.095791 0
0.40541 0.0965542 0
0.415352 0.0972412 0
0.425299 0.097852 0
0.43525 0.0983865 0
0.445205 0.0988447 0
0.455164 0.0992266 0
0.465125 0.0995321 0
0.475088 0.0997613 0
0.485052 0.0999141 0
0.495017 0.0999904 0
0.504983 0.0999904 0
0.514948 0.0999141 0
0.524912 0.0997613 0
0.534875 0.0995321 0
0.544836 0.0992266 0
0.554795 0.0988447 0
0.56475 0.0983865 0
0.574701 0.097852 0
0.584648 0.0972412 0
0.59459 0.0965542 0
0.604526 0.095791 0
0.614456 0.0949517 0
0.624379 0.0940362 0
0.634296 0.0930447 0
0.644204 0.0919773 0
0.654104 0.0908339 0
0.663994 0.0896146 0
0.673875 0.0883196 0
0.683746 0.0869488 0
0.693606 0.0855025 0
0.703455 0.0839806 0
0.713292 0.0823832 0
0.723116 0.0807105 0
0.732927 0.0789625 0
0.742724 0.0771393 0
0.752508 0.0752411 0
0.762276 0.073268 0
0.772029 0.07122 0
0.781766 0.0690974 0
0.791486 0.0669001 0
0.801189 0.0646285 0
0.810875 0.0622825 0
0.820542 0.0598623 0
0.83019 0.0573681 0
0.839819 0.0547999 0
0.849428 0.0521581 0
0.859017 0.0494427 0
0.868584 0.0466538 0
0.87813 0.0437917 0
0.887653 0.0408565 0
0.897154 0.0378484 0
0.906631 0.0347675 0
0.916085 0.0316141 0
0.925514 0.0283883 0
0.934918 0.0250903 0
0.944297 0.0217203 0
0.953649 0.0182786 0
0.962975 0.0147652 0
0.972273 0.0111804 0
0.981544 0.00752451 0
0.990786 0.00379763 0
-1 0.90583 0.1
-1 0.819642 0.1
-1 0.740758 0.1
-1 0.66856 0.1
-1 0.602481 0.1
-1 0.542002 0.1
-1 0.486649 0.1
-1 0.435987 0.1
-1 0.389619 0.1
-1 0.347181 0.1
-1 0.308339 0.1
-1 0.27279 0.1
-1 0.240253 0.1
-1 0.210474 0.1
-1 0.183219 0.1
-1 0.158274 0.1
-1 0.135442 0.1
-1 0.114546 0.1
-1 0.0954213 0.1
-1 0.0779171 0.1
-1 0.0618965 0.1
-1 0.0472336 0.1
-1 0.0338135 0.1
-1 0.0215307 0.1
-1 0.010289 0.1
-0.99 0 0.1
-0.98 0 0.1
-0.97 0 0.1
-0.96 0 0.1
-0.95 0 0.1
-0.94 0 0.1
-0.93 0 0.1
-0.92 0 0.1
-0.91 0 0.1
-0.9 0 0.1
-0.89 0 0.1
-0.88 0 0.1
-0.87 0 0.1
-0.86 0 0.1
-0.85 0 0.1
-0.84 0 0.1
-0.83 0 0.1
-0.82 0 0.1
-0.81 0 0.1
-0.8 0 0.1
-0.79 0 0.1
-0.78 0 0.1
-0.77 0 0.1
-0.76 0 0.1
-0.75 0 0.1
-0.74 0 0.1
-0.73 0 0.1
-0.72 0 0.1
-0.71 0 0.1
-0.7 0 0.1
-0.69 0 0.1
-0.68 0 0.1
-0.67 0 0.1
-0.66 0 0.1
-0.65 0 0.1
-0.64 0 0.1
-0.63 0 0.1
-0.62 0 0.1
-0.61 0 0.1
-0.6 0 0.1
-0.59 0 0.1
-0.58 0 0.1
-0.57 0 0.1
-0.56 0 0.1
-0.55 0 0.1
-0.54 0 0.1
-0.53 0 0.1
-0.52 0 0.1
-0.51 0 0.1
-0.5 0 0.1
-0.49 0 0.1
-0.48 0 0.1
-0.47 0 0.1
-0.46 0 0.1
-0.45 0 0.1
-0.44 0 0.1
-0.43 0 0.1
-0.42 0 0.1
-0.41 0 0.1
-0.4 0 0.1
-0.39 0 0.1
-0.38 0 0.1
-0.37 0 0.1
-0.36 0 0.1
-0.35 0 0.1
-0.34 0 0.1
-0.33 0 0.1
-0.32 0 0.1
-0.31 0 0.1
-0.3 0 0.1
-0.29 0 0.1
-0.28 0 0.1
-0.27 0 0.1
-0.26 0 0.1
-0.25 0 0.1
-0.24 0 0.1
-0.23 0 0.1
-0.22 0 0.1
-0.21 0 0.1
-0.2 0 0.1
-0.19 0 0.1
-0.18 0 0.1
-0.17 0 0.1
-0.16 0 0.1
-0.15 0 0.1
-0.14 0 0.1
-0.13 0 0.1
-0.12 0 0.1
-0.11 0 0.1
-0.1 0 0.1
-0.09 0 0.1
-0.08 0 0.1
-0.07 0 0.1
-0.06 0 0.1
-0.05 0 0.1
-0.04 0 0.1
-0.03 0 0.1
-0.02 0 0.1
-0.01 0 0.1
0.00921362 0.00379763 0.1
0.0184561 0.00752451 0.1
0.0277268 0.0111804 0.1
0.0370253 0.0147652 0.1
0.0463511 0.0182786 0.1
0.0557034 0.0217203 0.1
0.0650819 0.0250903 0.1
0.074486 0.0283883 0.1
0.083915 0.0316141 0.1
0.0933685 0.0347675 0.1
0.102846 0.0378484 0.1
0.112347 0.0408565 0.1
0.12187 0.0437917 0.1
0.131416 0.0466538 0.1
0.140983 0.0494427 0.1
0.150572 0.0521581 0.1
0.160181 0.0547999 0.1
0.16981 0.0573681 0.1
0.179458 0.0598623 0.1
0.189125 0.0622825 0.1
0.198811 0.0646285 0.1
0.208514 0.0669001 0.1
0.218234 0.0690974 0.1
0.227971 0.07122 0.1
0.237724 0.073268 0.1
0.247493 0.0752411 0.1
0.257276 0.0771393 0.1
0.267073 0.0789625 0.1
0.276884 0.0807105 0.1
0.286708 0.0823832 0.1
0.296545 0.0839806 0.1
0.306394 0.0855025 0.1
0.316254 0.0869488 0.1
0.326125 0.0883196 0.1
0.336006 0.0896146 0.1
0.345896 0.0908339 0.1
0.355796 0.0919773 0.1
0.365704 0.0930447 0.1
0.375621 0.0940362 0.1
0.385544 0.0949517 0.1
0.395474 0.095791 0.1
0.40541 0.0965542 0.1
0.415352 0.0972412 0.1
0.425299 0.097852 0.1
0.43525 0.0983865 0.1
0.445205 0.0988447 0.1
0.455164 0.0992266 0.1
0.465125 0.0995321 0.1
0.475088 0.0997613 0.1
0.485052 0.0999141 0.1
0.495017 0.0999904 0.1
0.504983 0.0999904 0.1
0.514948 0.0999141 0.1
0.524912 0.0997613 0.1
0.534875 0.0995321 0.1
0.544836 0.0992266 0.1
0.554795 0.0988447 0.1
0.56475 0.0983865 0.1
0.574701 0.097852 0.1
0.584648 0.0972412 0.1
0.59459 0.0965542 0.1
0.604526 0.095791 0.1
0.614456 0.0949517 0.1
0.624379 0.0940362 0.1
0.634296 0.0930447 0.1
0.644204 0.0919773 0.1
0.654104 0.0908339 0.1
0.663994 0.0896146 0.1
0.673875 0.0883196 0.1
0.683746 0.0869488 0.1
0.693606 0.0855025 0.1
0.703455 0.0839806 0.1
0.713292 0.0823832 0.1
0.723116 0.0807105 0.1
0.732927 0.0789625 0.1
0.742724 0.0771393 0.1
0.752508 0.0752411 0.1
0.762276 0.073268 0.1
0.772029 0.07122 0.1
0.781766 0.0690974 0.1
0.791486 0.0669001 0.1
0.801189 0.0646285 0.1
0.810875 0.0622825 0.1
0.820542 0.0598623 0.1
0.83019 0.0573681 0.1
0.839819 0.0547999 0.1
0.849428 0.0521581 0.1
0.859017 0.0494427 0.1
0.868584 0.0466538 0.1
0.87813 0.0437917 0.1
0.887653 0.0408565 0.1
0.897154 0.0378484 0.1
0.906631 0.0347675 0.1
0.916085 0.0316141 0.1
0.925514 0.0283883 0.1
0.934918 0.0250903 0.1
0.944297 0.0217203 0.1
0.953649 0.0182786 0.1
0.962975 0.0147652 0.1
0.972273 0.0111804 0.1
0.981544 0.00752451 0.1
0.990786 0.00379763 0.1
1.01 0 0.1
1.02 0 0.1
1.03 0 0.1
1.04 0 0.1
1.05 0 0.1
1.06 0 0.1
1.07 0 0.1
1.08 0 0.1
1.09 0 0.1
1.1 0 0.1
1.11 0 0.1
1.12 0 0.1
1.13 0 0.1
1.14 0 0.1
1.15 0 0.1
1.16 0 0.1
1.17 0 0.1
1.18 0 0.1
1.19 0 0.1
1.2 0 0.1
1.21 0 0.1
1.22 0 0.1
1.23 0 0.1
1.24 0 0.1
1.25 0 0.1
1.26 0 0.1
1.27 0 0.1
1.28 0 0.1
1.29 0 0.1
1.3 0 0.1
1.31 0 0.1
1.32 0 0.1
1.33 0 0.1
1.34 0 0.1
1.35 0 0.1
1.36 0 0.1
1.37 0 0.1
1.38 0 0.1
1.39 0 0.1
1.4 0 0.1
1.41 0 0.1
1.42 0 0.1
1.43 0 0.1
1.44 0 0.1
1.45 0 0.1
1.46 0 0.1
1.47 0 0.1
1.48 0 0.1
1.49 0 0.1
1.5 0 0.1
1.51 0 0.1
1.52 0 0.1
1.53 0 0.1
1.54 0 0.1
1.55 0 0.1
1.56 0 0.1
1.57 0 0.1
1.58 0 0.1
1.59 0 0.1
1.6 0 0.1
1.61 0 0.1
1.62 0 0.1
1.63 0 0.1
1.64 0 0.1
1.65 0 0.1
1.66 0 0.1
1.67 0 0.1
1.68 0 0.1
1.69 0 0.1
1.7 0 0.1
1.71 0 0.1
1.72 0 0.1
1.73 0 0.1
1.74 0 0.1
1.75 0 0.1
1.76 0 0.1
1.77 0 0.1
1.78 0 0.1
1.79 0 0.1
1.8 0 0.1
1.81 0 0.1
1.82 0 0.1
1.83 0 0.1
1.84 0 0.1
1.85 0 0.1
1.86 0 0.1
1.87 0 0.1
1.88 0 0.1
[...]
CELL_DATA 7425
SCALARS rho float
LOOKUP_TABLE default
0.84663
0.798182
0.999844
0.998248
0.799836
0.999362
0.985232
0.99999
0.999993
0.935421
0.973695
0.798668
0.999991
0.998195
0.798211
0.999949
0.802945
0.999992
0.799475
0.799617
0.998048
0.801204
0.930235
0.998742
0.798909
0.869656
0.997208
0.807473
0.798882
0.798451
0.986174
0.806605
0.799328
0.86401
0.819678
0.998755
0.79935
0.99999
0.798838
0.995368
0.886207
0.810978
0.952708
0.807507
0.836481
0.802887
0.982459
0.999991
0.813305
0.804129
0.803817
0.798065
0.800577
0.801454
0.806174
0.809764
0.999566
0.802705
0.93662
0.902982
0.844768
0.797953
0.999992
0.801472
0.799858
0.999916
0.847891
0.945214
0.809135
0.798445
0.798186
0.801894
0.978042
0.801016
0.803722
0.999993
0.798139
0.799396
0.999992
0.804059
0.999975
0.797915
0.999932
0.804391
0.977958
0.798963
0.849458
0.993996
0.827446
0.991377
0.809243
0.931644
0.807221
0.800165
0.999921
0.938496
0.803786
0.795051
0.999197
0.798255
0.998396
0.803692
0.799603
0.995927
0.854908
0.79885
0.997561
0.887655
0.999986
0.800526
0.999898
0.804128
0.804454
0.798955
0.953194
0.794956
0.996958
0.802212
0.806229
0.812932
0.798038
0.947109
0.999993
0.796455
0.98989
0.804382
0.798096
0.96391
0.875665
0.818277
0.999978
0.861014
0.820464
0.809032
0.812091
0.799692
0.800274
0.908247
0.851079
0.808243
0.894444
0.798913
0.999939
0.806336
0.798326
0.803949
0.847116
0.980708
0.804297
0.998856
0.980975
0.810451
0.798252
0.803708
0.804936
0.799072
0.798729
0.998299
0.960875
0.835226
0.799618
0.807938
0.798906
0.998412
0.99973
0.802412
0.999993
0.949516
0.797474
0.799013
0.999834
0.798296
0.984376
0.800638
0.802797
0.806898
0.798204
0.938986
0.833884
0.809242
0.800143
0.971187
0.978549
0.99351
0.811179
0.999566
0.80204
0.802432
0.800086
0.999992
0.999993
0.80004
0.797578
0.804701
0.999984
0.999456
0.798856
0.975433
0.807655
0.798169
0.799194
0.999986
0.862029
0.804436
0.848909
0.82151
0.855362
0.824539
0.80248
0.980339
0.798013
0.800322
0.968905
0.999993
0.999881
0.999709
0.999981
0.884822
0.815288
0.999992
0.826584
0.833675
0.806046
0.99962
0.999983
0.999993
0.996562
0.999993
0.807848
0.806922
0.803564
0.851608
0.797181
0.798951
0.801457
0.904042
0.808591
0.874783
0.808843
0.988755
0.809574
0.998926
0.798092
0.984779
0.799252
0.810321
0.999701
0.79897
0.998619
0.795547
0.99996
0.80431
0.999993
0.999444
0.813802
0.829797
0.801912
0.803518
0.805114
0.999978
0.806551
0.999967
0.999987
0.974426
0.999863
0.798369
0.800252
0.999185
0.989427
0.798424
0.876191
0.990825
0.799992
0.798028
0.998464
0.982438
0.999991
0.998795
0.796665
0.999986
0.808106
0.971015
0.802333
0.996553
0.79956
0.999949
0.801831
0.804039
0.870359
0.852381
0.806698
0.98971
0.999993
0.999975
0.806614
0.797883
0.878383
0.998943
0.819985
0.949047
0.799023
0.878776
0.811871
0.883021
0.999984
0.999992
0.999993
0.999977
0.999013
0.803845
0.798763
0.798646
0.999993
0.995295
0.808991
0.996189
0.799064
0.808906
0.962275
0.977777
0.89957
0.801976
0.802007
0.984886
0.999953
0.861977
0.999992
0.814592
0.806305
0.907511
0.999923
0.979
0.799325
0.804575
0.877578
0.872833
0.806388
0.970079
0.998633
0.999984
0.999992
0.810039
0.807229
0.799754
0.958111
0.8024
0.91327
0.798415
0.985146
0.802369
0.798445
0.798975
0.801971
0.999991
0.999978
0.999958
0.85278
0.80272
0.832212
0.804859
0.851373
0.987985
0.802047
0.804945
0.889453
0.801943
0.998602
0.999937
0.801878
0.802329
0.803914
0.827937
0.802148
0.999993
0.999991
0.802049
0.805394
0.843788
0.797789
0.999983
0.800404
0.999993
0.804524
0.812565
0.80527
0.999992
0.799015
0.950536
0.999992
0.798169
0.79835
0.999971
0.798007
0.99948
0.796307
0.968271
0.798161
0.84271
0.798231
0.882978
0.971322
0.872844
0.999956
0.985728
0.826732
0.800505
0.928543
0.797646
0.974936
0.821852
0.999235
0.999624
0.799118
0.999154
0.799074
0.999475
0.998183
0.998746
0.809691
0.998838
0.804139
0.798991
0.795808
0.958419
0.932314
0.79807
0.802629
0.999272
0.929239
0.798176
0.857086
0.862199
0.853616
0.999991
0.992154
0.988397
0.994806
0.801768
0.999993
0.798162
0.996652
0.898856
0.799385
0.803557
0.964926
0.999889
0.798621
0.807137
0.911584
0.828163
0.869586
0.798873
0.871083
0.976542
0.803828
0.795718
0.806227
0.935304
0.942332
0.999901
0.999987
0.999836
0.999987
0.877521
0.824636
0.994026
0.997772
0.796796
0.79939
0.79911
0.996656
0.832057
0.990928
0.803674
0.83121
0.942171
0.999698
0.828727
0.801762
0.99504
0.799639
0.999992
0.999876
0.799972
0.970646
0.981974
0.800657
0.99479
0.807398
0.805597
0.802804
0.961892
0.999492
0.887893
0.993178
0.798666
0.999939
0.802809
0.797406
0.799002
0.861312
0.897403
0.876627
0.999974
0.959241
0.998375
0.938517
0.798553
0.999988
0.99971
0.800871
0.891043
0.991162
0.800257
0.800716
0.824762
0.999992
0.999318
0.804616
0.999981
0.999232
0.973199
0.982419
0.920087
0.864284
0.972596
0.798241
0.96975
0.99999
0.801489
0.999992
0.999992
0.812775
0.798621
0.994918
0.999993
0.954046
0.963964
0.798283
0.808114
0.801653
0.999993
0.999986
0.986582
0.862459
0.999992
0.804905
0.979682
0.82926
0.999957
0.802776
0.796101
0.801801
0.95825
0.986839
0.981981
0.998031
0.799974
0.868812
0.800823
0.798626
0.854315
0.972163
0.804283
0.798061
0.999988
0.999992
0.807259
0.796671
0.986787
0.997063
0.97541
0.801902
0.804765
0.799671
0.799356
0.798681
0.798063
0.99912
0.801863
0.991144
0.803938
0.803498
0.79932
0.98051
0.902151
0.999993
0.999908
0.939768
0.999992
0.993233
0.802541
0.998906
0.799136
0.800824
0.970886
0.804243
0.80232
0.992087
0.797748
0.818522
0.999993
0.99875
0.971326
0.999755
0.802039
0.804756
0.982237
0.804301
0.798897
0.799147
0.999993
0.831638
0.798487
0.802734
0.799189
0.795688
0.98842
0.994439
0.79783
0.972974
0.802675
0.999395
0.999982
0.798664
0.969348
0.999992
0.865569
0.999891
0.797836
0.999983
0.979025
0.801262
0.996867
0.803128
0.801214
0.999965
0.800944
0.799354
0.80384
0.803924
0.998921
0.999993
0.933912
0.982154
0.999194
0.799117
0.999614
0.798215
0.999136
0.975617
0.998169
0.823606
0.9211
0.995194
0.999941
0.990891
0.999961
0.986939
0.798753
0.970293
0.801153
0.993935
0.989026
0.991429
0.907407
0.999991
0.998702
0.804615
0.800734
0.803993
0.803051
0.911754
0.999967
0.998179
0.801778
0.808305
0.999982
0.999992
0.99978
0.999968
0.98881
0.798941
0.803091
0.798399
0.914355
0.999988
0.804275
0.992832
0.799825
0.885094
0.798515
0.799373
0.80178
0.999842
0.798265
0.999971
0.999942
0.79817
0.999689
0.798278
0.798589
0.831412
0.993545
0.998968
0.999024
0.800221
0.799303
0.911636
0.799007
0.980681
0.99997
0.798425
0.999985
0.796321
0.798874
0.999969
0.999721
0.799515
0.999992
0.999971
0.808277
0.952876
0.941764
0.999991
0.798165
0.798451
0.867026
0.798551
0.798269
0.891697
0.805773
0.999932
0.798772
0.798654
0.803487
0.999836
0.982637
0.999992
0.999993
0.920519
0.991932
0.796248
0.798894
0.804932
0.80069
0.999934
0.800118
0.80388
0.997392
0.972563
0.999548
0.79601
0.798658
0.999763
0.805229
0.997892
0.825546
0.986405
0.905052
0.994016
0.995099
0.979999
0.804557
0.800433
0.999782
0.805591
0.804318
0.996416
0.999836
0.999863
0.988943
0.7971
0.798402
0.840292
0.805162
0.799916
0.803893
0.991721
0.808915
0.799009
0.807268
0.798076
0.813019
0.798642
0.999991
0.805978
0.803658
0.99973
0.986336
0.99929
0.814355
0.824774
0.799987
0.798334
0.999993
0.799352
0.926473
0.999981
0.999978
0.999992
0.948326
0.800277
0.798378
0.798346
0.84408
0.999993
0.803419
0.830741
0.999984
0.999973
0.999986
0.999907
0.999985
0.999143
0.80001
0.799835
0.803874
0.801361
0.802593
0.801758
0.806547
0.797312
0.99984
0.872344
0.803791
0.798974
0.999747
0.999992
0.800664
0.807755
0.999993
0.994022
0.999908
0.999919
0.999981
0.996529
0.999988
0.999992
0.79883
0.999991
0.798694
0.999576
0.798858
0.999589
0.999992
0.831974
0.999992
0.997243
0.806928
0.805074
0.813552
0.999945
0.969606
0.817325
0.853911
0.827754
0.991042
0.972094
0.798727
0.999991
0.802523
0.999954
0.799018
0.82803
0.857981
0.800391
0.797974
0.999962
0.799525
0.798612
0.999979
0.99911
0.803315
0.846852
0.807916
0.802382
0.799482
0.999988
0.94401
0.812967
0.997585
0.799593
0.804707
0.802771
0.798969
0.826175
0.805273
0.999946
0.998833
0.999891
0.80245
0.798264
0.833434
0.879965
0.84252
0.999243
0.799167
0.804258
0.999993
0.959625
0.999928
0.97621
0.945237
0.999698
0.999966
0.998718
0.984526
0.999983
0.999979
0.796873
0.799282
0.870943
0.99872
0.801792
0.799602
0.800905
0.798804
0.991372
0.999423
0.971576
0.999691
0.804527
0.802048
0.798253
0.999576
0.801775
0.797923
0.796674
0.954781
0.999974
0.799232
0.801446
0.899154
0.999985
0.796767
0.805135
0.96421
0.996517
0.935318
0.802528
0.932069
0.809805
0.801735
0.999993
0.935689
0.798848
0.999989
0.798598
0.8538
0.801132
0.95894
0.995404
0.999988
0.997311
0.799004
0.79844
0.804763
0.802485
0.799603
0.9968
0.807995
0.912672
0.999993
0.935321
0.999645
0.947904
0.999993
0.800913
0.977047
0.935622
0.799098
0.937404
0.999759
0.802364
0.875878
0.804123
0.80108
0.80588
0.999989
0.998643
0.822677
0.802045
0.804158
0.98981
0.800244
0.800458
0.798807
0.953517
0.802434
0.996492
0.971862
0.801272
0.999821
0.805055
0.947533
0.998781
0.797964
0.999973
0.798313
0.807238
0.956182
0.798332
0.799407
0.805697
0.971581
0.997922
0.999992
0.800092
0.798194
0.798841
0.794859
0.864222
0.993017
0.903288
0.876411
0.998226
0.803409
0.803773
0.799977
0.9388
0.799308
0.999991
0.805555
0.981211
0.99991
0.993601
0.964192
0.999992
0.976234
0.923408
0.908908
0.878813
0.998506
0.986073
0.962885
0.804614
0.990542
0.974091
0.821814
0.997092
0.984512
0.994405
0.999993
0.990397
0.908949
0.999742
0.798781
0.798597
0.822364
0.999993
0.799129
0.999992
0.800293
0.799628
0.805356
0.999992
0.863988
0.801823
0.798482
0.964293
0.990918
0.799563
0.796364
0.999744
0.999938
0.79815
0.799135
0.817731
0.999539
0.797207
0.80299
0.998896
0.996382
0.797996
0.988357
0.89874
0.814699
0.982607
0.983421
0.999979
0.797969
0.805479
0.802555
0.7997
0.999985
0.903352
0.885118
0.976547
0.905667
0.996482
0.999976
0.997518
0.99397
0.984755
0.798283
0.999988
0.971791
0.933482
0.975878
0.999991
0.841071
0.798241
0.804765
0.991459
0.935712
0.798083
0.798675
0.801198
0.801494
0.99983
0.999993
0.80693
0.798491
0.802794
0.802498
0.800303
0.999992
0.999957
0.802878
0.999993
0.99282
0.802718
0.950641
0.802994
0.804438
0.87296
0.999992
0.999986
0.811917
0.907519
0.797545
0.998469
0.798385
0.819854
0.806816
0.999965
0.803445
0.798076
0.80043
0.80325
0.961736
0.859355
0.79704
0.999973
0.804729
0.999794
0.999993
0.992943
0.806795
0.802247
0.948181
0.79686
0.800865
0.798245
0.804097
0.799461
0.805203
0.999915
0.983046
0.805766
0.832795
0.99505
0.999993
0.800903
0.798663
0.801444
0.999991
0.982068
0.956318
0.808223
0.797332
0.936048
0.97305
0.798055
0.801248
0.997947
0.892164
0.887275
0.799726
0.798898
0.808898
0.887261
0.80205
0.999148
0.999993
0.999592
0.804836
0.985283
0.999992
0.999089
0.997721
0.798866
0.999993
0.93709
0.798238
0.999939
0.999991
0.907647
0.839685
0.999993
0.882455
0.928729
0.837584
0.99433
0.799913
0.818853
0.861271
0.975099
0.981303
0.999882
0.889536
0.999986
0.953988
0.79876
0.804288
0.801489
0.996652
0.797353
0.999011
0.993271
0.84709
0.999895
0.93977
0.999878
0.805462
0.999507
0.96466
0.999987
0.799283
0.889612
0.975745
0.965226
0.79865
0.814889
0.999948
0.800043
0.806247
0.804916
0.999946
0.821516
0.860556
0.799094
0.965546
0.89412
0.894242
0.806155
0.815754
0.817504
0.799101
0.817235
0.999601
0.814715
0.940158
0.854585
0.819461
0.820685
0.931628
0.801948
0.806832
0.999724
0.801144
0.798453
0.94076
0.983288
0.800799
0.999103
0.799268
0.999993
0.913356
0.798686
0.927084
0.999662
0.983754
0.990989
0.92554
0.999347
0.940996
0.977088
0.798591
0.942817
0.992266
0.947569
0.801927
0.798519
0.939183
0.918028
0.812927
0.798128
0.801648
0.999522
0.996635
0.872834
0.798962
0.824697
0.900927
0.827416
0.801005
0.999642
0.999781
0.798374
0.869576
0.975283
0.803037
0.802966
0.988575
0.999993
0.79614
0.999992
0.803097
0.999925
0.802881
0.918237
0.798287
0.834587
0.802464
0.988982
0.803355
0.880612
0.984171
0.969622
0.806728
0.800776
0.831443
0.848044
0.797587
0.907541
0.92879
0.844683
0.89956
0.999992
0.808111
0.797626
0.805548
0.961805
0.897752
0.939759
0.798215
0.999733
0.857042
0.80273
0.982111
0.798181
0.999959
0.828522
0.897328
0.99448
0.999993
0.999986
0.983322
0.999991
0.797028
0.797345
0.799892
0.90092
0.805024
0.859825
0.948307
0.818031
0.805521
0.999834
0.999971
0.798508
0.800216
0.813381
0.999715
0.798579
0.830369
0.823579
0.936383
0.798584
0.992661
0.834434
0.804626
0.838157
0.861126
0.854661
0.805038
0.798614
0.851997
0.865827
0.98577
0.798864
0.941507
0.893104
0.834001
0.884545
0.807761
0.999847
0.941942
0.804134
0.865003
0.930193
0.999643
0.99997
0.999993
0.999981
0.80796
0.929705
0.99976
0.796736
0.987163
0.999993
0.801445
0.999992
0.806081
0.999329
0.999387
0.999793
0.999466
0.999787
0.800341
0.999776
0.999523
0.999575
0.99978
0.800207
0.999783
0.999855
0.896562
0.99986
0.986998
0.999866
0.796397
0.87592
0.989572
0.999889
0.99929
0.800298
0.999991
0.804241
0.991826
0.817664
0.882217
0.79838
0.999977
0.798251
0.79987
0.997861
0.80493
0.798169
0.999983
0.950898
0.995947
0.992725
0.994197
0.887129
0.82173
0.999973
0.999842
0.98131
0.992576
0.987848
0.799552
0.999554
0.948916
0.99997
0.99983
0.999978
0.999878
0.799892
0.999976
0.991903
0.999974
0.999799
0.999938
0.999871
0.796598
0.999703
0.798239
0.798384
0.798224
0.999895
0.999991
0.957551
0.804406
0.999988
0.797891
0.99976
0.797964
0.979962
0.798242
0.999959
0.999992
0.798206
0.810101
0.79883
0.999992
0.800292
0.798576
0.999993
0.999991
0.999992
0.7985
0.979322
0.816486
0.999993
0.991623
0.999992
0.799548
0.798422
0.999986
0.995491
0.799254
0.798356
0.961757
0.809236
0.999993
0.798682
0.798785
0.99999
0.999992
0.999992
0.999992
0.818092
0.804775
0.815405
0.981653
0.998665
0.804968
0.811475
0.999983
0.804829
0.800814
0.887347
0.800331
0.999992
0.885054
0.799791
0.798486
0.800485
0.959788
0.990351
0.798397
0.86575
0.800004
0.804178
0.798963
0.982699
0.972801
0.800108
0.800822
0.96667
0.999992
0.999624
0.994476
0.870349
0.982523
0.887197
0.999991
0.999991
0.805696
0.999991
0.993266
0.805111
0.99732
0.809504
0.989121
0.804332
0.99999
0.999993
0.999991
0.86661
0.999992
0.878695
0.801496
0.797499
0.999272
0.999985
0.808135
0.804193
0.998309
0.99999
0.965773
0.999645
0.999992
0.999203
0.801347
0.839195
0.804423
0.799194
0.805463
0.996312
0.8018
0.805124
0.964468
0.799856
0.999993
0.999993
0.999993
0.794997
0.841305
0.800144
0.819122
0.978967
0.802105
0.800225
0.798695
0.80005
0.797476
0.956851
0.805963
0.999992
0.983384
0.988371
0.802169
0.80551
0.805133
0.795493
0.967533
0.814031
0.79733
0.998077
0.802223
0.81075
0.999992
0.99616
0.807552
0.84615
0.798116
0.800424
0.999987
0.830575
0.999992
0.800512
0.799953
0.799947
0.999992
0.999992
0.99989
0.999993
0.806327
0.798415
0.800724
0.999993
0.981242
0.999992
0.94472
0.805658
0.801367
0.80153
0.861708
0.999993
0.800228
0.802286
0.80458
0.987876
0.991746
0.806965
0.799304
0.999638
0.796373
0.836084
0.927963
0.978361
0.99699
0.799319
0.999987
0.837753
0.974422
0.806991
0.948112
0.803204
0.803971
0.799852
0.806252
0.999993
0.79967
0.999993
0.798297
0.804304
0.798741
0.802289
0.804271
0.998946
0.999532
0.973604
0.999921
0.999993
0.813882
0.798162
0.999993
0.800075
0.944555
0.800684
0.801907
0.999989
0.998956
0.795992
0.798264
0.800419
0.996043
0.994482
0.79831
0.803367
0.798374
0.803925
0.999813
0.839907
0.976693
0.799042
0.835808
0.798265
0.969567
0.80105
0.817426
0.857108
0.799023
0.798231
0.799275
0.978929
0.804189
0.998245
0.799178
0.80837
0.798225
0.798398
0.976899
0.998712
0.80127
0.999455
0.999584
0.978388
0.923139
0.980677
0.999863
0.889528
0.798543
0.798627
0.7982
0.999715
0.999044
0.798215
0.799224
0.800224
0.999566
0.798371
0.799116
0.800486
0.999344
0.798805
0.800385
0.797819
0.997861
0.798738
0.798964
0.802188
0.802223
0.999982
0.89141
0.999034
0.98568
0.798153
0.999853
0.799513
0.998588
0.996156
0.800006
0.999592
0.801556
0.79859
0.80144
0.80029
0.798406
0.797924
0.798184
0.798223
0.999774
0.999988
0.798791
0.997963
0.798331
0.801528
0.80041
0.804385
0.995541
0.799598
0.999849
0.999983
0.798263
0.798203
0.802265
0.993146
0.807861
0.800593
0.908458
0.800851
0.994731
0.99995
0.798382
0.798458
0.8008
0.989892
0.819359
0.802855
0.975642
0.807472
0.999814
0.79902
0.799455
0.798791
0.798879
0.799251
0.798391
0.858979
0.992852
0.804559
0.999991
0.990776
0.999863
0.94329
0.798542
0.999989
0.999649
0.803402
0.892253
0.799125
0.988319
0.965868
0.801438
0.954717
0.980824
0.803366
0.982111
0.963192
0.999921
0.999765
0.798248
0.798238
0.999992
0.999968
0.798236
0.999991
0.800529
0.983273
0.804937
0.798247
0.799212
0.992589
0.798558
0.804294
0.798668
0.797969
0.799718
0.999965
0.98759
0.999986
0.99771
0.803202
0.800088
0.861851
0.810194
0.999992
0.99993
0.798276
0.99999
0.815467
0.979573
0.802107
0.797863
0.999939
0.999988
0.79874
0.999988
0.799938
0.80004
0.79865
0.986636
0.934603
0.952177
0.999416
0.80689
0.803628
0.799816
0.991991
0.799918
0.799727
0.798183
0.801011
0.80139
0.800971
0.962351
0.796005
0.798242
0.99674
0.803207
0.808489
0.810299
0.800521
0.839276
0.799999
0.819294
0.798425
0.798253
0.798234
0.999915
0.803579
0.999991
0.999993
0.798557
0.796866
0.984236
0.99997
0.798367
0.797147
0.821602
0.79849
0.79856
0.797476
0.999988
0.999991
0.795771
0.796402
0.798679
0.815366
0.97925
0.79953
0.968876
0.794768
0.984718
0.798396
0.79823
0.798233
0.805111
0.798756
0.817468
0.799595
0.995679
0.999991
0.79787
0.836258
0.799883
0.99999
0.999993
0.99727
0.999991
0.798508
0.999677
0.804949
0.843716
0.798374
0.911102
0.804545
0.999992
0.807131
0.999987
0.805394
0.804567
0.889662
0.980991
0.795879
0.960196
0.801124
0.801794
0.798636
0.80593
0.798754
0.799372
0.999992
0.999687
0.794856
0.79504
0.999983
0.798899
0.80447
0.998364
0.804242
0.990718
0.804658
0.999993
0.990264
0.995361
0.800715
0.999992
0.867674
0.795786
0.996861
0.969585
0.98774
0.999993
0.80073
0.816001
0.999822
0.799871
0.999984
0.800334
0.989038
0.999992
0.798592
0.981397
0.797101
0.799194
0.999992
0.999604
0.797139
0.999989
0.881688
0.796284
0.992426
0.803479
0.799275
0.999209
0.999992
0.798268
0.80972
0.999251
0.79917
0.995878
0.999752
0.799653
0.98921
0.979369
0.999322
0.999754
0.799073
0.999842
0.917419
0.806631
0.999847
0.800015
0.999993
0.999992
0.999761
0.999756
0.999992
0.999403
0.992521
0.999852
0.799649
0.801863
0.994313
0.80043
0.799672
0.799754
0.800143
0.999993
0.99988
0.802673
0.999993
0.999758
0.799556
0.999447
0.999993
0.999992
0.79935
0.999988
0.999992
0.800792
0.999993
0.995087
0.801889
0.999523
0.801556
0.834343
0.999985
0.999858
0.997956
0.999767
0.999393
0.993639
0.999934
0.999886
0.907431
0.999993
0.799966
0.999979
0.80094
0.803893
0.999684
0.962507
0.998473
0.999281
0.999976
0.800678
0.801169
0.995998
0.999993
0.999979
0.800712
0.99781
0.999991
0.999976
0.801555
0.999993
0.999992
0.816547
0.839993
0.799776
0.999725
0.798894
0.99814
0.999976
0.80522
0.912174
0.999991
0.805826
0.990592
0.999703
0.999993
0.990276
0.999991
0.798459
0.999993
0.984491
0.806697
0.999991
0.917038
0.805011
0.999933
0.801285
0.801982
0.999983
0.986689
0.999992
0.999992
0.989759
0.980886
0.970059
0.823318
0.997622
0.99999
0.999665
0.999944
0.807274
0.999933
0.924336
0.800935
0.803089
0.79938
0.801101
0.798141
0.935283
0.999992
0.999976
0.897721
0.999967
0.802256
0.999991
0.999967
0.801211
0.999829
0.999993
0.801855
0.798141
0.994303
0.99969
0.810015
0.999872
0.999975
0.999993
0.85251
0.80572
0.864914
0.801478
0.815713
0.806489
0.927747
0.804957
0.999989
0.851266
0.964574
0.999831
0.936587
0.798333
0.999913
0.803515
0.999827
0.999975
0.999972
0.999993
0.99956
0.799318
0.931429
0.803983
0.999255
0.999873
0.803267
0.79983
0.798254
0.999974
0.999989
0.807174
0.999816
0.813162
0.999501
0.999873
0.999899
0.798923
0.799913
0.797881
0.800478
0.805255
0.851666
0.79902
0.800457
0.999978
0.99989
0.999859
0.999991
0.999892
0.999666
0.999848
0.799668
0.999774
0.993832
0.999953
0.804409
0.999933
0.867378
0.804566
0.999993
0.999933
0.799107
0.999637
0.804139
0.802471
0.802887
0.999821
0.810183
0.999937
0.800268
0.999982
0.807788
0.797838
0.999667
0.999924
0.801728
0.99999
0.798413
0.801138
0.99999
0.980555
0.802155
0.999968
0.804783
0.999938
0.808654
0.805185
0.810004
0.806442
0.801323