# vtk DataFile Version 1.0
unstructured grid
ascii
DATASET UNSTRUCTURED_GRID
points 7812 float
-1 0 0
-1 1 0
2 0 0
2 1 0
0 0 0
1 0 0
-1 1 0.1
-1 0 0.1
0 0 0.1
1 0 0.1
2 0 0.1
2 1 0.1
-0.99 0 0
-0.98 0 0
-0.97 0 0
-0.96 0 0
-0.95 0 0
-0.94 0 0
-0.93 0 0
-0.92 0 0
-0.91 0 0
-0.9 0 0
-0.89 0 0
-0.88 0 0
-0.87 0 0
-0.86 0 0
-0.85 0 0
-0.84 0 0
-0.83 0 0
-0.82 0 0
-0.81 0 0
-0.8 0 0
-0.79 0 0
-0.78 0 0
-0.77 0 0
-0.76 0 0
-0.75 0 0
-0.74 0 0
-0.73 0 0
-0.72 0 0
-0.71 0 0
-0.7 0 0
-0.69 0 0
-0.68 0 0
-0.67 0 0
-0.66 0 0
-0.65 0 0
-0.64 0 0
-0.63 0 0
-0.62 0 0
-0.61 0 0
-0.6 0 0
-0.59 0 0
-0.58 0 0
-0.57 0 0
-0.56 0 0
-0.55 0 0
-0.54 0 0
-0.53 0 0
-0.52 0 0
-0.51 0 0
-0.5 0 0
-0.49 0 0
-0.48 0 0
-0.47 0 0
-0.46 0 0
-0.45 0 0
-0.44 0 0
-0.43 0 0
-0.42 0 0
-0.41 0 0
-0.4 0 0
-0.39 0 0
-0.38 0 0
-0.37 0 0
-0.36 0 0
-0.35 0 0
-0.34 0 0
-0.33 0 0
-0.32 0 0
-0.31 0 0
-0.3 0 0
-0.29 0 0
-0.28 0 0
-0.27 0 0
-0.26 0 0
-0.25 0 0
-0.24 0 0
-0.23 0 0
-0.22 0 0
-0.21 0 0
-0.2 0 0
-0.19 0 0
-0.18 0 0
-0.17 0 0
-0.16 0 0
-0.15 0 0
-0.14 0 0
-0.13 0 0
-0.12 0 0
-0.11 0 0
-0.1 0 0
-0.09 0 0
-0.08 0 0
-0.07 0 0
-0.06 0 0
-0.05 0 0
-0.04 0 0
-0.03 0 0
-0.02 0 0
-0.01 0 0
1.01 0 0
1.02 0 0
1.03 0 0
1.04 0 0
1.05 0 0
1.06 0 0
1.07 0 0
1.08 0 0
1.09 0 0
1.1 0 0
1.11 0 0
1.12 0 0
1.13 0 0
1.14 0 0
1.15 0 0
1.16 0 0
1.17 0 0
1.18 0 0
1.19 0 0
1.2 0 0
1.21 0 0
1.22 0 0
1.23 0 0
1.24 0 0
1.25 0 0
1.26 0 0
1.27 0 0
1.28 0 0
1.29 0 0
1.3 0 0
1.31 0 0
1.32 0 0
1.33 0 0
1.34 0 0
1.35 0 0
1.36 0 0
1.37 0 0
1.38 0 0
1.39 0 0
1.4 0 0
1.41 0 0
1.42 0 0
1.43 0 0
1.44 0 0
1.45 0 0
1.46 0 0
1.47 0 0
1.48 0 0
1.49 0 0
1.5 0 0
1.51 0 0
1.52 0 0
1.53 0 0
1.54 0 0
1.55 0 0
1.56 0 0
1.57 0 0
1.58 0 0
1.59 0 0
1.6 0 0
1.61 0 0
1.62 0 0
1.63 0 0
1.64 0 0
1.65 0 0
1.66 0 0
1.67 0 0
1.68 0 0
1.69 0 0
1.7 0 0
1.71 0 0
1.72 0 0
1.73 0 0
1.74 0 0
1.75 0 0
1.76 0 0
1.77 0 0
1.78 0 0
1.79 0 0
1.8 0 0
1.81 0 0
1.82 0 0
1.83 0 0
1.84 0 0
1.85 0 0
1.86 0 0
1.87 0 0
1.88 0 0
1.89 0 0
1.9 0 0
1.91 0 0
1.92 0 0
1.93 0 0
1.94 0 0
1.95 0 0
1.96 0 0
1.97 0 0
1.98 0 0
1.99 0 0
2 0.010289 0
2 0.0215307 0
2 0.0338135 0
2 0.0472336 0
2 0.0618965 0
2 0.0779171 0
2 0.0954213 0
2 0.114546 0
2 0.135442 0
2 0.158274 0
2 0.183219 0
2 0.210474 0
2 0.240253 0
2 0.27279 0
2 0.308339 0
2 0.347181 0
2 0.389619 0
2 0.435987 0
2 0.486649 0
2 0.542002 0
2 0.602481 0
2 0.66856 0
2 0.740758 0
2 0.819642 0
2 0.90583 0
1.9 1 0
1.8 1 0
1.7 1 0
1.6 1 0
1.5 1 0
1.4 1 0
1.3 1 0
1.2 1 0
1.1 1 0
1 1 0
0.9 1 0
0.8 1 0
0.7 1 0
0.6 1 0
0.5 1 0
0.4 1 0
0.3 1 0
0.2 1 0
0.1 1 0
3.69793e-12 1 0
-0.1 1 0
-0.2 1 0
-0.3 1 0
-0.4 1 0
-0.5 1 0
-0.6 1 0
-0.7 1 0
-0.8 1 0
-0.9 1 0
-1 0.90583 0
-1 0.819642 0
-1 0.740758 0
-1 0.66856 0
-1 0.602481 0
-1 0.542002 0
-1 0.486649 0
-1 0.435987 0
-1 0.389619 0
-1 0.347181 0
-1 0.308339 0
-1 0.27279 0
-1 0.240253 0
-1 0.210474 0
-1 0.183219 0
-1 0.158274 0
-1 0.135442 0
-1 0.114546 0
-1 0.0954213 0
-1 0.0779171 0
-1 0.0618965 0
-1 0.0472336 0
-1 0.0338135 0
-1 0.0215307 0
-1 0.010289 0
0.00921362 0.00379763 0
0.0184561 0.00752451 0
0.0277268 0.0111804 0
0.0370253 0.0147652 0
0.0463511 0.0182786 0
0.0557034 0.0217203 0
0.0650819 0.0250903 0
0.074486 0.0283883 0
0.083915 0.0316141 0
0.0933685 0.0347675 0
0.102846 0.0378484 0
0.112347 0.0408565 0
0.12187 0.0437917 0
0.131416 0.0466538 0
0.140983 0.0494427 0
0.150572 0.0521581 0
0.160181 0.0547999 0
0.16981 0.0573681 0
0.179458 0.0598623 0
0.189125 0.0622825 0
0.198811 0.0646285 0
0.208514 0.0669001 0
0.218234 0.0690974 0
0.227971 0.07122 0
0.237724 0.073268 0
0.247493 0.0752411 0
0.257276 0.0771393 0
0.267073 0.0789625 0
0.276884 0.0807105 0
0.286708 0.0823832 0
0.296545 0.0839806 0
0.306394 0.0855025 0
0.316254 0.0869488 0
0.326125 0.0883196 0
0.336006 0.0896146 0
0.345896 0.0908339 0
0.355796 0.0919773 0
0.365704 0.0930447 0
0.375621 0.0940362 0
0.385544 0.0949517 0
0.395474 0.095791 0
0.40541 0.0965542 0
0.415352 0.0972412 0
0.425299 0.097852 0
0.43525 0.0983865 0
0.445205 0.0988447 0
0.455164 0.0992266 0
0.465125 0.0995321 0
0.475088 0.0997613 0
0.485052 0.0999141 0
0.495017 0.0999904 0
0.504983 0.0999904 0
0.514948 0.0999141 0
0.524912 0.0997613 0
0.534875 0.0995321 0
0.544836 0.0992266 0
0.554795 0.0988447 0
0.56475 0.0983865 0
0.574701 0.097852 0
0.584648 0.0972412 0
0.59459 0.0965542 0
0.604526 0.095791 0
0.614456 0.0949517 0
0.624379 0.0940362 0
0.634296 0.0930447 0
0.644204 0.0919773 0
0.654104 0.0908339 0
0.663994 0.0896146 0
0.673875 0.0883196 0
0.683746 0.0869488 0
0.693606 0.0855025 0
0.703455 0.0839806 0
0.713292 0.0823832 0
0.723116 0.0807105 0
0.732927 0.0789625 0
0.742724 0.0771393 0
0.752508 0.0752411 0
0.762276 0.073268 0
0.772029 0.07122 0
0.781766 0.0690974 0
0.791486 0.0669001 0
0.801189 0.0646285 0
0.810875 0.0622825 0
0.820542 0.0598623 0
0.83019 0.0573681 0
0.839819 0.0547999 0
0.849428 0.0521581 0
0.859017 0.0494427 0
0.868584 0.0466538 0
0.87813 0.0437917 0
0.887653 0.0408565 0
0.897154 0.0378484 0
0.906631 0.0347675 0
0.916085 0.0316141 0
0.925514 0.0283883 0
0.934918 0.0250903 0
0.944297 0.0217203 0
0.953649 0.0182786 0
0.962975 0.0147652 0
0.972273 0.0111804 0
0.981544 0.00752451 0
0.990786 0.00379763 0
-1 0.90583 0.1
-1 0.819642 0.1
-1 0.740758 0.1
-1 0.66856 0.1
-1 0.602481 0.1
-1 0.542002 0.1
-1 0.486649 0.1
-1 0.435987 0.1
-1 0.389619 0.1
-1 0.347181 0.1
-1 0.308339 0.1
-1 0.27279 0.1
-1 0.240253 0.1
-1 0.210474 0.1
-1 0.183219 0.1
-1 0.158274 0.1
-1 0.135442 0.1
-1 0.114546 0.1
-1 0.0954213 0.1
-1 0.0779171 0.1
-1 0.0618965 0.1
-1 0.0472336 0.1
-1 0.0338135 0.1
-1 0.0215307 0.1
-1 0.010289 0.1
-0.99 0 0.1
-0.98 0 0.1
-0.97 0 0.1
-0.96 0 0.1
-0.95 0 0.1
-0.94 0 0.1
-0.93 0 0.1
-0.92 0 0.1
-0.91 0 0.1
-0.9 0 0.1
-0.89 0 0.1
-0.88 0 0.1
-0.87 0 0.1
-0.86 0 0.1
-0.85 0 0.1
-0.84 0 0.1
-0.83 0 0.1
-0.82 0 0.1
-0.81 0 0.1
-0.8 0 0.1
-0.79 0 0.1
-0.78 0 0.1
-0.77 0 0.1
-0.76 0 0.1
-0.75 0 0.1
-0.74 0 0.1
-0.73 0 0.1
-0.72 0 0.1
-0.71 0 0.1
-0.7 0 0.1
-0.69 0 0.1
-0.68 0 0.1
-0.67 0 0.1
-0.66 0 0.1
-0.65 0 0.1
-0.64 0 0.1
-0.63 0 0.1
-0.62 0 0.1
-0.61 0 0.1
-0.6 0 0.1
-0.59 0 0.1
-0.58 0 0.1
-0.57 0 0.1
-0.56 0 0.1
-0.55 0 0.1
-0.54 0 0.1
-0.53 0 0.1
-0.52 0 0.1
-0.51 0 0.1
-0.5 0 0.1
-0.49 0 0.1
-0.48 0 0.1
-0.47 0 0.1
-0.46 0 0.1
-0.45 0 0.1
-0.44 0 0.1
-0.43 0 0.1
-0.42 0 0.1
-0.41 0 0.1
-0.4 0 0.1
-0.39 0 0.1
-0.38 0 0.1
-0.37 0 0.1
-0.36 0 0.1
-0.35 0 0.1
-0.34 0 0.1
-0.33 0 0.1
-0.32 0 0.1
-0.31 0 0.1
-0.3 0 0.1
-0.29 0 0.1
-0.28 0 0.1
-0.27 0 0.1
-0.26 0 0.1
-0.25 0 0.1
-0.24 0 0.1
-0.23 0 0.1
-0.22 0 0.1
-0.21 0 0.1
-0.2 0 0.1
-0.19 0 0.1
-0.18 0 0.1
-0.17 0 0.1
-0.16 0 0.1
-0.15 0 0.1
-0.14 0 0.1
-0.13 0 0.1
-0.12 0 0.1
-0.11 0 0.1
-0.1 0 0.1
-0.09 0 0.1
-0.08 0 0.1
-0.07 0 0.1
-0.06 0 0.1
-0.05 0 0.1
-0.04 0 0.1
-0.03 0 0.1
-0.02 0 0.1
-0.01 0 0.1
0.00921362 0.00379763 0.1
0.0184561 0.00752451 0.1
0.0277268 0.0111804 0.1
0.0370253 0.0147652 0.1
0.0463511 0.0182786 0.1
0.0557034 0.0217203 0.1
0.0650819 0.0250903 0.1
0.074486 0.0283883 0.1
0.083915 0.0316141 0.1
0.0933685 0.0347675 0.1
0.102846 0.0378484 0.1
0.112347 0.0408565 0.1
0.12187 0.0437917 0.1
0.131416 0.0466538 0.1
0.140983 0.0494427 0.1
0.150572 0.0521581 0.1
0.160181 0.0547999 0.1
0.16981 0.0573681 0.1
0.179458 0.0598623 0.1
0.189125 0.0622825 0.1
0.198811 0.0646285 0.1
0.208514 0.0669001 0.1
0.218234 0.0690974 0.1
0.227971 0.07122 0.1
0.237724 0.073268 0.1
0.247493 0.0752411 0.1
0.257276 0.0771393 0.1
0.267073 0.0789625 0.1
0.276884 0.0807105 0.1
0.286708 0.0823832 0.1
0.296545 0.0839806 0.1
0.306394 0.0855025 0.1
0.316254 0.0869488 0.1
0.326125 0.0883196 0.1
0.336006 0.0896146 0.1
0.345896 0.0908339 0.1
0.355796 0.0919773 0.1
0.365704 0.0930447 0.1
0.375621 0.0940362 0.1
0.385544 0.0949517 0.1
0.395474 0.095791 0.1
0.40541 0.0965542 0.1
0.415352 0.0972412 0.1
0.425299 0.097852 0.1
0.43525 0.0983865 0.1
0.445205 0.0988447 0.1
0.455164 0.0992266 0.1
0.465125 0.0995321 0.1
0.475088 0.0997613 0.1
0.485052 0.0999141 0.1
0.495017 0.0999904 0.1
0.504983 0.0999904 0.1
0.514948 0.0999141 0.1
0.524912 0.0997613 0.1
0.534875 0.0995321 0.1
0.544836 0.0992266 0.1
0.554795 0.0988447 0.1
0.56475 0.0983865 0.1
0.574701 0.097852 0.1
0.584648 0.0972412 0.1
0.59459 0.0965542 0.1
0.604526 0.095791 0.1
0.614456 0.0949517 0.1
0.624379 0.0940362 0.1
0.634296 0.0930447 0.1
0.644204 0.0919773 0.1
0.654104 0.0908339 0.1
0.663994 0.0896146 0.1
0.673875 0.0883196 0.1
0.683746 0.0869488 0.1
0.693606 0.0855025 0.1
0.703455 0.0839806 0.1
0.713292 0.0823832 0.1
0.723116 0.0807105 0.1
0.732927 0.0789625 0.1
0.742724 0.0771393 0.1
0.752508 0.0752411 0.1
0.762276 0.073268 0.1
0.772029 0.07122 0.1
0.781766 0.0690974 0.1
0.791486 0.0669001 0.1
0.801189 0.0646285 0.1
0.810875 0.0622825 0.1
0.820542 0.0598623 0.1
0.83019 0.0573681 0.1
0.839819 0.0547999 0.1
0.849428 0.0521581 0.1
0.859017 0.0494427 0.1
0.868584 0.0466538 0.1
0.87813 0.0437917 0.1
0.887653 0.0408565 0.1
0.897154 0.0378484 0.1
0.906631 0.0347675 0.1
0.916085 0.0316141 0.1
0.925514 0.0283883 0.1
0.934918 0.0250903 0.1
0.944297 0.0217203 0.1
0.953649 0.0182786 0.1
0.962975 0.0147652 0.1
0.972273 0.0111804 0.1
0.981544 0.00752451 0.1
0.990786 0.00379763 0.1
1.01 0 0.1
1.02 0 0.1
1.03 0 0.1
1.04 0 0.1
1.05 0 0.1
1.06 0 0.1
1.07 0 0.1
1.08 0 0.1
1.09 0 0.1
1.1 0 0.1
1.11 0 0.1
1.12 0 0.1
1.13 0 0.1
1.14 0 0.1
1.15 0 0.1
1.16 0 0.1
1.17 0 0.1
1.18 0 0.1
1.19 0 0.1
1.2 0 0.1
1.21 0 0.1
1.22 0 0.1
1.23 0 0.1
1.24 0 0.1
1.25 0 0.1
1.26 0 0.1
1.27 0 0.1
1.28 0 0.1
1.29 0 0.1
1.3 0 0.1
1.31 0 0.1
1.32 0 0.1
1.33 0 0.1
1.34 0 0.1
1.35 0 0.1
1.36 0 0.1
1.37 0 0.1
1.38 0 0.1
1.39 0 0.1
1.4 0 0.1
1.41 0 0.1
1.42 0 0.1
1.43 0 0.1
1.44 0 0.1
1.45 0 0.1
1.46 0 0.1
1.47 0 0.1
1.48 0 0.1
1.49 0 0.1
1.5 0 0.1
1.51 0 0.1
1.52 0 0.1
1.53 0 0.1
1.54 0 0.1
1.55 0 0.1
1.56 0 0.1
1.57 0 0.1
1.58 0 0.1
1.59 0 0.1
1.6 0 0.1
1.61 0 0.1
1.62 0 0.1
1.63 0 0.1
1.64 0 0.1
1.65 0 0.1
1.66 0 0.1
1.67 0 0.1
1.68 0 0.1
1.69 0 0.1
1.7 0 0.1
1.71 0 0.1
1.72 0 0.1
1.73 0 0.1
1.74 0 0.1
1.75 0 0.1
1.76 0 0.1
1.77 0 0.1
1.78 0 0.1
1.79 0 0.1
1.8 0 0.1
1.81 0 0.1
1.82 0 0.1
1.83 0 0.1
1.84 0 0.1
1.85 0 0.1
1.86 0 0.1
1.87 0 0.1
1.88 0 0.1
[...]
CELL_DATA 7425
SCALARS rho float
LOOKUP_TABLE default
0.659991
0.807372
0.84348
0.846481
0.803272
0.841894
0.83684
0.844587
0.847628
0.764821
0.871051
0.812556
0.845011
0.846335
0.807726
0.843194
0.801737
0.846587
0.805398
0.777246
0.849249
0.822536
0.753181
0.8473
0.805999
0.749628
0.848656
0.848106
0.802919
0.811051
0.835765
0.733676
0.805586
0.7083
0.655226
0.84728
0.805483
0.844674
0.813502
0.845238
0.75704
0.743016
0.808145
0.695018
0.673847
0.762478
0.819871
0.845098
0.719598
0.72695
0.753129
0.807512
0.81347
0.802361
0.713156
0.676267
0.844676
0.802486
0.764849
0.736868
0.754798
0.80998
0.846682
0.802529
0.801689
0.843047
0.657432
0.794277
0.678585
0.811026
0.807764
0.804311
0.888089
0.821732
0.811607
0.847605
0.807412
0.803089
0.846568
0.763581
0.843408
0.809612
0.842269
0.792329
0.847923
0.804821
0.645241
0.846245
0.65593
0.860775
0.697408
0.757257
0.8452
0.804896
0.84301
0.787299
0.835792
0.793578
0.845996
0.80668
0.833552
0.746123
0.805251
0.845629
0.662492
0.813415
0.843593
0.747458
0.843873
0.80277
0.842579
0.788795
0.793131
0.814123
0.808002
0.792293
0.8486
0.804118
0.700735
0.704902
0.807426
0.797458
0.847793
0.795274
0.869364
0.839496
0.810076
0.820886
0.707715
0.645851
0.843582
0.710394
0.65182
0.866445
0.718177
0.803404
0.812434
0.756095
0.650781
0.753421
0.762174
0.812866
0.842682
0.709988
0.806692
0.784179
0.638748
0.812279
0.78606
0.847177
0.832855
0.697331
0.80691
0.751491
0.710687
0.805415
0.812894
0.848728
0.815411
0.721938
0.804905
0.695812
0.804873
0.848322
0.843569
0.803628
0.847321
0.803835
0.808656
0.804555
0.84352
0.808678
0.814859
0.802697
0.802366
0.765156
0.807737
0.787666
0.683226
0.690843
0.803257
0.813019
0.885055
0.847621
0.691573
0.844685
0.801922
0.828838
0.80338
0.845743
0.848589
0.804978
0.809194
0.710531
0.843775
0.842144
0.779675
0.817006
0.859557
0.810235
0.814538
0.845733
0.672307
0.839518
0.643423
0.658082
0.660929
0.697808
0.829053
0.884844
0.809873
0.801544
0.85192
0.848132
0.842428
0.843698
0.843616
0.684021
0.689452
0.845343
0.658505
0.680931
0.706383
0.838727
0.843929
0.847611
0.849867
0.849127
0.863181
0.712316
0.834858
0.756785
0.807591
0.806021
0.803746
0.749241
0.749848
0.671113
0.701915
0.873066
0.873726
0.833755
0.810071
0.820058
0.814442
0.750661
0.844156
0.804321
0.845456
0.798667
0.843527
0.728768
0.848808
0.84503
0.766526
0.638786
0.802634
0.744025
0.841791
0.843619
0.735084
0.843233
0.843985
0.859317
0.840631
0.808438
0.804909
0.846008
0.870831
0.809608
0.670048
0.860973
0.815771
0.808019
0.846644
0.849665
0.846015
0.842544
0.797686
0.843823
0.865437
0.85938
0.82833
0.852842
0.805006
0.843203
0.804357
0.765438
0.748366
0.650221
0.699607
0.823936
0.847671
0.843402
0.854241
0.786837
0.692204
0.846788
0.656957
0.794823
0.804706
0.693152
0.671742
0.685119
0.843758
0.846637
0.848121
0.843843
0.846568
0.779423
0.813306
0.805023
0.849173
0.855551
0.86599
0.850047
0.805445
0.695196
0.814329
0.846494
0.730224
0.801995
0.803597
0.873116
0.843232
0.654272
0.845715
0.767007
0.852003
0.765691
0.842042
0.90922
0.803858
0.798711
0.705975
0.685647
0.715084
0.805075
0.846093
0.843816
0.845409
0.880512
0.856424
0.803388
0.815923
0.825666
0.771531
0.805158
0.88579
0.803377
0.809143
0.804614
0.803861
0.845836
0.843472
0.843131
0.700883
0.830651
0.718323
0.809976
0.702989
0.823583
0.803674
0.838951
0.766828
0.816761
0.834074
0.843031
0.802448
0.803702
0.811947
0.746429
0.824314
0.847305
0.845812
0.802943
0.749286
0.637307
0.808839
0.845073
0.80477
0.848841
0.798044
0.671997
0.844701
0.845859
0.805927
0.804752
0.846559
0.808205
0.806639
0.843324
0.809866
0.844283
0.780127
0.827964
0.810217
0.642427
0.807391
0.686103
0.849669
0.686498
0.842887
0.88461
0.692444
0.819921
0.775828
0.806862
0.879439
0.660183
0.844291
0.844378
0.805579
0.846024
0.813886
0.844881
0.848835
0.844933
0.765199
0.846986
0.766868
0.813362
0.798389
0.812112
0.783111
0.808125
0.803688
0.838924
0.78306
0.808006
0.667629
0.67413
0.741897
0.846013
0.857422
0.874081
0.846484
0.801977
0.848535
0.808321
0.838646
0.720536
0.80441
0.759771
0.837206
0.841863
0.809866
0.714213
0.7595
0.646236
0.662132
0.80498
0.666301
0.813968
0.770909
0.781148
0.734686
0.786487
0.79196
0.841422
0.843928
0.84345
0.845905
0.754377
0.699744
0.853684
0.831842
0.789643
0.813761
0.805357
0.852724
0.757849
0.866506
0.76951
0.763052
0.790301
0.839171
0.652275
0.802111
0.856241
0.816081
0.845241
0.840823
0.803028
0.804939
0.848225
0.804662
0.85725
0.738356
0.711555
0.802587
0.813668
0.843968
0.748695
0.860894
0.80473
0.842804
0.801756
0.786491
0.812282
0.655707
0.717718
0.681689
0.843654
0.819792
0.845698
0.773723
0.81258
0.844035
0.843488
0.802524
0.767421
0.820941
0.817671
0.804697
0.74907
0.84553
0.841671
0.838908
0.845017
0.845833
0.869909
0.866337
0.775403
0.662445
0.849221
0.80931
0.853765
0.844498
0.82427
0.84577
0.845198
0.706904
0.809715
0.831001
0.848946
0.809931
0.825996
0.808828
0.859326
0.802062
0.848913
0.843978
0.879674
0.658441
0.845644
0.842639
0.888125
0.640482
0.843148
0.830583
0.799857
0.815363
0.813271
0.876017
0.829361
0.849303
0.816319
0.675464
0.804195
0.806399
0.743437
0.86213
0.765659
0.804496
0.844427
0.846563
0.858745
0.799157
0.847338
0.851421
0.80833
0.826188
0.842332
0.803554
0.814166
0.811018
0.807731
0.838732
0.803918
0.857971
0.774539
0.810482
0.80539
0.831477
0.758371
0.848576
0.843255
0.776716
0.845518
0.835319
0.82908
0.84532
0.804462
0.803402
0.85983
0.772701
0.827268
0.857394
0.806946
0.647897
0.847453
0.84746
0.861384
0.839958
0.804268
0.809758
0.864362
0.783735
0.804905
0.804742
0.8485
0.762356
0.806175
0.830323
0.812276
0.798993
0.817579
0.857346
0.80899
0.855368
0.80367
0.845291
0.844316
0.806412
0.852443
0.84739
0.732382
0.843329
0.80945
0.844385
0.907847
0.803323
0.836892
0.802555
0.803124
0.84325
0.803268
0.805464
0.787023
0.753934
0.83398
0.848664
0.782439
0.814491
0.84419
0.814686
0.84437
0.809528
0.846046
0.88125
0.848838
0.686741
0.740165
0.855576
0.843162
0.857012
0.842982
0.861069
0.811366
0.828047
0.802619
0.853112
0.870844
0.864489
0.765263
0.844748
0.843011
0.750404
0.820051
0.780588
0.802439
0.765382
0.843264
0.849013
0.823566
0.860697
0.84384
0.846399
0.839529
0.843219
0.849562
0.814099
0.801647
0.812234
0.770254
0.846058
0.778389
0.848124
0.816201
0.684959
0.784945
0.814546
0.802318
0.843602
0.80669
0.843261
0.843171
0.808001
0.84285
0.80647
0.810158
0.687603
0.860237
0.845369
0.84657
0.818025
0.805313
0.735699
0.810965
0.90949
0.843322
0.805436
0.844631
0.789009
0.811468
0.843277
0.844025
0.816238
0.84658
0.843334
0.684005
0.800337
0.790362
0.846515
0.80869
0.805402
0.677356
0.810011
0.806668
0.747554
0.836312
0.843053
0.805564
0.81129
0.801912
0.842367
0.830852
0.846457
0.848901
0.740798
0.847007
0.803367
0.811585
0.84188
0.820294
0.842815
0.803542
0.760006
0.843086
0.809633
0.843738
0.794498
0.810096
0.843943
0.750276
0.838806
0.722878
0.87976
0.740063
0.858643
0.825666
0.881174
0.796772
0.804087
0.843849
0.83547
0.837159
0.843744
0.843581
0.841564
0.822879
0.806768
0.811107
0.76261
0.826845
0.802729
0.727493
0.84597
0.688414
0.804166
0.859431
0.808071
0.743279
0.801123
0.844742
0.707414
0.78896
0.842979
0.845813
0.835328
0.695247
0.7625
0.813686
0.805803
0.848613
0.804261
0.764429
0.843871
0.843481
0.848023
0.795665
0.804934
0.80689
0.808187
0.63841
0.848715
0.833525
0.674636
0.843734
0.843365
0.843968
0.843265
0.843949
0.845164
0.802969
0.798772
0.775963
0.824
0.829762
0.825866
0.835503
0.778917
0.840159
0.764312
0.777553
0.812596
0.843968
0.846024
0.80334
0.856897
0.848499
0.824694
0.841591
0.842588
0.843624
0.852718
0.844215
0.847583
0.813831
0.845035
0.804543
0.843507
0.80602
0.844668
0.845884
0.671685
0.845772
0.851294
0.856934
0.836956
0.657281
0.843087
0.821802
0.64402
0.72712
0.719574
0.848938
0.82464
0.813474
0.846333
0.80415
0.843176
0.813771
0.647325
0.740263
0.819838
0.809052
0.843115
0.805438
0.812562
0.844841
0.842157
0.802033
0.744797
0.855128
0.804149
0.816325
0.844631
0.780748
0.65611
0.850238
0.816125
0.748452
0.80388
0.810746
0.689561
0.827305
0.842668
0.847139
0.843336
0.827993
0.807074
0.758686
0.690423
0.641198
0.845829
0.812645
0.786318
0.847613
0.802513
0.843225
0.879496
0.784562
0.844157
0.843178
0.845631
0.889263
0.843834
0.844294
0.805956
0.815415
0.738778
0.847397
0.80266
0.814165
0.804084
0.789913
0.865656
0.843859
0.851282
0.844089
0.763313
0.768243
0.807737
0.841776
0.804231
0.807659
0.805362
0.799253
0.843418
0.776835
0.823527
0.704118
0.844161
0.805635
0.742127
0.836391
0.838165
0.766097
0.803072
0.781684
0.878699
0.803006
0.849016
0.786792
0.80436
0.844385
0.806182
0.656835
0.822603
0.816019
0.826235
0.844139
0.84441
0.773683
0.809693
0.841979
0.828707
0.81638
0.852207
0.682274
0.734372
0.848617
0.769659
0.844398
0.792262
0.848921
0.804224
0.827245
0.776367
0.798079
0.788998
0.839251
0.80409
0.680266
0.783463
0.801949
0.848863
0.844307
0.847675
0.652303
0.825152
0.789175
0.869172
0.803369
0.819896
0.804526
0.80567
0.801879
0.843994
0.84721
0.823303
0.842238
0.712233
0.796721
0.838481
0.807761
0.844659
0.806175
0.706416
0.811247
0.80681
0.8143
0.827327
0.860341
0.849624
0.845879
0.803129
0.808029
0.805385
0.787524
0.670772
0.824096
0.766775
0.708886
0.842968
0.801665
0.781496
0.803512
0.777932
0.79072
0.847663
0.822824
0.822577
0.842487
0.83622
0.83423
0.846101
0.825585
0.742756
0.734597
0.687446
0.848029
0.877516
0.829731
0.840242
0.860021
0.871261
0.765394
0.837517
0.871576
0.831436
0.849303
0.834257
0.765179
0.839791
0.810941
0.810393
0.643415
0.84799
0.774094
0.846275
0.814798
0.805419
0.709698
0.846134
0.668955
0.826094
0.805959
0.835534
0.866383
0.80536
0.799203
0.843883
0.842237
0.808829
0.774728
0.65251
0.843379
0.805709
0.830673
0.845772
0.827493
0.809425
0.848369
0.756117
0.659505
0.891109
0.821027
0.843515
0.806684
0.715223
0.801768
0.803695
0.843814
0.772045
0.691434
0.887992
0.7484
0.852636
0.844034
0.850211
0.856708
0.815653
0.807037
0.84461
0.861845
0.764735
0.877118
0.844762
0.645032
0.806841
0.755901
0.864611
0.78662
0.806546
0.806137
0.802764
0.803578
0.839998
0.848973
0.854044
0.810089
0.803769
0.803274
0.803351
0.848504
0.843229
0.803607
0.848804
0.861862
0.80392
0.803543
0.803382
0.839847
0.764708
0.84545
0.844276
0.703867
0.747703
0.807959
0.843311
0.80823
0.649305
0.855618
0.843183
0.834057
0.807676
0.804923
0.802899
0.807296
0.65121
0.806867
0.843361
0.834702
0.843825
0.848323
0.822596
0.769427
0.803636
0.792752
0.792915
0.802734
0.795628
0.757443
0.804257
0.813437
0.841748
0.845508
0.848671
0.652412
0.85649
0.849321
0.821389
0.805575
0.822947
0.847486
0.898307
0.816812
0.865833
0.808129
0.786232
0.869799
0.804805
0.802718
0.84372
0.704002
0.690496
0.80522
0.80603
0.681819
0.6982
0.802361
0.844699
0.847658
0.844526
0.755577
0.833853
0.846728
0.846245
0.838358
0.813779
0.849351
0.778794
0.808081
0.842741
0.847746
0.714746
0.650615
0.849396
0.694307
0.751025
0.644842
0.855759
0.803608
0.66279
0.661186
0.840636
0.909736
0.843041
0.696844
0.844085
0.806315
0.80532
0.790192
0.823261
0.832713
0.793516
0.842583
0.824693
0.661396
0.842995
0.790269
0.842155
0.704452
0.844154
0.809972
0.84439
0.803987
0.705658
0.854031
0.822924
0.810754
0.650588
0.843111
0.803672
0.851764
0.717417
0.843145
0.69353
0.760679
0.804851
0.815305
0.769824
0.754125
0.720952
0.658922
0.699779
0.804092
0.66036
0.844542
0.675563
0.780698
0.728956
0.703024
0.665842
0.771012
0.804353
0.719507
0.844033
0.803405
0.806306
0.784167
0.894199
0.802589
0.845089
0.805528
0.848804
0.739361
0.811373
0.764084
0.844255
0.89123
0.848271
0.774928
0.844238
0.792903
0.885049
0.80642
0.781699
0.862966
0.798357
0.802391
0.809663
0.781462
0.777854
0.722049
0.807317
0.804454
0.841549
0.850209
0.665843
0.812008
0.656326
0.70899
0.703547
0.821253
0.843693
0.839324
0.806263
0.670178
0.878626
0.803613
0.80378
0.872961
0.848865
0.782742
0.848563
0.803429
0.84321
0.803905
0.748217
0.806911
0.724186
0.80199
0.824922
0.802972
0.685225
0.829281
0.82621
0.739873
0.820452
0.652326
0.648502
0.806614
0.731862
0.754546
0.647188
0.760562
0.845393
0.705851
0.782168
0.72237
0.827554
0.711709
0.784837
0.809607
0.839148
0.712668
0.803318
0.898805
0.800193
0.84324
0.684095
0.731834
0.82527
0.848401
0.8442
0.861728
0.84617
0.806841
0.806239
0.805136
0.749302
0.723976
0.67574
0.795464
0.670779
0.730229
0.840176
0.843284
0.810195
0.80298
0.684506
0.838551
0.806009
0.655937
0.661918
0.771864
0.805815
0.82771
0.64631
0.800632
0.656257
0.761655
0.67145
0.814579
0.805779
0.664898
0.667298
0.876024
0.813004
0.787821
0.755884
0.702823
0.699208
0.711078
0.841925
0.782502
0.770664
0.680671
0.780045
0.838019
0.843287
0.848277
0.843591
0.863821
0.781908
0.84285
0.805975
0.862118
0.849274
0.804137
0.846618
0.728562
0.838198
0.837884
0.841212
0.837784
0.841483
0.804929
0.842387
0.83767
0.83773
0.842076
0.802724
0.841778
0.843242
0.709115
0.843111
0.876746
0.842936
0.79728
0.693443
0.86894
0.843334
0.84559
0.803087
0.847388
0.76313
0.864366
0.688111
0.765866
0.811905
0.843447
0.806201
0.805171
0.849726
0.807524
0.808617
0.843698
0.800072
0.854037
0.85568
0.834875
0.706942
0.706837
0.843361
0.842132
0.812256
0.862125
0.858892
0.814606
0.839332
0.799362
0.843287
0.842599
0.84362
0.843276
0.816459
0.843419
0.863122
0.843394
0.840982
0.843202
0.842799
0.791303
0.840238
0.808196
0.808647
0.808513
0.843279
0.847045
0.808159
0.759806
0.845103
0.808711
0.839069
0.808813
0.866414
0.807054
0.84288
0.847432
0.808807
0.672051
0.806077
0.847744
0.81811
0.812491
0.848011
0.845661
0.847181
0.812286
0.871972
0.653135
0.848231
0.855126
0.847118
0.805138
0.811204
0.843877
0.854775
0.804217
0.805683
0.827504
0.684069
0.848434
0.811705
0.81139
0.845745
0.847376
0.847006
0.846207
0.654481
0.812855
0.753064
0.890641
0.842153
0.739996
0.714739
0.843648
0.805726
0.820965
0.691811
0.804087
0.846307
0.692925
0.803534
0.806632
0.818636
0.822057
0.867571
0.811948
0.665723
0.803905
0.779304
0.812927
0.893621
0.821198
0.816574
0.821201
0.84406
0.846108
0.844469
0.851602
0.686584
0.822289
0.699762
0.845149
0.845262
0.717227
0.845391
0.82709
0.718941
0.836529
0.731736
0.870969
0.787939
0.844476
0.848426
0.845532
0.719881
0.845483
0.680292
0.802923
0.796704
0.843784
0.843776
0.739016
0.771698
0.84846
0.845579
0.834915
0.844204
0.845991
0.845793
0.802615
0.641179
0.761697
0.775268
0.738036
0.853409
0.824736
0.833389
0.80129
0.804815
0.847719
0.848386
0.848258
0.784191
0.646756
0.805015
0.664723
0.825835
0.826392
0.80322
0.805947
0.816535
0.808394
0.80401
0.747811
0.846099
0.867972
0.831841
0.802238
0.744639
0.811578
0.794115
0.845468
0.665248
0.799637
0.831878
0.801994
0.711631
0.846721
0.832826
0.855728
0.643817
0.809837
0.804914
0.844952
0.698638
0.847019
0.804924
0.805153
0.804988
0.846715
0.846426
0.842297
0.847608
0.722764
0.806859
0.804713
0.848041
0.899469
0.846861
0.795993
0.840005
0.801877
0.804341
0.662438
0.848263
0.805091
0.82758
0.803847
0.87507
0.833637
0.851941
0.804144
0.843438
0.785933
0.650338
0.781271
0.815419
0.829313
0.815409
0.844481
0.646442
0.869547
0.85666
0.793776
0.766915
0.745589
0.815744
0.846997
0.84811
0.816269
0.848128
0.806576
0.734139
0.805695
0.802113
0.769269
0.844746
0.844678
0.86948
0.842488
0.848271
0.681886
0.811088
0.848277
0.803826
0.794787
0.818791
0.804357
0.845406
0.846644
0.801848
0.807042
0.803862
0.835789
0.853853
0.806412
0.801842
0.805791
0.771724
0.843503
0.652316
0.875214
0.805814
0.640806
0.80693
0.820605
0.821914
0.701789
0.669581
0.805012
0.807835
0.804429
0.868737
0.784071
0.837212
0.805115
0.864236
0.807048
0.806723
0.839923
0.83878
0.822595
0.843413
0.843108
0.874431
0.758148
0.861761
0.842513
0.698257
0.805979
0.805469
0.80597
0.843889
0.844297
0.80736
0.804581
0.803388
0.844519
0.806545
0.805743
0.803064
0.845296
0.806121
0.804231
0.808506
0.846457
0.804727
0.804998
0.826509
0.802388
0.843641
0.696416
0.846344
0.860613
0.808105
0.843514
0.805271
0.847675
0.853236
0.805152
0.843807
0.803081
0.810868
0.793532
0.804335
0.806519
0.808753
0.809149
0.808438
0.842672
0.844056
0.813372
0.849276
0.806275
0.803826
0.803225
0.791888
0.849932
0.805197
0.843368
0.843683
0.810123
0.8087
0.80398
0.853263
0.863316
0.802955
0.717154
0.803627
0.856515
0.843075
0.809322
0.80671
0.821259
0.857096
0.705063
0.83035
0.815106
0.849775
0.842949
0.814175
0.815657
0.811921
0.80608
0.815006
0.811293
0.655894
0.860794
0.797246
0.844657
0.865819
0.843422
0.785577
0.811606
0.844342
0.840615
0.804541
0.705366
0.813046
0.872527
0.819717
0.803187
0.79907
0.877942
0.802445
0.883153
0.822727
0.842938
0.843754
0.80662
0.807269
0.846771
0.843259
0.807719
0.845429
0.819489
0.887032
0.820887
0.811429
0.804098
0.844501
0.812407
0.839247
0.811972
0.809345
0.815634
0.843274
0.844489
0.844362
0.842317
0.832471
0.817357
0.748523
0.714028
0.846817
0.843188
0.808148
0.845361
0.668344
0.863844
0.802504
0.808616
0.842398
0.84477
0.806238
0.845272
0.803788
0.804081
0.811566
0.832189
0.784828
0.80356
0.84441
0.842331
0.834414
0.803751
0.826704
0.805157
0.814244
0.809023
0.802782
0.802763
0.803517
0.82606
0.80128
0.806924
0.851866
0.832548
0.758041
0.683878
0.809279
0.748293
0.803216
0.692034
0.806836
0.810018
0.807045
0.843224
0.834695
0.844986
0.847811
0.812465
0.806434
0.887408
0.843323
0.809076
0.78169
0.695834
0.812344
0.81061
0.779927
0.84423
0.845127
0.796154
0.80375
0.806315
0.711511
0.843514
0.805422
0.80541
0.787293
0.862824
0.812069
0.807023
0.806948
0.812372
0.813259
0.662047
0.804582
0.854702
0.84505
0.801817
0.67628
0.817094
0.844679
0.84889
0.850702
0.844904
0.80656
0.844254
0.807834
0.653166
0.811217
0.770836
0.800594
0.845575
0.740071
0.843936
0.845833
0.830722
0.70736
0.894832
0.791629
0.801148
0.799853
0.784969
0.811834
0.849419
0.811731
0.80523
0.845776
0.838319
0.789605
0.792018
0.843979
0.812166
0.83373
0.841938
0.834661
0.823603
0.802714
0.84784
0.867436
0.836344
0.820658
0.846327
0.664733
0.799432
0.842753
0.8418
0.874765
0.848422
0.820895
0.660669
0.839987
0.803867
0.844567
0.818035
0.859366
0.847177
0.812932
0.886794
0.778175
0.814849
0.846022
0.837689
0.807645
0.844456
0.700338
0.803582
0.862001
0.832902
0.814051
0.838224
0.846214
0.811661
0.730056
0.83773
0.804124
0.854015
0.842566
0.815225
0.845964
0.814609
0.837436
0.842232
0.812723
0.843334
0.776676
0.853304
0.843209
0.81704
0.847336
0.847403
0.841267
0.841918
0.84771
0.837402
0.854869
0.843054
0.803794
0.825967
0.84394
0.818957
0.816618
0.803827
0.804133
0.847724
0.843374
0.829503
0.847991
0.841598
0.803665
0.837202
0.848219
0.846925
0.804732
0.844156
0.845845
0.805398
0.848427
0.85127
0.802213
0.837383
0.823841
0.656244
0.844081
0.84289
0.837544
0.840994
0.843745
0.845175
0.842658
0.843331
0.736104
0.847774
0.80416
0.843524
0.821447
0.834208
0.844078
0.829917
0.848061
0.845599
0.844687
0.819791
0.82211
0.82856
0.847181
0.843514
0.821063
0.849734
0.846108
0.843435
0.804075
0.848584
0.846997
0.668381
0.701519
0.815504
0.844091
0.805199
0.842617
0.84344
0.840317
0.741017
0.84527
0.753436
0.835268
0.838817
0.846997
0.84463
0.845393
0.809282
0.848423
0.84403
0.839245
0.845942
0.749922
0.819458
0.842734
0.802854
0.804129
0.843702
0.865938
0.847084
0.846308
0.861283
0.842596
0.85362
0.684573
0.847269
0.84475
0.838744
0.843211
0.849623
0.843214
0.748217
0.802802
0.83143
0.803743
0.802831
0.808528
0.772733
0.846207
0.843531
0.761845
0.843176
0.827704
0.845639
0.843188
0.80253
0.842825
0.848386
0.825546
0.810919
0.829918
0.840543
0.6944
0.843363
0.843539
0.848633
0.704414
0.724207
0.658555
0.824261
0.677107
0.85299
0.755576
0.84134
0.845678
0.762179
0.834946
0.841761
0.768402
0.810593
0.84328
0.796879
0.841998
0.843414
0.843343
0.848259
0.837129
0.805622
0.763883
0.836822
0.84232
0.842343
0.801887
0.817421
0.806517
0.843388
0.845004
0.853037
0.842492
0.666066
0.838963
0.843244
0.84332
0.785165
0.817663
0.809126
0.820039
0.845289
0.663746
0.812819
0.802863
0.843516
0.842868
0.842683
0.846346
0.843262
0.839947
0.841402
0.805082
0.840732
0.859544
0.842766
0.794749
0.842126
0.678984
0.725839
0.847719
0.842995
0.8055
0.844411
0.742692
0.804167
0.803951
0.843705
0.67836
0.843197
0.803007
0.843651
0.863336
0.791171
0.844257
0.843222
0.824913
0.8448
0.779417
0.804064
0.84517
0.904606
0.827615
0.843304
0.831162
0.842626
0.866558
0.725521
0.687523
0.850658
0.804412
0.681398