# vtk DataFile Version 1.0
unstructured grid
ascii
DATASET UNSTRUCTURED_GRID
points 7812 float
-1 0 0
-1 1 0
2 0 0
2 1 0
0 0 0
1 0 0
-1 1 0.1
-1 0 0.1
0 0 0.1
1 0 0.1
2 0 0.1
2 1 0.1
-0.99 0 0
-0.98 0 0
-0.97 0 0
-0.96 0 0
-0.95 0 0
-0.94 0 0
-0.93 0 0
-0.92 0 0
-0.91 0 0
-0.9 0 0
-0.89 0 0
-0.88 0 0
-0.87 0 0
-0.86 0 0
-0.85 0 0
-0.84 0 0
-0.83 0 0
-0.82 0 0
-0.81 0 0
-0.8 0 0
-0.79 0 0
-0.78 0 0
-0.77 0 0
-0.76 0 0
-0.75 0 0
-0.74 0 0
-0.73 0 0
-0.72 0 0
-0.71 0 0
-0.7 0 0
-0.69 0 0
-0.68 0 0
-0.67 0 0
-0.66 0 0
-0.65 0 0
-0.64 0 0
-0.63 0 0
-0.62 0 0
-0.61 0 0
-0.6 0 0
-0.59 0 0
-0.58 0 0
-0.57 0 0
-0.56 0 0
-0.55 0 0
-0.54 0 0
-0.53 0 0
-0.52 0 0
-0.51 0 0
-0.5 0 0
-0.49 0 0
-0.48 0 0
-0.47 0 0
-0.46 0 0
-0.45 0 0
-0.44 0 0
-0.43 0 0
-0.42 0 0
-0.41 0 0
-0.4 0 0
-0.39 0 0
-0.38 0 0
-0.37 0 0
-0.36 0 0
-0.35 0 0
-0.34 0 0
-0.33 0 0
-0.32 0 0
-0.31 0 0
-0.3 0 0
-0.29 0 0
-0.28 0 0
-0.27 0 0
-0.26 0 0
-0.25 0 0
-0.24 0 0
-0.23 0 0
-0.22 0 0
-0.21 0 0
-0.2 0 0
-0.19 0 0
-0.18 0 0
-0.17 0 0
-0.16 0 0
-0.15 0 0
-0.14 0 0
-0.13 0 0
-0.12 0 0
-0.11 0 0
-0.1 0 0
-0.09 0 0
-0.08 0 0
-0.07 0 0
-0.06 0 0
-0.05 0 0
-0.04 0 0
-0.03 0 0
-0.02 0 0
-0.01 0 0
1.01 0 0
1.02 0 0
1.03 0 0
1.04 0 0
1.05 0 0
1.06 0 0
1.07 0 0
1.08 0 0
1.09 0 0
1.1 0 0
1.11 0 0
1.12 0 0
1.13 0 0
1.14 0 0
1.15 0 0
1.16 0 0
1.17 0 0
1.18 0 0
1.19 0 0
1.2 0 0
1.21 0 0
1.22 0 0
1.23 0 0
1.24 0 0
1.25 0 0
1.26 0 0
1.27 0 0
1.28 0 0
1.29 0 0
1.3 0 0
1.31 0 0
1.32 0 0
1.33 0 0
1.34 0 0
1.35 0 0
1.36 0 0
1.37 0 0
1.38 0 0
1.39 0 0
1.4 0 0
1.41 0 0
1.42 0 0
1.43 0 0
1.44 0 0
1.45 0 0
1.46 0 0
1.47 0 0
1.48 0 0
1.49 0 0
1.5 0 0
1.51 0 0
1.52 0 0
1.53 0 0
1.54 0 0
1.55 0 0
1.56 0 0
1.57 0 0
1.58 0 0
1.59 0 0
1.6 0 0
1.61 0 0
1.62 0 0
1.63 0 0
1.64 0 0
1.65 0 0
1.66 0 0
1.67 0 0
1.68 0 0
1.69 0 0
1.7 0 0
1.71 0 0
1.72 0 0
1.73 0 0
1.74 0 0
1.75 0 0
1.76 0 0
1.77 0 0
1.78 0 0
1.79 0 0
1.8 0 0
1.81 0 0
1.82 0 0
1.83 0 0
1.84 0 0
1.85 0 0
1.86 0 0
1.87 0 0
1.88 0 0
1.89 0 0
1.9 0 0
1.91 0 0
1.92 0 0
1.93 0 0
1.94 0 0
1.95 0 0
1.96 0 0
1.97 0 0
1.98 0 0
1.99 0 0
2 0.010289 0
2 0.0215307 0
2 0.0338135 0
2 0.0472336 0
2 0.0618965 0
2 0.0779171 0
2 0.0954213 0
2 0.114546 0
2 0.135442 0
2 0.158274 0
2 0.183219 0
2 0.210474 0
2 0.240253 0
2 0.27279 0
2 0.308339 0
2 0.347181 0
2 0.389619 0
2 0.435987 0
2 0.486649 0
2 0.542002 0
2 0.602481 0
2 0.66856 0
2 0.740758 0
2 0.819642 0
2 0.90583 0
1.9 1 0
1.8 1 0
1.7 1 0
1.6 1 0
1.5 1 0
1.4 1 0
1.3 1 0
1.2 1 0
1.1 1 0
1 1 0
0.9 1 0
0.8 1 0
0.7 1 0
0.6 1 0
0.5 1 0
0.4 1 0
0.3 1 0
0.2 1 0
0.1 1 0
3.69793e-12 1 0
-0.1 1 0
-0.2 1 0
-0.3 1 0
-0.4 1 0
-0.5 1 0
-0.6 1 0
-0.7 1 0
-0.8 1 0
-0.9 1 0
-1 0.90583 0
-1 0.819642 0
-1 0.740758 0
-1 0.66856 0
-1 0.602481 0
-1 0.542002 0
-1 0.486649 0
-1 0.435987 0
-1 0.389619 0
-1 0.347181 0
-1 0.308339 0
-1 0.27279 0
-1 0.240253 0
-1 0.210474 0
-1 0.183219 0
-1 0.158274 0
-1 0.135442 0
-1 0.114546 0
-1 0.0954213 0
-1 0.0779171 0
-1 0.0618965 0
-1 0.0472336 0
-1 0.0338135 0
-1 0.0215307 0
-1 0.010289 0
0.00921362 0.00379763 0
0.0184561 0.00752451 0
0.0277268 0.0111804 0
0.0370253 0.0147652 0
0.0463511 0.0182786 0
0.0557034 0.0217203 0
0.0650819 0.0250903 0
0.074486 0.0283883 0
0.083915 0.0316141 0
0.0933685 0.0347675 0
0.102846 0.0378484 0
0.112347 0.0408565 0
0.12187 0.0437917 0
0.131416 0.0466538 0
0.140983 0.0494427 0
0.150572 0.0521581 0
0.160181 0.0547999 0
0.16981 0.0573681 0
0.179458 0.0598623 0
0.189125 0.0622825 0
0.198811 0.0646285 0
0.208514 0.0669001 0
0.218234 0.0690974 0
0.227971 0.07122 0
0.237724 0.073268 0
0.247493 0.0752411 0
0.257276 0.0771393 0
0.267073 0.0789625 0
0.276884 0.0807105 0
0.286708 0.0823832 0
0.296545 0.0839806 0
0.306394 0.0855025 0
0.316254 0.0869488 0
0.326125 0.0883196 0
0.336006 0.0896146 0
0.345896 0.0908339 0
0.355796 0.0919773 0
0.365704 0.0930447 0
0.375621 0.0940362 0
0.385544 0.0949517 0
0.395474 0.095791 0
0.40541 0.0965542 0
0.415352 0.0972412 0
0.425299 0.097852 0
0.43525 0.0983865 0
0.445205 0.0988447 0
0.455164 0.0992266 0
0.465125 0.0995321 0
0.475088 0.0997613 0
0.485052 0.0999141 0
0.495017 0.0999904 0
0.504983 0.0999904 0
0.514948 0.0999141 0
0.524912 0.0997613 0
0.534875 0.0995321 0
0.544836 0.0992266 0
0.554795 0.0988447 0
0.56475 0.0983865 0
0.574701 0.097852 0
0.584648 0.0972412 0
0.59459 0.0965542 0
0.604526 0.095791 0
0.614456 0.0949517 0
0.624379 0.0940362 0
0.634296 0.0930447 0
0.644204 0.0919773 0
0.654104 0.0908339 0
0.663994 0.0896146 0
0.673875 0.0883196 0
0.683746 0.0869488 0
0.693606 0.0855025 0
0.703455 0.0839806 0
0.713292 0.0823832 0
0.723116 0.0807105 0
0.732927 0.0789625 0
0.742724 0.0771393 0
0.752508 0.0752411 0
0.762276 0.073268 0
0.772029 0.07122 0
0.781766 0.0690974 0
0.791486 0.0669001 0
0.801189 0.0646285 0
0.810875 0.0622825 0
0.820542 0.0598623 0
0.83019 0.0573681 0
0.839819 0.0547999 0
0.849428 0.0521581 0
0.859017 0.0494427 0
0.868584 0.0466538 0
0.87813 0.0437917 0
0.887653 0.0408565 0
0.897154 0.0378484 0
0.906631 0.0347675 0
0.916085 0.0316141 0
0.925514 0.0283883 0
0.934918 0.0250903 0
0.944297 0.0217203 0
0.953649 0.0182786 0
0.962975 0.0147652 0
0.972273 0.0111804 0
0.981544 0.00752451 0
0.990786 0.00379763 0
-1 0.90583 0.1
-1 0.819642 0.1
-1 0.740758 0.1
-1 0.66856 0.1
-1 0.602481 0.1
-1 0.542002 0.1
-1 0.486649 0.1
-1 0.435987 0.1
-1 0.389619 0.1
-1 0.347181 0.1
-1 0.308339 0.1
-1 0.27279 0.1
-1 0.240253 0.1
-1 0.210474 0.1
-1 0.183219 0.1
-1 0.158274 0.1
-1 0.135442 0.1
-1 0.114546 0.1
-1 0.0954213 0.1
-1 0.0779171 0.1
-1 0.0618965 0.1
-1 0.0472336 0.1
-1 0.0338135 0.1
-1 0.0215307 0.1
-1 0.010289 0.1
-0.99 0 0.1
-0.98 0 0.1
-0.97 0 0.1
-0.96 0 0.1
-0.95 0 0.1
-0.94 0 0.1
-0.93 0 0.1
-0.92 0 0.1
-0.91 0 0.1
-0.9 0 0.1
-0.89 0 0.1
-0.88 0 0.1
-0.87 0 0.1
-0.86 0 0.1
-0.85 0 0.1
-0.84 0 0.1
-0.83 0 0.1
-0.82 0 0.1
-0.81 0 0.1
-0.8 0 0.1
-0.79 0 0.1
-0.78 0 0.1
-0.77 0 0.1
-0.76 0 0.1
-0.75 0 0.1
-0.74 0 0.1
-0.73 0 0.1
-0.72 0 0.1
-0.71 0 0.1
-0.7 0 0.1
-0.69 0 0.1
-0.68 0 0.1
-0.67 0 0.1
-0.66 0 0.1
-0.65 0 0.1
-0.64 0 0.1
-0.63 0 0.1
-0.62 0 0.1
-0.61 0 0.1
-0.6 0 0.1
-0.59 0 0.1
-0.58 0 0.1
-0.57 0 0.1
-0.56 0 0.1
-0.55 0 0.1
-0.54 0 0.1
-0.53 0 0.1
-0.52 0 0.1
-0.51 0 0.1
-0.5 0 0.1
-0.49 0 0.1
-0.48 0 0.1
-0.47 0 0.1
-0.46 0 0.1
-0.45 0 0.1
-0.44 0 0.1
-0.43 0 0.1
-0.42 0 0.1
-0.41 0 0.1
-0.4 0 0.1
-0.39 0 0.1
-0.38 0 0.1
-0.37 0 0.1
-0.36 0 0.1
-0.35 0 0.1
-0.34 0 0.1
-0.33 0 0.1
-0.32 0 0.1
-0.31 0 0.1
-0.3 0 0.1
-0.29 0 0.1
-0.28 0 0.1
-0.27 0 0.1
-0.26 0 0.1
-0.25 0 0.1
-0.24 0 0.1
-0.23 0 0.1
-0.22 0 0.1
-0.21 0 0.1
-0.2 0 0.1
-0.19 0 0.1
-0.18 0 0.1
-0.17 0 0.1
-0.16 0 0.1
-0.15 0 0.1
-0.14 0 0.1
-0.13 0 0.1
-0.12 0 0.1
-0.11 0 0.1
-0.1 0 0.1
-0.09 0 0.1
-0.08 0 0.1
-0.07 0 0.1
-0.06 0 0.1
-0.05 0 0.1
-0.04 0 0.1
-0.03 0 0.1
-0.02 0 0.1
-0.01 0 0.1
0.00921362 0.00379763 0.1
0.0184561 0.00752451 0.1
0.0277268 0.0111804 0.1
0.0370253 0.0147652 0.1
0.0463511 0.0182786 0.1
0.0557034 0.0217203 0.1
0.0650819 0.0250903 0.1
0.074486 0.0283883 0.1
0.083915 0.0316141 0.1
0.0933685 0.0347675 0.1
0.102846 0.0378484 0.1
0.112347 0.0408565 0.1
0.12187 0.0437917 0.1
0.131416 0.0466538 0.1
0.140983 0.0494427 0.1
0.150572 0.0521581 0.1
0.160181 0.0547999 0.1
0.16981 0.0573681 0.1
0.179458 0.0598623 0.1
0.189125 0.0622825 0.1
0.198811 0.0646285 0.1
0.208514 0.0669001 0.1
0.218234 0.0690974 0.1
0.227971 0.07122 0.1
0.237724 0.073268 0.1
0.247493 0.0752411 0.1
0.257276 0.0771393 0.1
0.267073 0.0789625 0.1
0.276884 0.0807105 0.1
0.286708 0.0823832 0.1
0.296545 0.0839806 0.1
0.306394 0.0855025 0.1
0.316254 0.0869488 0.1
0.326125 0.0883196 0.1
0.336006 0.0896146 0.1
0.345896 0.0908339 0.1
0.355796 0.0919773 0.1
0.365704 0.0930447 0.1
0.375621 0.0940362 0.1
0.385544 0.0949517 0.1
0.395474 0.095791 0.1
0.40541 0.0965542 0.1
0.415352 0.0972412 0.1
0.425299 0.097852 0.1
0.43525 0.0983865 0.1
0.445205 0.0988447 0.1
0.455164 0.0992266 0.1
0.465125 0.0995321 0.1
0.475088 0.0997613 0.1
0.485052 0.0999141 0.1
0.495017 0.0999904 0.1
0.504983 0.0999904 0.1
0.514948 0.0999141 0.1
0.524912 0.0997613 0.1
0.534875 0.0995321 0.1
0.544836 0.0992266 0.1
0.554795 0.0988447 0.1
0.56475 0.0983865 0.1
0.574701 0.097852 0.1
0.584648 0.0972412 0.1
0.59459 0.0965542 0.1
0.604526 0.095791 0.1
0.614456 0.0949517 0.1
0.624379 0.0940362 0.1
0.634296 0.0930447 0.1
0.644204 0.0919773 0.1
0.654104 0.0908339 0.1
0.663994 0.0896146 0.1
0.673875 0.0883196 0.1
0.683746 0.0869488 0.1
0.693606 0.0855025 0.1
0.703455 0.0839806 0.1
0.713292 0.0823832 0.1
0.723116 0.0807105 0.1
0.732927 0.0789625 0.1
0.742724 0.0771393 0.1
0.752508 0.0752411 0.1
0.762276 0.073268 0.1
0.772029 0.07122 0.1
0.781766 0.0690974 0.1
0.791486 0.0669001 0.1
0.801189 0.0646285 0.1
0.810875 0.0622825 0.1
0.820542 0.0598623 0.1
0.83019 0.0573681 0.1
0.839819 0.0547999 0.1
0.849428 0.0521581 0.1
0.859017 0.0494427 0.1
0.868584 0.0466538 0.1
0.87813 0.0437917 0.1
0.887653 0.0408565 0.1
0.897154 0.0378484 0.1
0.906631 0.0347675 0.1
0.916085 0.0316141 0.1
0.925514 0.0283883 0.1
0.934918 0.0250903 0.1
0.944297 0.0217203 0.1
0.953649 0.0182786 0.1
0.962975 0.0147652 0.1
0.972273 0.0111804 0.1
0.981544 0.00752451 0.1
0.990786 0.00379763 0.1
1.01 0 0.1
1.02 0 0.1
1.03 0 0.1
1.04 0 0.1
1.05 0 0.1
1.06 0 0.1
1.07 0 0.1
1.08 0 0.1
1.09 0 0.1
1.1 0 0.1
1.11 0 0.1
1.12 0 0.1
1.13 0 0.1
1.14 0 0.1
1.15 0 0.1
1.16 0 0.1
1.17 0 0.1
1.18 0 0.1
1.19 0 0.1
1.2 0 0.1
1.21 0 0.1
1.22 0 0.1
1.23 0 0.1
1.24 0 0.1
1.25 0 0.1
1.26 0 0.1
1.27 0 0.1
1.28 0 0.1
1.29 0 0.1
1.3 0 0.1
1.31 0 0.1
1.32 0 0.1
1.33 0 0.1
1.34 0 0.1
1.35 0 0.1
1.36 0 0.1
1.37 0 0.1
1.38 0 0.1
1.39 0 0.1
1.4 0 0.1
1.41 0 0.1
1.42 0 0.1
1.43 0 0.1
1.44 0 0.1
1.45 0 0.1
1.46 0 0.1
1.47 0 0.1
1.48 0 0.1
1.49 0 0.1
1.5 0 0.1
1.51 0 0.1
1.52 0 0.1
1.53 0 0.1
1.54 0 0.1
1.55 0 0.1
1.56 0 0.1
1.57 0 0.1
1.58 0 0.1
1.59 0 0.1
1.6 0 0.1
1.61 0 0.1
1.62 0 0.1
1.63 0 0.1
1.64 0 0.1
1.65 0 0.1
1.66 0 0.1
1.67 0 0.1
1.68 0 0.1
1.69 0 0.1
1.7 0 0.1
1.71 0 0.1
1.72 0 0.1
1.73 0 0.1
1.74 0 0.1
1.75 0 0.1
1.76 0 0.1
1.77 0 0.1
1.78 0 0.1
1.79 0 0.1
1.8 0 0.1
1.81 0 0.1
1.82 0 0.1
1.83 0 0.1
1.84 0 0.1
1.85 0 0.1
1.86 0 0.1
1.87 0 0.1
1.88 0 0.1
[...]
CELL_DATA 7425
SCALARS rho float
LOOKUP_TABLE default
0.588858
0.805135
0.820027
0.827915
0.79991
0.819608
0.821266
0.814704
0.813624
0.739212
0.863685
0.810244
0.814477
0.827772
0.804146
0.817656
0.799199
0.813883
0.803549
0.76766
0.831653
0.822231
0.725408
0.828448
0.803959
0.704616
0.831576
0.849125
0.800281
0.80822
0.819733
0.724992
0.803697
0.653486
0.522554
0.828415
0.803581
0.814683
0.811356
0.828377
0.717279
0.705532
0.790388
0.698897
0.588527
0.748757
0.799778
0.814414
0.666633
0.718924
0.746467
0.805254
0.812529
0.799529
0.708351
0.696093
0.823353
0.800417
0.739086
0.701745
0.711514
0.807777
0.813855
0.799809
0.798895
0.818104
0.585987
0.773754
0.701158
0.808154
0.804521
0.803245
0.883542
0.821305
0.81104
0.813682
0.805152
0.800547
0.813859
0.757947
0.816503
0.807357
0.810886
0.789122
0.836184
0.801512
0.576042
0.83031
0.544949
0.848759
0.703079
0.730346
0.846063
0.803252
0.817896
0.759088
0.836423
0.788279
0.826045
0.80295
0.808605
0.738706
0.80336
0.82861
0.598625
0.811275
0.824774
0.70853
0.815542
0.799641
0.81721
0.78495
0.790179
0.812562
0.790123
0.786594
0.831624
0.803145
0.698194
0.641366
0.805149
0.777719
0.813591
0.790651
0.859181
0.839537
0.807818
0.804655
0.662242
0.507404
0.815025
0.656449
0.51825
0.868737
0.667346
0.800004
0.811275
0.724333
0.583615
0.726246
0.724495
0.809966
0.810258
0.705744
0.80349
0.779961
0.567038
0.789079
0.782589
0.828169
0.817126
0.704371
0.803337
0.744512
0.704068
0.803357
0.810645
0.830793
0.797972
0.654884
0.8027
0.700287
0.801525
0.830131
0.820918
0.802457
0.813699
0.785242
0.806417
0.801104
0.820179
0.804965
0.79173
0.799602
0.800225
0.741277
0.804135
0.759582
0.596403
0.701106
0.800131
0.793184
0.879945
0.832187
0.650092
0.823365
0.799109
0.827851
0.800308
0.814007
0.813275
0.803272
0.807085
0.703386
0.815556
0.819713
0.770499
0.797603
0.862027
0.807908
0.812119
0.811808
0.614184
0.839595
0.574655
0.534814
0.596895
0.60432
0.828536
0.879484
0.80764
0.798773
0.841632
0.813621
0.817182
0.821223
0.815742
0.639038
0.559148
0.814316
0.548095
0.594801
0.702224
0.812221
0.814627
0.813683
0.833492
0.813582
0.865171
0.708078
0.835553
0.71459
0.805316
0.804006
0.802115
0.714764
0.721957
0.620555
0.703379
0.863844
0.876533
0.80678
0.807816
0.799344
0.811851
0.717679
0.822058
0.800683
0.826101
0.794824
0.810477
0.721192
0.813478
0.824167
0.740997
0.53067
0.800229
0.736408
0.843643
0.814897
0.726125
0.816106
0.815392
0.850176
0.810098
0.804427
0.803321
0.826069
0.860997
0.80593
0.620283
0.84916
0.812581
0.805711
0.827937
0.837617
0.813604
0.821862
0.793724
0.815617
0.867608
0.850174
0.827723
0.837083
0.802845
0.817664
0.803235
0.759914
0.702842
0.582478
0.698815
0.802819
0.813537
0.816511
0.855551
0.779975
0.64675
0.827486
0.524071
0.774738
0.801398
0.647418
0.502733
0.640119
0.815739
0.813856
0.813619
0.813307
0.827123
0.774763
0.81161
0.802761
0.813579
0.841033
0.868145
0.833909
0.802958
0.701952
0.79632
0.834566
0.692487
0.799209
0.802176
0.864988
0.817605
0.594393
0.813996
0.741706
0.853119
0.732904
0.810708
0.907737
0.800354
0.79612
0.660018
0.636625
0.709991
0.781209
0.826943
0.815482
0.814285
0.883635
0.85893
0.800018
0.799539
0.826227
0.740111
0.802714
0.879555
0.801453
0.805245
0.801153
0.802641
0.81358
0.816251
0.816887
0.63784
0.830379
0.648435
0.808739
0.640943
0.803086
0.802343
0.840578
0.730056
0.816517
0.80908
0.817485
0.799903
0.802567
0.811468
0.699285
0.824663
0.813695
0.813542
0.800766
0.737051
0.561522
0.80653
0.811655
0.803253
0.813562
0.795198
0.510714
0.84645
0.813922
0.803931
0.786153
0.813882
0.805008
0.80339
0.816758
0.807626
0.822947
0.769111
0.813007
0.807908
0.564287
0.803604
0.641128
0.839015
0.637292
0.815236
0.878075
0.596616
0.818349
0.749584
0.804522
0.873508
0.536741
0.82355
0.822702
0.803576
0.826152
0.811354
0.82389
0.831017
0.825248
0.740879
0.827922
0.761584
0.810563
0.794437
0.794056
0.759165
0.805732
0.802143
0.814952
0.753201
0.804994
0.605823
0.615563
0.691012
0.81343
0.844491
0.865059
0.830234
0.799064
0.81331
0.8052
0.818939
0.681438
0.801371
0.743651
0.824357
0.81532
0.805963
0.710005
0.728017
0.536009
0.606798
0.801698
0.612527
0.79309
0.765689
0.770533
0.726489
0.763028
0.768137
0.810039
0.815481
0.820022
0.812108
0.711989
0.606178
0.839351
0.807438
0.783448
0.810399
0.802806
0.836904
0.72004
0.855543
0.763965
0.729956
0.765182
0.812045
0.547295
0.799292
0.841935
0.813649
0.814375
0.810304
0.799665
0.780929
0.835987
0.803172
0.843286
0.721773
0.706166
0.800637
0.795584
0.822462
0.709805
0.84825
0.800937
0.816568
0.799178
0.7795
0.808802
0.59598
0.678368
0.633446
0.813513
0.804177
0.826755
0.749796
0.810724
0.815353
0.820853
0.799455
0.730717
0.797412
0.814869
0.803259
0.705517
0.81419
0.819365
0.840367
0.811417
0.825755
0.862489
0.857493
0.744818
0.604733
0.838296
0.80614
0.843632
0.814798
0.823233
0.814126
0.814392
0.644104
0.805758
0.809767
0.813496
0.79231
0.810946
0.805224
0.861479
0.799142
0.813411
0.81527
0.872117
0.598971
0.814062
0.843142
0.88346
0.532721
0.816921
0.830341
0.79632
0.814918
0.795381
0.867806
0.812587
0.831727
0.813298
0.620561
0.802525
0.804248
0.692859
0.853364
0.759728
0.801998
0.814553
0.813346
0.860635
0.79553
0.833922
0.835078
0.784894
0.82549
0.843014
0.800216
0.811007
0.807463
0.805425
0.815324
0.802702
0.845512
0.769605
0.809928
0.803299
0.815585
0.724072
0.813561
0.818844
0.753142
0.814185
0.816763
0.828117
0.825534
0.801155
0.800986
0.85073
0.767848
0.825745
0.844503
0.804662
0.508982
0.813545
0.828679
0.852612
0.813177
0.803192
0.8087
0.855273
0.780093
0.802679
0.801626
0.813601
0.728795
0.803064
0.830322
0.808605
0.79517
0.794069
0.843513
0.806722
0.845563
0.80208
0.82468
0.813361
0.804311
0.842109
0.813514
0.68105
0.819265
0.80722
0.813433
0.906231
0.801107
0.816335
0.800762
0.80074
0.816729
0.800842
0.803474
0.78377
0.74755
0.807053
0.813567
0.758593
0.791954
0.823457
0.813153
0.822706
0.806603
0.826192
0.875471
0.831033
0.578564
0.709505
0.84108
0.817796
0.844449
0.815307
0.85036
0.807849
0.812764
0.799793
0.838735
0.861169
0.853062
0.732451
0.814671
0.822608
0.743629
0.817672
0.776329
0.80053
0.733914
0.816593
0.831249
0.823668
0.862861
0.814782
0.813922
0.810754
0.815194
0.836105
0.812344
0.79912
0.810365
0.738466
0.812001
0.774126
0.833177
0.813304
0.639838
0.777958
0.81161
0.799624
0.820303
0.802956
0.815227
0.817808
0.804801
0.81987
0.80426
0.806394
0.599863
0.847341
0.825551
0.827117
0.815448
0.803303
0.702612
0.807072
0.90792
0.814159
0.801557
0.813488
0.782597
0.807817
0.81386
0.821747
0.814795
0.813857
0.816767
0.696965
0.778409
0.765271
0.8133
0.805626
0.801547
0.622555
0.806246
0.80308
0.709243
0.83762
0.817709
0.80254
0.807911
0.799783
0.817749
0.814321
0.813915
0.813555
0.710379
0.832036
0.800453
0.807971
0.843264
0.818125
0.816814
0.800595
0.753922
0.824243
0.787963
0.821889
0.789671
0.80622
0.821418
0.737805
0.81785
0.654239
0.872226
0.705181
0.845313
0.801341
0.875325
0.794113
0.801918
0.82114
0.836666
0.838725
0.825862
0.820306
0.815238
0.801623
0.804342
0.80849
0.727464
0.827504
0.800193
0.719302
0.830878
0.700786
0.800516
0.861334
0.805709
0.70387
0.798056
0.814673
0.703475
0.785728
0.81986
0.832176
0.807527
0.586762
0.730253
0.812558
0.801861
0.813598
0.801094
0.737844
0.814588
0.816258
0.813161
0.775824
0.803332
0.804613
0.804146
0.562033
0.813391
0.834396
0.582323
0.815719
0.816636
0.815261
0.818856
0.81499
0.824967
0.799593
0.795284
0.77102
0.823163
0.829938
0.825368
0.835624
0.76596
0.809603
0.726074
0.772713
0.8093
0.821538
0.813906
0.801066
0.85919
0.8136
0.800869
0.810208
0.816617
0.81574
0.836981
0.815066
0.813465
0.81211
0.814415
0.800681
0.821454
0.803884
0.823277
0.814083
0.577982
0.814128
0.834827
0.85895
0.838504
0.494786
0.817326
0.804934
0.499941
0.671214
0.646938
0.834626
0.808366
0.811782
0.813435
0.803241
0.817269
0.811251
0.536886
0.688432
0.818486
0.806738
0.816152
0.803588
0.810414
0.811553
0.820689
0.799893
0.694518
0.856868
0.803189
0.814875
0.814216
0.758295
0.489801
0.833267
0.813852
0.74158
0.802744
0.806806
0.594165
0.827851
0.815326
0.828129
0.819272
0.826591
0.804833
0.721302
0.644564
0.563665
0.825743
0.809099
0.783008
0.813626
0.780367
0.818393
0.873486
0.762868
0.822068
0.814098
0.826252
0.883725
0.815009
0.812453
0.803403
0.813999
0.693109
0.828612
0.800255
0.810767
0.802358
0.784514
0.85443
0.822489
0.840745
0.821983
0.757508
0.756382
0.803839
0.818581
0.803112
0.805351
0.802738
0.776256
0.815241
0.762262
0.821713
0.663017
0.814553
0.803097
0.735186
0.823563
0.818405
0.740577
0.801316
0.757793
0.88188
0.800811
0.813522
0.763262
0.80061
0.81485
0.80404
0.591356
0.82127
0.799069
0.801884
0.815095
0.826012
0.757882
0.806029
0.842351
0.827523
0.814363
0.836193
0.695564
0.700917
0.813598
0.744735
0.822671
0.771843
0.813513
0.802632
0.81079
0.752512
0.794371
0.76495
0.810463
0.803183
0.632209
0.779413
0.799347
0.849817
0.814943
0.829052
0.529241
0.825533
0.785551
0.858985
0.801038
0.818274
0.800794
0.78626
0.799208
0.826103
0.836038
0.822087
0.817619
0.70594
0.774401
0.815834
0.805485
0.810633
0.804
0.704451
0.793262
0.803779
0.811177
0.827642
0.851439
0.832231
0.814081
0.799908
0.804626
0.802369
0.779995
0.612913
0.800851
0.732357
0.662973
0.823228
0.799278
0.777295
0.800418
0.754698
0.785551
0.812139
0.822636
0.803788
0.816529
0.817763
0.82098
0.81401
0.808873
0.71283
0.700195
0.64189
0.829674
0.86977
0.815697
0.841723
0.848118
0.863935
0.73706
0.817027
0.863226
0.810652
0.813557
0.816593
0.733635
0.812962
0.807217
0.806718
0.520043
0.813625
0.761733
0.813784
0.813954
0.803617
0.704302
0.813821
0.61189
0.825344
0.802663
0.822551
0.855427
0.803513
0.79555
0.821397
0.812166
0.805968
0.762786
0.513304
0.821353
0.803205
0.829568
0.826178
0.802638
0.807141
0.83478
0.721744
0.504113
0.886406
0.801058
0.816228
0.804422
0.70944
0.799097
0.800458
0.815618
0.737347
0.6475
0.883393
0.714971
0.836898
0.812593
0.833259
0.842976
0.792731
0.80484
0.814186
0.853007
0.738905
0.870879
0.814602
0.564397
0.80297
0.7487
0.853183
0.760979
0.804313
0.80404
0.800045
0.801788
0.809474
0.813585
0.856305
0.806479
0.802908
0.801382
0.800422
0.812922
0.817389
0.80267
0.813167
0.849495
0.803133
0.783925
0.80232
0.840234
0.726654
0.814232
0.814407
0.650635
0.713922
0.805705
0.823444
0.804131
0.514845
0.857197
0.813786
0.833622
0.80541
0.803376
0.801516
0.786754
0.588415
0.804442
0.816631
0.836296
0.821032
0.813614
0.7987
0.747968
0.801728
0.766548
0.787799
0.799784
0.791171
0.751207
0.801228
0.812034
0.810968
0.832505
0.849844
0.555455
0.842225
0.813528
0.821004
0.802373
0.822846
0.811759
0.894737
0.800615
0.868121
0.805827
0.760451
0.862322
0.802385
0.80034
0.824569
0.661401
0.646305
0.803469
0.803956
0.699364
0.655288
0.799996
0.82428
0.81368
0.823033
0.734037
0.81756
0.813479
0.826548
0.817392
0.812077
0.813549
0.755128
0.804368
0.816204
0.812014
0.677081
0.568091
0.813586
0.65096
0.722569
0.55689
0.841714
0.800545
0.530401
0.602092
0.82782
0.908152
0.818638
0.65333
0.81473
0.786904
0.802099
0.786832
0.821248
0.810576
0.788544
0.821495
0.801524
0.589345
0.818321
0.767238
0.816443
0.699443
0.822666
0.790126
0.814529
0.800524
0.663844
0.843765
0.806931
0.80713
0.497334
0.817346
0.800773
0.852997
0.710658
0.817596
0.588396
0.720701
0.801774
0.797103
0.734108
0.716605
0.714638
0.510584
0.597195
0.800485
0.521083
0.823045
0.525705
0.757718
0.673101
0.605352
0.543832
0.746007
0.803128
0.713778
0.821754
0.801218
0.803256
0.76171
0.889816
0.799518
0.824906
0.803535
0.813464
0.706709
0.808018
0.737313
0.822362
0.886189
0.833899
0.748365
0.823227
0.771019
0.880052
0.804287
0.759178
0.850965
0.777366
0.800023
0.805837
0.758754
0.745723
0.670093
0.805084
0.803074
0.818382
0.833849
0.612574
0.808459
0.540714
0.669492
0.619654
0.819082
0.821499
0.80958
0.804068
0.6168
0.872629
0.802726
0.802984
0.863745
0.813108
0.772499
0.812844
0.802437
0.8184
0.803177
0.717739
0.803711
0.658126
0.799436
0.804559
0.801698
0.640133
0.811928
0.810673
0.725946
0.818309
0.551305
0.5783
0.804254
0.697276
0.726576
0.573633
0.724659
0.814223
0.70519
0.773376
0.715777
0.813141
0.671144
0.762619
0.806718
0.81116
0.656037
0.802066
0.895278
0.79691
0.817312
0.58801
0.694693
0.80146
0.813609
0.814584
0.851898
0.813275
0.804393
0.803841
0.803412
0.714664
0.716978
0.616946
0.772079
0.536658
0.723003
0.810499
0.814963
0.806613
0.799743
0.549518
0.809634
0.803846
0.556203
0.546153
0.747157
0.80366
0.806645
0.55122
0.798465
0.571312
0.722251
0.609165
0.813825
0.802614
0.598522
0.609567
0.868099
0.810336
0.765915
0.718911
0.624337
0.65629
0.707864
0.81652
0.760282
0.765468
0.625241
0.754499
0.809867
0.815904
0.813125
0.816013
0.866571
0.755385
0.819407
0.803482
0.851534
0.81354
0.80284
0.813708
0.721578
0.813451
0.812504
0.815695
0.811677
0.816395
0.803334
0.81841
0.810921
0.810284
0.817756
0.800219
0.81709
0.819433
0.668415
0.819092
0.868622
0.818656
0.793128
0.646913
0.858825
0.819273
0.825311
0.799996
0.811888
0.757401
0.852815
0.565694
0.728164
0.809995
0.816201
0.803968
0.803433
0.832421
0.805556
0.805518
0.815808
0.781148
0.838888
0.842251
0.815628
0.665269
0.617271
0.816297
0.817121
0.788881
0.849911
0.847526
0.811406
0.814135
0.77827
0.814645
0.81832
0.814674
0.819259
0.813619
0.816355
0.851317
0.816498
0.815018
0.818054
0.818259
0.78518
0.81463
0.804515
0.804681
0.805028
0.819055
0.812147
0.788815
0.753753
0.813279
0.806388
0.809358
0.80649
0.857982
0.803715
0.814547
0.813342
0.805543
0.651604
0.803985
0.813391
0.815548
0.810455
0.813438
0.813905
0.813659
0.810302
0.864585
0.505038
0.813472
0.841959
0.813291
0.803101
0.808639
0.815548
0.840005
0.800889
0.801739
0.81295
0.700458
0.813493
0.808592
0.807866
0.813171
0.813523
0.813657
0.813971
0.515196
0.81205
0.717671
0.885983
0.821485
0.732816
0.676544
0.815901
0.803922
0.819127
0.647506
0.801892
0.813944
0.648966
0.800304
0.804247
0.816013
0.80663
0.856989
0.80997
0.608196
0.801176
0.775161
0.81137
0.889209
0.803696
0.815666
0.819635
0.83248
0.814006
0.82284
0.83667
0.636045
0.803075
0.656759
0.814332
0.814236
0.711338
0.814125
0.805296
0.712313
0.815366
0.703355
0.861307
0.784454
0.814862
0.813548
0.814024
0.66922
0.814246
0.634255
0.800542
0.792598
0.822726
0.815721
0.717222
0.766644
0.83043
0.813362
0.821609
0.822347
0.814041
0.825746
0.799913
0.553787
0.754792
0.759917
0.730776
0.837943
0.822954
0.834643
0.776697
0.802837
0.813667
0.813603
0.813604
0.77506
0.565408
0.803269
0.531889
0.808598
0.824868
0.800142
0.803843
0.813539
0.806161
0.783133
0.732722
0.813992
0.859356
0.814093
0.799701
0.736598
0.810141
0.788967
0.83399
0.508065
0.796141
0.806424
0.799319
0.692469
0.813466
0.81121
0.857923
0.570588
0.807472
0.803329
0.813418
0.615243
0.813712
0.803392
0.803471
0.803099
0.813816
0.813908
0.816607
0.813675
0.716596
0.804613
0.803258
0.813632
0.896275
0.813765
0.774502
0.841584
0.799287
0.803181
0.602653
0.813532
0.80342
0.826237
0.802108
0.866435
0.815226
0.854116
0.800789
0.821081
0.778239
0.560102
0.753465
0.794734
0.804452
0.814065
0.814372
0.557289
0.861977
0.858754
0.769126
0.757887
0.73866
0.81264
0.848974
0.813566
0.814007
0.813601
0.804366
0.726661
0.803585
0.799532
0.764096
0.824669
0.823423
0.862032
0.816157
0.813615
0.534367
0.809005
0.813575
0.801066
0.774436
0.818222
0.803155
0.813477
0.827279
0.798626
0.803905
0.801499
0.815594
0.839427
0.802811
0.799561
0.801987
0.766051
0.820319
0.568742
0.868552
0.803784
0.547604
0.803545
0.803526
0.820041
0.599756
0.607521
0.801921
0.804105
0.801254
0.860924
0.780279
0.815076
0.803018
0.866735
0.804809
0.80454
0.826615
0.816394
0.820647
0.821703
0.820763
0.867653
0.729907
0.852369
0.817675
0.65468
0.802875
0.803272
0.803729
0.821557
0.82391
0.804271
0.801472
0.800459
0.823097
0.803501
0.803708
0.800094
0.824789
0.804058
0.80219
0.806185
0.828233
0.801033
0.80189
0.82487
0.799969
0.8159
0.652295
0.826776
0.85008
0.805138
0.820024
0.803336
0.829119
0.837814
0.803464
0.821902
0.800844
0.807427
0.789736
0.802335
0.803469
0.80646
0.806177
0.804929
0.818998
0.815279
0.811395
0.831761
0.802632
0.802338
0.800316
0.789075
0.834112
0.803258
0.819754
0.815727
0.807349
0.805399
0.802991
0.839202
0.865697
0.800006
0.679788
0.801443
0.842444
0.81708
0.805615
0.804552
0.819948
0.844858
0.607857
0.829364
0.794969
0.851221
0.819183
0.812185
0.813524
0.808667
0.804041
0.812987
0.808929
0.593053
0.848251
0.794827
0.814728
0.854828
0.819729
0.763675
0.808891
0.81499
0.815929
0.803099
0.662686
0.809715
0.863362
0.802965
0.800998
0.776008
0.871382
0.800699
0.877222
0.807044
0.817639
0.821047
0.802731
0.804138
0.813212
0.81638
0.803946
0.813897
0.817198
0.881497
0.820908
0.809417
0.800609
0.828737
0.810612
0.839495
0.809109
0.80705
0.812644
0.817035
0.830213
0.814207
0.822918
0.832818
0.814677
0.701507
0.693827
0.813643
0.818212
0.804313
0.813696
0.518035
0.855075
0.800129
0.806329
0.814448
0.81404
0.804069
0.813061
0.800862
0.801513
0.808408
0.815097
0.757635
0.785057
0.823348
0.843415
0.835112
0.800673
0.805529
0.803422
0.813064
0.805996
0.799947
0.800178
0.801287
0.811236
0.79799
0.803212
0.835818
0.83192
0.731183
0.703971
0.807753
0.700864
0.799963
0.577761
0.80453
0.807189
0.803518
0.818624
0.834378
0.814476
0.813476
0.810403
0.803978
0.88167
0.816757
0.805302
0.772658
0.590564
0.810356
0.807091
0.769813
0.814947
0.814428
0.79168
0.800865
0.804137
0.632462
0.830722
0.803574
0.782088
0.779655
0.852932
0.810101
0.803338
0.803102
0.810744
0.811224
0.522158
0.802049
0.839798
0.814476
0.798766
0.590786
0.814857
0.814612
0.813582
0.834065
0.814466
0.804097
0.822311
0.806099
0.577283
0.808816
0.737543
0.798618
0.814198
0.722938
0.815443
0.846716
0.831885
0.665455
0.891017
0.785864
0.778004
0.797051
0.779702
0.808926
0.850719
0.808422
0.803029
0.814116
0.809394
0.782922
0.786196
0.814415
0.8088
0.83513
0.821665
0.83596
0.801761
0.800135
0.813657
0.856846
0.81685
0.818752
0.813925
0.608538
0.795719
0.824255
0.829611
0.866097
0.813233
0.819243
0.512231
0.810285
0.800968
0.813172
0.815284
0.847832
0.813649
0.811212
0.881636
0.765134
0.812769
0.813811
0.809544
0.805341
0.814761
0.656867
0.800652
0.849789
0.833777
0.811036
0.814016
0.813943
0.809679
0.701152
0.812961
0.800639
0.838877
0.818917
0.812132
0.83162
0.793216
0.812026
0.818261
0.809318
0.819729
0.745241
0.855444
0.819408
0.814288
0.813656
0.813311
0.81618
0.817607
0.813362
0.811273
0.841355
0.819041
0.80059
0.82552
0.827282
0.816538
0.814692
0.800771
0.80177
0.813652
0.819469
0.82966
0.813412
0.816913
0.800298
0.810457
0.813453
0.813396
0.802579
0.815185
0.813897
0.803417
0.81348
0.835966
0.800169
0.80994
0.822074
0.562059
0.814739
0.818615
0.815931
0.815477
0.822372
0.829147
0.816105
0.819282
0.702213
0.813664
0.801627
0.816113
0.81947
0.835342
0.821981
0.815843
0.829728
0.825328
0.811269
0.819322
0.820072
0.804699
0.813749
0.8161
0.819694
0.832453
0.813213
0.816191
0.802783
0.813554
0.813642
0.526646
0.629764
0.814489
0.821857
0.802093
0.82285
0.816396
0.842167
0.708848
0.814296
0.731558
0.817755
0.810828
0.813751
0.829654
0.81421
0.805403
0.813537
0.830366
0.840049
0.813374
0.719876
0.819429
0.816508
0.800297
0.803071
0.815813
0.856141
0.813247
0.813946
0.849939
0.829279
0.843491
0.576965
0.829458
0.814483
0.811398
0.817864
0.85131
0.818222
0.719047
0.799967
0.832001
0.800258
0.800131
0.805644
0.748381
0.813968
0.81486
0.726469
0.814865
0.827573
0.81388
0.814546
0.799667
0.81882
0.813601
0.824072
0.808813
0.80863
0.815433
0.705177
0.819516
0.814599
0.81359
0.641535
0.717562
0.600625
0.8235
0.534963
0.854624
0.727943
0.843102
0.813104
0.724489
0.821695
0.816347
0.743119
0.807893
0.818803
0.794512
0.816981
0.816352
0.816281
0.813599
0.808414
0.803736
0.737877
0.836763
0.820577
0.817071
0.799619
0.815639
0.802528
0.816493
0.81401
0.855328
0.818219
0.501382
0.813767
0.819231
0.819107
0.77835
0.815948
0.806827
0.818777
0.846075
0.597892
0.809578
0.799767
0.815818
0.818074
0.81814
0.81304
0.819044
0.814326
0.81506
0.803143
0.814751
0.846381
0.814442
0.792091
0.812029
0.623726
0.718412
0.813665
0.817459
0.803126
0.822708
0.735574
0.803185
0.803211
0.820632
0.701102
0.818053
0.799822
0.815913
0.86563
0.785752
0.822357
0.818429
0.823314
0.814556
0.770005
0.802531
0.814116
0.902385
0.827405
0.816904
0.832471
0.810183
0.869233
0.718561
0.703813
0.85292
0.80276
0.702838