# vtk DataFile Version 1.0
unstructured grid
ascii
DATASET UNSTRUCTURED_GRID
points 7812 float
-1 0 0
-1 1 0
2 0 0
2 1 0
0 0 0
1 0 0
-1 1 0.1
-1 0 0.1
0 0 0.1
1 0 0.1
2 0 0.1
2 1 0.1
-0.99 0 0
-0.98 0 0
-0.97 0 0
-0.96 0 0
-0.95 0 0
-0.94 0 0
-0.93 0 0
-0.92 0 0
-0.91 0 0
-0.9 0 0
-0.89 0 0
-0.88 0 0
-0.87 0 0
-0.86 0 0
-0.85 0 0
-0.84 0 0
-0.83 0 0
-0.82 0 0
-0.81 0 0
-0.8 0 0
-0.79 0 0
-0.78 0 0
-0.77 0 0
-0.76 0 0
-0.75 0 0
-0.74 0 0
-0.73 0 0
-0.72 0 0
-0.71 0 0
-0.7 0 0
-0.69 0 0
-0.68 0 0
-0.67 0 0
-0.66 0 0
-0.65 0 0
-0.64 0 0
-0.63 0 0
-0.62 0 0
-0.61 0 0
-0.6 0 0
-0.59 0 0
-0.58 0 0
-0.57 0 0
-0.56 0 0
-0.55 0 0
-0.54 0 0
-0.53 0 0
-0.52 0 0
-0.51 0 0
-0.5 0 0
-0.49 0 0
-0.48 0 0
-0.47 0 0
-0.46 0 0
-0.45 0 0
-0.44 0 0
-0.43 0 0
-0.42 0 0
-0.41 0 0
-0.4 0 0
-0.39 0 0
-0.38 0 0
-0.37 0 0
-0.36 0 0
-0.35 0 0
-0.34 0 0
-0.33 0 0
-0.32 0 0
-0.31 0 0
-0.3 0 0
-0.29 0 0
-0.28 0 0
-0.27 0 0
-0.26 0 0
-0.25 0 0
-0.24 0 0
-0.23 0 0
-0.22 0 0
-0.21 0 0
-0.2 0 0
-0.19 0 0
-0.18 0 0
-0.17 0 0
-0.16 0 0
-0.15 0 0
-0.14 0 0
-0.13 0 0
-0.12 0 0
-0.11 0 0
-0.1 0 0
-0.09 0 0
-0.08 0 0
-0.07 0 0
-0.06 0 0
-0.05 0 0
-0.04 0 0
-0.03 0 0
-0.02 0 0
-0.01 0 0
1.01 0 0
1.02 0 0
1.03 0 0
1.04 0 0
1.05 0 0
1.06 0 0
1.07 0 0
1.08 0 0
1.09 0 0
1.1 0 0
1.11 0 0
1.12 0 0
1.13 0 0
1.14 0 0
1.15 0 0
1.16 0 0
1.17 0 0
1.18 0 0
1.19 0 0
1.2 0 0
1.21 0 0
1.22 0 0
1.23 0 0
1.24 0 0
1.25 0 0
1.26 0 0
1.27 0 0
1.28 0 0
1.29 0 0
1.3 0 0
1.31 0 0
1.32 0 0
1.33 0 0
1.34 0 0
1.35 0 0
1.36 0 0
1.37 0 0
1.38 0 0
1.39 0 0
1.4 0 0
1.41 0 0
1.42 0 0
1.43 0 0
1.44 0 0
1.45 0 0
1.46 0 0
1.47 0 0
1.48 0 0
1.49 0 0
1.5 0 0
1.51 0 0
1.52 0 0
1.53 0 0
1.54 0 0
1.55 0 0
1.56 0 0
1.57 0 0
1.58 0 0
1.59 0 0
1.6 0 0
1.61 0 0
1.62 0 0
1.63 0 0
1.64 0 0
1.65 0 0
1.66 0 0
1.67 0 0
1.68 0 0
1.69 0 0
1.7 0 0
1.71 0 0
1.72 0 0
1.73 0 0
1.74 0 0
1.75 0 0
1.76 0 0
1.77 0 0
1.78 0 0
1.79 0 0
1.8 0 0
1.81 0 0
1.82 0 0
1.83 0 0
1.84 0 0
1.85 0 0
1.86 0 0
1.87 0 0
1.88 0 0
1.89 0 0
1.9 0 0
1.91 0 0
1.92 0 0
1.93 0 0
1.94 0 0
1.95 0 0
1.96 0 0
1.97 0 0
1.98 0 0
1.99 0 0
2 0.010289 0
2 0.0215307 0
2 0.0338135 0
2 0.0472336 0
2 0.0618965 0
2 0.0779171 0
2 0.0954213 0
2 0.114546 0
2 0.135442 0
2 0.158274 0
2 0.183219 0
2 0.210474 0
2 0.240253 0
2 0.27279 0
2 0.308339 0
2 0.347181 0
2 0.389619 0
2 0.435987 0
2 0.486649 0
2 0.542002 0
2 0.602481 0
2 0.66856 0
2 0.740758 0
2 0.819642 0
2 0.90583 0
1.9 1 0
1.8 1 0
1.7 1 0
1.6 1 0
1.5 1 0
1.4 1 0
1.3 1 0
1.2 1 0
1.1 1 0
1 1 0
0.9 1 0
0.8 1 0
0.7 1 0
0.6 1 0
0.5 1 0
0.4 1 0
0.3 1 0
0.2 1 0
0.1 1 0
3.69793e-12 1 0
-0.1 1 0
-0.2 1 0
-0.3 1 0
-0.4 1 0
-0.5 1 0
-0.6 1 0
-0.7 1 0
-0.8 1 0
-0.9 1 0
-1 0.90583 0
-1 0.819642 0
-1 0.740758 0
-1 0.66856 0
-1 0.602481 0
-1 0.542002 0
-1 0.486649 0
-1 0.435987 0
-1 0.389619 0
-1 0.347181 0
-1 0.308339 0
-1 0.27279 0
-1 0.240253 0
-1 0.210474 0
-1 0.183219 0
-1 0.158274 0
-1 0.135442 0
-1 0.114546 0
-1 0.0954213 0
-1 0.0779171 0
-1 0.0618965 0
-1 0.0472336 0
-1 0.0338135 0
-1 0.0215307 0
-1 0.010289 0
0.00921362 0.00379763 0
0.0184561 0.00752451 0
0.0277268 0.0111804 0
0.0370253 0.0147652 0
0.0463511 0.0182786 0
0.0557034 0.0217203 0
0.0650819 0.0250903 0
0.074486 0.0283883 0
0.083915 0.0316141 0
0.0933685 0.0347675 0
0.102846 0.0378484 0
0.112347 0.0408565 0
0.12187 0.0437917 0
0.131416 0.0466538 0
0.140983 0.0494427 0
0.150572 0.0521581 0
0.160181 0.0547999 0
0.16981 0.0573681 0
0.179458 0.0598623 0
0.189125 0.0622825 0
0.198811 0.0646285 0
0.208514 0.0669001 0
0.218234 0.0690974 0
0.227971 0.07122 0
0.237724 0.073268 0
0.247493 0.0752411 0
0.257276 0.0771393 0
0.267073 0.0789625 0
0.276884 0.0807105 0
0.286708 0.0823832 0
0.296545 0.0839806 0
0.306394 0.0855025 0
0.316254 0.0869488 0
0.326125 0.0883196 0
0.336006 0.0896146 0
0.345896 0.0908339 0
0.355796 0.0919773 0
0.365704 0.0930447 0
0.375621 0.0940362 0
0.385544 0.0949517 0
0.395474 0.095791 0
0.40541 0.0965542 0
0.415352 0.0972412 0
0.425299 0.097852 0
0.43525 0.0983865 0
0.445205 0.0988447 0
0.455164 0.0992266 0
0.465125 0.0995321 0
0.475088 0.0997613 0
0.485052 0.0999141 0
0.495017 0.0999904 0
0.504983 0.0999904 0
0.514948 0.0999141 0
0.524912 0.0997613 0
0.534875 0.0995321 0
0.544836 0.0992266 0
0.554795 0.0988447 0
0.56475 0.0983865 0
0.574701 0.097852 0
0.584648 0.0972412 0
0.59459 0.0965542 0
0.604526 0.095791 0
0.614456 0.0949517 0
0.624379 0.0940362 0
0.634296 0.0930447 0
0.644204 0.0919773 0
0.654104 0.0908339 0
0.663994 0.0896146 0
0.673875 0.0883196 0
0.683746 0.0869488 0
0.693606 0.0855025 0
0.703455 0.0839806 0
0.713292 0.0823832 0
0.723116 0.0807105 0
0.732927 0.0789625 0
0.742724 0.0771393 0
0.752508 0.0752411 0
0.762276 0.073268 0
0.772029 0.07122 0
0.781766 0.0690974 0
0.791486 0.0669001 0
0.801189 0.0646285 0
0.810875 0.0622825 0
0.820542 0.0598623 0
0.83019 0.0573681 0
0.839819 0.0547999 0
0.849428 0.0521581 0
0.859017 0.0494427 0
0.868584 0.0466538 0
0.87813 0.0437917 0
0.887653 0.0408565 0
0.897154 0.0378484 0
0.906631 0.0347675 0
0.916085 0.0316141 0
0.925514 0.0283883 0
0.934918 0.0250903 0
0.944297 0.0217203 0
0.953649 0.0182786 0
0.962975 0.0147652 0
0.972273 0.0111804 0
0.981544 0.00752451 0
0.990786 0.00379763 0
-1 0.90583 0.1
-1 0.819642 0.1
-1 0.740758 0.1
-1 0.66856 0.1
-1 0.602481 0.1
-1 0.542002 0.1
-1 0.486649 0.1
-1 0.435987 0.1
-1 0.389619 0.1
-1 0.347181 0.1
-1 0.308339 0.1
-1 0.27279 0.1
-1 0.240253 0.1
-1 0.210474 0.1
-1 0.183219 0.1
-1 0.158274 0.1
-1 0.135442 0.1
-1 0.114546 0.1
-1 0.0954213 0.1
-1 0.0779171 0.1
-1 0.0618965 0.1
-1 0.0472336 0.1
-1 0.0338135 0.1
-1 0.0215307 0.1
-1 0.010289 0.1
-0.99 0 0.1
-0.98 0 0.1
-0.97 0 0.1
-0.96 0 0.1
-0.95 0 0.1
-0.94 0 0.1
-0.93 0 0.1
-0.92 0 0.1
-0.91 0 0.1
-0.9 0 0.1
-0.89 0 0.1
-0.88 0 0.1
-0.87 0 0.1
-0.86 0 0.1
-0.85 0 0.1
-0.84 0 0.1
-0.83 0 0.1
-0.82 0 0.1
-0.81 0 0.1
-0.8 0 0.1
-0.79 0 0.1
-0.78 0 0.1
-0.77 0 0.1
-0.76 0 0.1
-0.75 0 0.1
-0.74 0 0.1
-0.73 0 0.1
-0.72 0 0.1
-0.71 0 0.1
-0.7 0 0.1
-0.69 0 0.1
-0.68 0 0.1
-0.67 0 0.1
-0.66 0 0.1
-0.65 0 0.1
-0.64 0 0.1
-0.63 0 0.1
-0.62 0 0.1
-0.61 0 0.1
-0.6 0 0.1
-0.59 0 0.1
-0.58 0 0.1
-0.57 0 0.1
-0.56 0 0.1
-0.55 0 0.1
-0.54 0 0.1
-0.53 0 0.1
-0.52 0 0.1
-0.51 0 0.1
-0.5 0 0.1
-0.49 0 0.1
-0.48 0 0.1
-0.47 0 0.1
-0.46 0 0.1
-0.45 0 0.1
-0.44 0 0.1
-0.43 0 0.1
-0.42 0 0.1
-0.41 0 0.1
-0.4 0 0.1
-0.39 0 0.1
-0.38 0 0.1
-0.37 0 0.1
-0.36 0 0.1
-0.35 0 0.1
-0.34 0 0.1
-0.33 0 0.1
-0.32 0 0.1
-0.31 0 0.1
-0.3 0 0.1
-0.29 0 0.1
-0.28 0 0.1
-0.27 0 0.1
-0.26 0 0.1
-0.25 0 0.1
-0.24 0 0.1
-0.23 0 0.1
-0.22 0 0.1
-0.21 0 0.1
-0.2 0 0.1
-0.19 0 0.1
-0.18 0 0.1
-0.17 0 0.1
-0.16 0 0.1
-0.15 0 0.1
-0.14 0 0.1
-0.13 0 0.1
-0.12 0 0.1
-0.11 0 0.1
-0.1 0 0.1
-0.09 0 0.1
-0.08 0 0.1
-0.07 0 0.1
-0.06 0 0.1
-0.05 0 0.1
-0.04 0 0.1
-0.03 0 0.1
-0.02 0 0.1
-0.01 0 0.1
0.00921362 0.00379763 0.1
0.0184561 0.00752451 0.1
0.0277268 0.0111804 0.1
0.0370253 0.0147652 0.1
0.0463511 0.0182786 0.1
0.0557034 0.0217203 0.1
0.0650819 0.0250903 0.1
0.074486 0.0283883 0.1
0.083915 0.0316141 0.1
0.0933685 0.0347675 0.1
0.102846 0.0378484 0.1
0.112347 0.0408565 0.1
0.12187 0.0437917 0.1
0.131416 0.0466538 0.1
0.140983 0.0494427 0.1
0.150572 0.0521581 0.1
0.160181 0.0547999 0.1
0.16981 0.0573681 0.1
0.179458 0.0598623 0.1
0.189125 0.0622825 0.1
0.198811 0.0646285 0.1
0.208514 0.0669001 0.1
0.218234 0.0690974 0.1
0.227971 0.07122 0.1
0.237724 0.073268 0.1
0.247493 0.0752411 0.1
0.257276 0.0771393 0.1
0.267073 0.0789625 0.1
0.276884 0.0807105 0.1
0.286708 0.0823832 0.1
0.296545 0.0839806 0.1
0.306394 0.0855025 0.1
0.316254 0.0869488 0.1
0.326125 0.0883196 0.1
0.336006 0.0896146 0.1
0.345896 0.0908339 0.1
0.355796 0.0919773 0.1
0.365704 0.0930447 0.1
0.375621 0.0940362 0.1
0.385544 0.0949517 0.1
0.395474 0.095791 0.1
0.40541 0.0965542 0.1
0.415352 0.0972412 0.1
0.425299 0.097852 0.1
0.43525 0.0983865 0.1
0.445205 0.0988447 0.1
0.455164 0.0992266 0.1
0.465125 0.0995321 0.1
0.475088 0.0997613 0.1
0.485052 0.0999141 0.1
0.495017 0.0999904 0.1
0.504983 0.0999904 0.1
0.514948 0.0999141 0.1
0.524912 0.0997613 0.1
0.534875 0.0995321 0.1
0.544836 0.0992266 0.1
0.554795 0.0988447 0.1
0.56475 0.0983865 0.1
0.574701 0.097852 0.1
0.584648 0.0972412 0.1
0.59459 0.0965542 0.1
0.604526 0.095791 0.1
0.614456 0.0949517 0.1
0.624379 0.0940362 0.1
0.634296 0.0930447 0.1
0.644204 0.0919773 0.1
0.654104 0.0908339 0.1
0.663994 0.0896146 0.1
0.673875 0.0883196 0.1
0.683746 0.0869488 0.1
0.693606 0.0855025 0.1
0.703455 0.0839806 0.1
0.713292 0.0823832 0.1
0.723116 0.0807105 0.1
0.732927 0.0789625 0.1
0.742724 0.0771393 0.1
0.752508 0.0752411 0.1
0.762276 0.073268 0.1
0.772029 0.07122 0.1
0.781766 0.0690974 0.1
0.791486 0.0669001 0.1
0.801189 0.0646285 0.1
0.810875 0.0622825 0.1
0.820542 0.0598623 0.1
0.83019 0.0573681 0.1
0.839819 0.0547999 0.1
0.849428 0.0521581 0.1
0.859017 0.0494427 0.1
0.868584 0.0466538 0.1
0.87813 0.0437917 0.1
0.887653 0.0408565 0.1
0.897154 0.0378484 0.1
0.906631 0.0347675 0.1
0.916085 0.0316141 0.1
0.925514 0.0283883 0.1
0.934918 0.0250903 0.1
0.944297 0.0217203 0.1
0.953649 0.0182786 0.1
0.962975 0.0147652 0.1
0.972273 0.0111804 0.1
0.981544 0.00752451 0.1
0.990786 0.00379763 0.1
1.01 0 0.1
1.02 0 0.1
1.03 0 0.1
1.04 0 0.1
1.05 0 0.1
1.06 0 0.1
1.07 0 0.1
1.08 0 0.1
1.09 0 0.1
1.1 0 0.1
1.11 0 0.1
1.12 0 0.1
1.13 0 0.1
1.14 0 0.1
1.15 0 0.1
1.16 0 0.1
1.17 0 0.1
1.18 0 0.1
1.19 0 0.1
1.2 0 0.1
1.21 0 0.1
1.22 0 0.1
1.23 0 0.1
1.24 0 0.1
1.25 0 0.1
1.26 0 0.1
1.27 0 0.1
1.28 0 0.1
1.29 0 0.1
1.3 0 0.1
1.31 0 0.1
1.32 0 0.1
1.33 0 0.1
1.34 0 0.1
1.35 0 0.1
1.36 0 0.1
1.37 0 0.1
1.38 0 0.1
1.39 0 0.1
1.4 0 0.1
1.41 0 0.1
1.42 0 0.1
1.43 0 0.1
1.44 0 0.1
1.45 0 0.1
1.46 0 0.1
1.47 0 0.1
1.48 0 0.1
1.49 0 0.1
1.5 0 0.1
1.51 0 0.1
1.52 0 0.1
1.53 0 0.1
1.54 0 0.1
1.55 0 0.1
1.56 0 0.1
1.57 0 0.1
1.58 0 0.1
1.59 0 0.1
1.6 0 0.1
1.61 0 0.1
1.62 0 0.1
1.63 0 0.1
1.64 0 0.1
1.65 0 0.1
1.66 0 0.1
1.67 0 0.1
1.68 0 0.1
1.69 0 0.1
1.7 0 0.1
1.71 0 0.1
1.72 0 0.1
1.73 0 0.1
1.74 0 0.1
1.75 0 0.1
1.76 0 0.1
1.77 0 0.1
1.78 0 0.1
1.79 0 0.1
1.8 0 0.1
1.81 0 0.1
1.82 0 0.1
1.83 0 0.1
1.84 0 0.1
1.85 0 0.1
1.86 0 0.1
1.87 0 0.1
1.88 0 0.1
[...]
CELL_DATA 7425
SCALARS rho float
LOOKUP_TABLE default
0.587128
0.805031
0.819519
0.827491
0.799396
0.819117
0.820886
0.814088
0.812934
0.738607
0.863475
0.810023
0.81385
0.827348
0.80369
0.817113
0.798731
0.813217
0.803464
0.767235
0.831247
0.822037
0.724758
0.82802
0.80387
0.702971
0.83118
0.848233
0.800158
0.807923
0.819342
0.725506
0.803611
0.652061
0.519194
0.827986
0.803503
0.814065
0.811132
0.827982
0.715938
0.70313
0.789955
0.702228
0.586425
0.748194
0.799278
0.813784
0.661374
0.719284
0.746309
0.805147
0.812347
0.799053
0.70984
0.625957
0.822881
0.800075
0.738478
0.700882
0.709408
0.807652
0.813187
0.79936
0.798767
0.817571
0.584321
0.773257
0.704762
0.80784
0.804157
0.8032
0.883391
0.82111
0.810833
0.812993
0.805043
0.800434
0.813193
0.757746
0.815938
0.807232
0.810242
0.788655
0.835884
0.80107
0.574406
0.829932
0.542448
0.84846
0.706816
0.729715
0.845196
0.803173
0.81736
0.758175
0.836023
0.788005
0.825597
0.802451
0.808057
0.738656
0.803282
0.828213
0.597195
0.81106
0.824343
0.707418
0.814953
0.799142
0.81667
0.784522
0.789777
0.812423
0.789687
0.786302
0.831229
0.803103
0.700147
0.630057
0.805042
0.777241
0.812897
0.790391
0.858918
0.838808
0.807688
0.804247
0.661164
0.504005
0.814432
0.655016
0.515073
0.867643
0.661705
0.79949
0.811092
0.723518
0.581964
0.724758
0.723214
0.809583
0.809595
0.707341
0.803126
0.779591
0.565432
0.788477
0.782537
0.827738
0.816737
0.704202
0.80288
0.744298
0.705242
0.803271
0.810424
0.830381
0.797534
0.65201
0.8025
0.703505
0.801076
0.829714
0.820423
0.802371
0.813016
0.784788
0.806269
0.800624
0.819673
0.804451
0.791144
0.799105
0.799861
0.740069
0.80367
0.75868
0.594014
0.706645
0.799656
0.792676
0.879783
0.831818
0.614739
0.822894
0.798611
0.827294
0.799849
0.813359
0.81256
0.803189
0.806935
0.70462
0.814968
0.819221
0.770076
0.797112
0.861076
0.807758
0.81181
0.811119
0.612841
0.83886
0.572983
0.531722
0.595452
0.600437
0.828118
0.879317
0.80752
0.798646
0.841361
0.812921
0.816643
0.820731
0.81516
0.637991
0.549058
0.813681
0.54549
0.592472
0.70347
0.811657
0.814021
0.812994
0.833108
0.812861
0.864153
0.710012
0.835197
0.712565
0.805161
0.803917
0.801952
0.713878
0.720388
0.61949
0.705602
0.8636
0.875333
0.806199
0.807689
0.798831
0.811507
0.715768
0.821573
0.800163
0.825663
0.794612
0.809804
0.721421
0.812762
0.823703
0.739725
0.528461
0.799838
0.736429
0.843274
0.814301
0.726615
0.815537
0.814798
0.849931
0.809467
0.80384
0.80325
0.825621
0.860741
0.805409
0.619248
0.848865
0.811957
0.805596
0.827511
0.837313
0.812944
0.821399
0.793489
0.81503
0.866554
0.849925
0.827304
0.836712
0.802662
0.817121
0.803189
0.759694
0.701199
0.580858
0.700965
0.802311
0.812844
0.815945
0.854658
0.779638
0.645731
0.82705
0.520767
0.774256
0.800951
0.646391
0.495232
0.639089
0.815155
0.813189
0.812919
0.81268
0.826684
0.774414
0.81147
0.802662
0.812858
0.840685
0.867051
0.833529
0.802724
0.706219
0.795865
0.834262
0.691556
0.79872
0.802041
0.864766
0.817061
0.593024
0.813348
0.740446
0.852251
0.731954
0.810064
0.907647
0.799842
0.795612
0.658938
0.635555
0.711761
0.780551
0.826509
0.814892
0.813647
0.882359
0.858119
0.79951
0.799138
0.826018
0.739175
0.802515
0.879371
0.801377
0.80467
0.800674
0.802564
0.812922
0.81568
0.816332
0.636163
0.829954
0.64549
0.808441
0.639278
0.802588
0.802231
0.840237
0.728638
0.816338
0.808532
0.816941
0.799478
0.802492
0.811235
0.69669
0.824458
0.813012
0.812884
0.800676
0.736807
0.559922
0.806408
0.810976
0.803186
0.812846
0.794704
0.503067
0.845983
0.81327
0.803844
0.785699
0.813216
0.804651
0.80301
0.816198
0.807504
0.822475
0.76858
0.812631
0.807764
0.562647
0.803092
0.640099
0.838737
0.636215
0.814657
0.877885
0.59315
0.818062
0.748923
0.804408
0.873328
0.533673
0.823087
0.822225
0.803492
0.825706
0.811042
0.823424
0.830607
0.824803
0.739656
0.827489
0.76166
0.810189
0.794229
0.793601
0.758561
0.805593
0.802084
0.81443
0.752186
0.804685
0.604412
0.614203
0.688972
0.812767
0.844174
0.864819
0.82985
0.798556
0.812596
0.804868
0.818488
0.680485
0.800965
0.742917
0.824031
0.814759
0.805363
0.711845
0.727201
0.533644
0.605593
0.801269
0.611367
0.792554
0.765353
0.77002
0.727103
0.76243
0.7675
0.809394
0.81489
0.819515
0.811421
0.710441
0.602168
0.839006
0.806895
0.783131
0.809803
0.802551
0.836531
0.718103
0.855264
0.763674
0.728281
0.764482
0.811471
0.544977
0.798803
0.841591
0.813272
0.813742
0.809674
0.799141
0.780265
0.835679
0.803105
0.842949
0.721067
0.707493
0.800322
0.795126
0.821987
0.708686
0.847939
0.800397
0.816014
0.798706
0.779158
0.808234
0.594601
0.677413
0.632401
0.812892
0.803793
0.826324
0.749229
0.81059
0.814757
0.820359
0.798953
0.729288
0.796847
0.814266
0.803196
0.703131
0.813549
0.818875
0.840001
0.810735
0.825305
0.862278
0.857256
0.743898
0.603397
0.838012
0.805784
0.843364
0.814186
0.82289
0.813479
0.81376
0.633753
0.805159
0.809276
0.812777
0.79188
0.810569
0.804741
0.860481
0.798639
0.812691
0.814674
0.871906
0.597619
0.813417
0.842394
0.883307
0.530448
0.816367
0.829925
0.796135
0.814742
0.794929
0.867583
0.812174
0.831322
0.812685
0.61934
0.802391
0.804144
0.690806
0.853124
0.759768
0.801801
0.813937
0.812671
0.859667
0.795344
0.833591
0.834696
0.784265
0.82516
0.842326
0.79972
0.810467
0.806934
0.805311
0.814812
0.80263
0.845203
0.769237
0.809775
0.803157
0.815192
0.723116
0.812851
0.81832
0.752582
0.813544
0.816326
0.827542
0.825088
0.800701
0.800645
0.850484
0.767934
0.825107
0.844186
0.804554
0.505633
0.812857
0.828252
0.852372
0.81261
0.803148
0.808522
0.855031
0.780075
0.802582
0.801219
0.812894
0.727097
0.802708
0.829985
0.80799
0.794965
0.793487
0.843178
0.806603
0.845302
0.802019
0.824221
0.812726
0.804214
0.841837
0.812826
0.679419
0.818747
0.807096
0.812798
0.906139
0.800796
0.815866
0.800474
0.800388
0.81617
0.800493
0.803358
0.783728
0.747339
0.806473
0.812855
0.758001
0.79138
0.822994
0.813013
0.822228
0.806304
0.825746
0.875294
0.830624
0.574789
0.70879
0.840733
0.817256
0.844138
0.814728
0.850086
0.807316
0.812381
0.799334
0.838389
0.860916
0.852774
0.731506
0.814052
0.82215
0.743975
0.81708
0.775925
0.800214
0.733055
0.816032
0.830841
0.823459
0.861809
0.81418
0.813261
0.810152
0.814609
0.835774
0.812196
0.798647
0.810228
0.737532
0.81131
0.774179
0.832819
0.812743
0.638789
0.777627
0.811125
0.799166
0.819797
0.802459
0.814642
0.817268
0.804446
0.819369
0.804161
0.80583
0.597233
0.847025
0.825105
0.826678
0.8149
0.80322
0.701828
0.806462
0.907829
0.813555
0.801015
0.81285
0.782271
0.807236
0.813252
0.821259
0.814633
0.81319
0.816207
0.701954
0.77783
0.764566
0.812624
0.805306
0.801011
0.621319
0.805695
0.802618
0.708182
0.837174
0.817169
0.802185
0.807436
0.799391
0.81722
0.813915
0.813252
0.812839
0.709668
0.831675
0.800277
0.80739
0.842785
0.8176
0.816263
0.800165
0.753653
0.823811
0.787396
0.821408
0.789406
0.805617
0.820926
0.737516
0.817377
0.650518
0.872016
0.704318
0.844988
0.800781
0.875148
0.79369
0.801669
0.820644
0.836205
0.838397
0.825448
0.8198
0.814681
0.801109
0.804178
0.808235
0.72571
0.827224
0.800081
0.719679
0.830515
0.706229
0.799986
0.860365
0.805578
0.701396
0.797839
0.814054
0.705028
0.785656
0.819357
0.83184
0.806935
0.573371
0.728603
0.812381
0.801311
0.812888
0.800658
0.737206
0.813982
0.815687
0.812455
0.775346
0.803263
0.804489
0.803555
0.560419
0.812676
0.834091
0.579777
0.815134
0.816073
0.814666
0.818332
0.81439
0.824514
0.799065
0.795117
0.771032
0.822883
0.829652
0.825092
0.834856
0.765335
0.808972
0.724381
0.772366
0.808785
0.821047
0.813251
0.80097
0.858259
0.812892
0.800313
0.809563
0.816066
0.815158
0.83661
0.814462
0.812772
0.811976
0.813786
0.800125
0.820969
0.803764
0.822804
0.813434
0.575506
0.813481
0.834443
0.858042
0.838169
0.490712
0.816779
0.804509
0.496529
0.669344
0.643167
0.834279
0.807959
0.811646
0.812766
0.803204
0.81672
0.810947
0.534535
0.686455
0.818226
0.806622
0.815585
0.803506
0.810232
0.810875
0.820212
0.799506
0.692241
0.855892
0.80315
0.814711
0.813591
0.757763
0.485649
0.832873
0.81353
0.741993
0.802701
0.806186
0.590885
0.827508
0.814753
0.827697
0.818754
0.82596
0.804727
0.719383
0.643538
0.562038
0.825292
0.808497
0.782975
0.812936
0.779777
0.817861
0.873304
0.762352
0.821583
0.813495
0.825814
0.883555
0.814411
0.811803
0.80326
0.81386
0.691699
0.828185
0.799868
0.810144
0.802203
0.784241
0.854146
0.822016
0.840469
0.821497
0.757594
0.755889
0.803293
0.818075
0.803062
0.805241
0.802582
0.775632
0.814654
0.761559
0.821127
0.662042
0.813941
0.802956
0.735735
0.823238
0.817952
0.739974
0.80116
0.757197
0.880612
0.80072
0.812803
0.762664
0.800069
0.81424
0.803946
0.589834
0.820922
0.798643
0.801325
0.814494
0.825589
0.757112
0.805505
0.841598
0.826915
0.814084
0.835817
0.700914
0.700126
0.812888
0.744143
0.822192
0.771354
0.812795
0.802515
0.810381
0.75194
0.79419
0.76431
0.809861
0.803142
0.631172
0.779002
0.799232
0.848977
0.814336
0.828627
0.526417
0.825327
0.785123
0.858722
0.800937
0.817968
0.800266
0.785767
0.798729
0.825689
0.835749
0.821746
0.81709
0.707007
0.773814
0.815334
0.805376
0.809942
0.803904
0.706922
0.792812
0.803455
0.810632
0.827154
0.851198
0.831829
0.813431
0.799412
0.804215
0.802013
0.779623
0.611581
0.800303
0.731263
0.66188
0.822781
0.798828
0.777271
0.79996
0.754144
0.785287
0.811419
0.822163
0.803322
0.815978
0.81733
0.820644
0.813355
0.808456
0.71213
0.69937
0.640877
0.829255
0.869556
0.815347
0.841332
0.847821
0.863726
0.735639
0.816561
0.863
0.810169
0.812833
0.816171
0.732761
0.812394
0.806632
0.806171
0.517187
0.812928
0.761157
0.813122
0.813778
0.803539
0.705598
0.813162
0.610579
0.825009
0.802262
0.822223
0.855148
0.803427
0.795363
0.820905
0.811545
0.805694
0.762232
0.509746
0.820869
0.803079
0.828899
0.825736
0.802075
0.807019
0.834447
0.720796
0.500314
0.886253
0.800563
0.815657
0.804317
0.710512
0.798611
0.799984
0.81503
0.736033
0.646474
0.88324
0.714127
0.836527
0.811949
0.832866
0.842643
0.792152
0.80474
0.813561
0.852766
0.738295
0.870693
0.813981
0.562758
0.802435
0.748932
0.852896
0.760267
0.804212
0.80395
0.799611
0.801581
0.808844
0.812868
0.85552
0.805963
0.802864
0.801307
0.799985
0.812201
0.816841
0.802615
0.812445
0.849189
0.803096
0.783431
0.802233
0.839561
0.724966
0.813592
0.813791
0.637135
0.713074
0.805538
0.822996
0.803529
0.511632
0.856288
0.813178
0.832967
0.8053
0.80331
0.801331
0.78622
0.587137
0.804287
0.816068
0.835972
0.820535
0.81291
0.798135
0.746908
0.801562
0.76575
0.787524
0.79931
0.790953
0.751079
0.80082
0.811431
0.810334
0.832181
0.849035
0.553188
0.841882
0.812803
0.820839
0.801981
0.82265
0.811036
0.894606
0.800216
0.867059
0.80568
0.759741
0.86211
0.802273
0.800238
0.824133
0.660366
0.645252
0.803391
0.80385
0.705128
0.65427
0.799896
0.823824
0.812991
0.822559
0.732916
0.817163
0.812802
0.826105
0.816919
0.811935
0.812823
0.75456
0.803871
0.815644
0.81129
0.676191
0.566386
0.81286
0.649969
0.721901
0.555051
0.841376
0.800099
0.526858
0.600724
0.827495
0.908061
0.818114
0.65228
0.814123
0.786412
0.801696
0.786364
0.820621
0.810074
0.788271
0.821025
0.80098
0.587613
0.817792
0.766648
0.815896
0.700985
0.822191
0.789616
0.813914
0.800024
0.662838
0.843496
0.80653
0.806587
0.493454
0.816799
0.80036
0.852124
0.71137
0.817053
0.583803
0.718845
0.801382
0.796642
0.732687
0.715502
0.716024
0.506871
0.589313
0.799962
0.517409
0.82257
0.520066
0.757168
0.671197
0.599078
0.540495
0.745408
0.803079
0.71524
0.821266
0.800921
0.802921
0.76117
0.88967
0.799021
0.824453
0.803424
0.812748
0.705932
0.807543
0.736671
0.82188
0.886029
0.83355
0.747688
0.82276
0.770468
0.879892
0.804191
0.758642
0.850666
0.776838
0.799922
0.805263
0.758209
0.744569
0.665186
0.804979
0.80302
0.817877
0.833466
0.611445
0.807884
0.538015
0.668557
0.616196
0.818484
0.821012
0.808962
0.803971
0.615639
0.872448
0.802675
0.802943
0.863502
0.812384
0.772003
0.81212
0.802363
0.81787
0.803143
0.717013
0.803347
0.655234
0.798981
0.804068
0.801539
0.639129
0.811503
0.810283
0.725627
0.81777
0.549055
0.576643
0.80414
0.69645
0.725917
0.572044
0.72357
0.813584
0.707629
0.772957
0.716724
0.812782
0.670164
0.762084
0.806435
0.810572
0.654449
0.801941
0.895148
0.796688
0.816762
0.585065
0.693772
0.800906
0.812903
0.813973
0.851641
0.812606
0.804246
0.803721
0.803334
0.713762
0.717578
0.615576
0.771444
0.532644
0.723951
0.809883
0.814373
0.806102
0.799239
0.535725
0.809029
0.803753
0.5539
0.543223
0.74657
0.803568
0.806149
0.549264
0.798199
0.569528
0.720419
0.607726
0.813515
0.802234
0.596989
0.608243
0.867882
0.810021
0.765385
0.717811
0.621584
0.65529
0.70984
0.815978
0.759752
0.765502
0.623968
0.753842
0.809274
0.81533
0.812413
0.815436
0.865559
0.754659
0.818899
0.803326
0.851263
0.812816
0.80277
0.813038
0.722601
0.812915
0.811958
0.81515
0.811118
0.815858
0.803268
0.817892
0.810352
0.809703
0.817233
0.800108
0.81656
0.818919
0.667435
0.818574
0.8684
0.818134
0.792917
0.645871
0.858563
0.818754
0.824857
0.799517
0.811168
0.757504
0.852526
0.559114
0.726586
0.809853
0.81563
0.803869
0.803357
0.832021
0.804996
0.805184
0.815226
0.780692
0.838528
0.841923
0.815178
0.664278
0.61215
0.815729
0.816585
0.788274
0.849608
0.847238
0.810816
0.813594
0.777731
0.81405
0.817798
0.814074
0.818741
0.813062
0.815787
0.851022
0.815932
0.814466
0.817518
0.817732
0.784878
0.814083
0.804024
0.804098
0.80459
0.818534
0.81144
0.788322
0.753974
0.812628
0.80627
0.80874
0.806369
0.857753
0.803323
0.813957
0.81265
0.805167
0.562243
0.803881
0.812694
0.814983
0.810304
0.812737
0.813256
0.812978
0.810168
0.864377
0.501414
0.812767
0.841637
0.812604
0.802955
0.8084
0.814959
0.839652
0.80042
0.801184
0.812585
0.706154
0.812784
0.808191
0.807321
0.812508
0.812836
0.812979
0.813313
0.511682
0.811855
0.715707
0.885831
0.821022
0.73343
0.671157
0.815322
0.80348
0.818689
0.646449
0.801645
0.813285
0.647937
0.799825
0.804086
0.815397
0.806249
0.856719
0.80984
0.606875
0.800808
0.775171
0.811204
0.889062
0.803257
0.815503
0.819292
0.832181
0.813351
0.822363
0.836314
0.634922
0.802599
0.655737
0.8137
0.8136
0.712565
0.813485
0.804785
0.713149
0.814887
0.701184
0.861054
0.784064
0.814251
0.812841
0.81338
0.667832
0.813606
0.633251
0.800176
0.792354
0.822258
0.815137
0.715969
0.766692
0.830016
0.812705
0.821272
0.821866
0.813388
0.825296
0.799474
0.55202
0.754903
0.759174
0.731445
0.837577
0.822315
0.834314
0.775996
0.802756
0.812976
0.812897
0.812901
0.774616
0.563747
0.803199
0.528404
0.80817
0.824237
0.799675
0.803753
0.812922
0.806004
0.78259
0.732166
0.813337
0.859125
0.813665
0.799264
0.736927
0.80957
0.788705
0.833693
0.503728
0.795967
0.805864
0.798847
0.688968
0.812789
0.810717
0.857018
0.56901
0.807324
0.803265
0.812773
0.61242
0.813035
0.803329
0.803397
0.803022
0.813147
0.813245
0.816061
0.812986
0.717905
0.804494
0.803196
0.812934
0.896152
0.813092
0.773955
0.841115
0.799173
0.80313
0.601283
0.812827
0.803353
0.825619
0.801957
0.866203
0.814789
0.853367
0.800312
0.820591
0.777859
0.55822
0.752662
0.794209
0.803895
0.813925
0.813752
0.555432
0.861763
0.857866
0.768434
0.757653
0.738507
0.812026
0.848371
0.812866
0.813679
0.8129
0.804266
0.726763
0.803494
0.79908
0.764214
0.824218
0.822952
0.861821
0.8156
0.812912
0.524235
0.808878
0.812871
0.800685
0.773941
0.818056
0.803107
0.812825
0.826841
0.798437
0.803563
0.801201
0.81513
0.839081
0.802344
0.799138
0.801463
0.766091
0.819816
0.567007
0.868357
0.803681
0.545666
0.803135
0.803097
0.81953
0.591576
0.606097
0.801529
0.803605
0.800822
0.860708
0.779904
0.814582
0.80293
0.865675
0.804705
0.804443
0.82628
0.815898
0.820058
0.821224
0.820273
0.867457
0.72923
0.85212
0.817143
0.653628
0.802519
0.803177
0.803629
0.821067
0.823454
0.803946
0.801061
0.800025
0.822623
0.803175
0.803597
0.799635
0.824331
0.803964
0.80198
0.806067
0.827815
0.800511
0.8015
0.824225
0.79956
0.81532
0.651225
0.826335
0.849809
0.804848
0.819515
0.803222
0.828696
0.837449
0.803391
0.82142
0.800512
0.806946
0.789539
0.802144
0.803136
0.806346
0.805877
0.804485
0.818485
0.814682
0.811221
0.831357
0.802151
0.80221
0.799877
0.78899
0.833738
0.803136
0.819243
0.815144
0.807085
0.80501
0.802944
0.838862
0.864687
0.799545
0.678905
0.801164
0.842105
0.816529
0.805095
0.804455
0.819666
0.844553
0.601428
0.828716
0.794456
0.850317
0.818669
0.811977
0.813249
0.8082
0.803947
0.81275
0.808736
0.591784
0.847941
0.794578
0.814112
0.85455
0.819217
0.763151
0.80861
0.814384
0.815398
0.802953
0.661647
0.809169
0.863119
0.802544
0.800685
0.775378
0.871191
0.800412
0.877044
0.80665
0.817099
0.820552
0.802192
0.803796
0.81253
0.815815
0.803439
0.813252
0.816675
0.881327
0.820668
0.809282
0.800106
0.828361
0.810465
0.838808
0.80878
0.806929
0.812082
0.81648
0.829863
0.813587
0.822476
0.832472
0.814126
0.699617
0.690674
0.812968
0.817678
0.803777
0.813048
0.513913
0.854839
0.799736
0.806213
0.813864
0.813409
0.803948
0.812404
0.800449
0.801184
0.807996
0.814682
0.756846
0.784609
0.82288
0.842633
0.834763
0.80023
0.805028
0.803348
0.812893
0.805677
0.799495
0.799765
0.800988
0.810863
0.797792
0.802718
0.835442
0.831279
0.729768
0.664642
0.80756
0.698497
0.799465
0.572037
0.804396
0.806908
0.803076
0.818097
0.833728
0.813849
0.812779
0.810248
0.803833
0.881496
0.816197
0.804766
0.772227
0.585745
0.810223
0.80659
0.76933
0.814341
0.813798
0.791449
0.800688
0.804019
0.624338
0.830399
0.803494
0.781451
0.779278
0.852674
0.809973
0.802851
0.802571
0.810165
0.811041
0.518564
0.801763
0.839442
0.813848
0.798553
0.588663
0.814496
0.813993
0.812867
0.833677
0.81384
0.803913
0.821828
0.805551
0.575722
0.808612
0.736475
0.798488
0.813556
0.722157
0.814851
0.845941
0.831574
0.664445
0.890882
0.785563
0.777374
0.796855
0.779502
0.808586
0.849913
0.807944
0.802851
0.813469
0.808789
0.782587
0.785902
0.813804
0.808282
0.834803
0.821208
0.835637
0.801237
0.799631
0.812963
0.856575
0.816399
0.818309
0.813265
0.607289
0.795504
0.823829
0.829298
0.865864
0.81252
0.818885
0.508594
0.809669
0.800566
0.812529
0.814686
0.847542
0.812968
0.81107
0.881474
0.764502
0.812523
0.813154
0.808951
0.805196
0.814149
0.655865
0.800483
0.849486
0.83347
0.810551
0.813489
0.813285
0.809548
0.698878
0.812424
0.800137
0.838517
0.818404
0.811553
0.831271
0.79267
0.811479
0.817743
0.808759
0.819218
0.744205
0.854686
0.818894
0.813729
0.812971
0.812619
0.815643
0.817084
0.812665
0.810714
0.841026
0.818523
0.800127
0.825241
0.826889
0.815987
0.81443
0.800337
0.801491
0.812961
0.818953
0.829362
0.812711
0.816383
0.799799
0.809887
0.812748
0.812714
0.802488
0.814585
0.813245
0.803225
0.812771
0.835602
0.800008
0.809358
0.821474
0.559892
0.814132
0.818092
0.815446
0.814932
0.821899
0.828766
0.815545
0.818764
0.701398
0.812972
0.801313
0.815539
0.818943
0.83502
0.821496
0.815491
0.829309
0.824875
0.810589
0.81916
0.819474
0.804156
0.81307
0.815526
0.81941
0.832053
0.812543
0.81562
0.802708
0.812844
0.812964
0.52248
0.627574
0.814324
0.82137
0.801707
0.822402
0.815828
0.841817
0.708081
0.813661
0.73041
0.817336
0.810239
0.813075
0.829292
0.813571
0.804833
0.81283
0.830027
0.839246
0.81271
0.719157
0.819221
0.815954
0.799896
0.803022
0.81523
0.855886
0.81256
0.813286
0.849653
0.828946
0.843223
0.573323
0.829048
0.81386
0.81082
0.817324
0.850456
0.817689
0.718362
0.799516
0.831706
0.799744
0.799705
0.805373
0.7478
0.813311
0.814264
0.725382
0.814276
0.827286
0.813231
0.813951
0.799196
0.818302
0.812895
0.82349
0.808683
0.808136
0.814895
0.705324
0.819001
0.813998
0.81288
0.639827
0.718754
0.599314
0.823221
0.529459
0.853763
0.727291
0.842749
0.81244
0.72266
0.821359
0.815805
0.74252
0.807637
0.818278
0.794394
0.816446
0.815784
0.815713
0.812896
0.80781
0.803653
0.737262
0.836083
0.820096
0.816532
0.799203
0.815381
0.801971
0.815927
0.813374
0.854558
0.817696
0.496909
0.813225
0.818714
0.818586
0.778031
0.815693
0.806708
0.818525
0.845299
0.596366
0.80907
0.799278
0.815239
0.817543
0.817613
0.812363
0.818523
0.813778
0.814502
0.803064
0.814199
0.84606
0.813852
0.791988
0.811408
0.622477
0.718731
0.812974
0.816916
0.802919
0.822229
0.735437
0.803146
0.803181
0.820131
0.623382
0.817517
0.799326
0.815333
0.864604
0.785468
0.821875
0.817899
0.822722
0.813934
0.769569
0.802415
0.813479
0.902281
0.827114
0.816347
0.832159
0.809521
0.86814
0.719381
0.687125
0.852282
0.802695
0.661883
0.850246
0.786027
0.831943