# vtk DataFile Version 1.0
unstructured grid
ascii
DATASET UNSTRUCTURED_GRID
points 7812 float
-1 0 0
-1 1 0
2 0 0
2 1 0
0 0 0
1 0 0
-1 1 0.1
-1 0 0.1
0 0 0.1
1 0 0.1
2 0 0.1
2 1 0.1
-0.99 0 0
-0.98 0 0
-0.97 0 0
-0.96 0 0
-0.95 0 0
-0.94 0 0
-0.93 0 0
-0.92 0 0
-0.91 0 0
-0.9 0 0
-0.89 0 0
-0.88 0 0
-0.87 0 0
-0.86 0 0
-0.85 0 0
-0.84 0 0
-0.83 0 0
-0.82 0 0
-0.81 0 0
-0.8 0 0
-0.79 0 0
-0.78 0 0
-0.77 0 0
-0.76 0 0
-0.75 0 0
-0.74 0 0
-0.73 0 0
-0.72 0 0
-0.71 0 0
-0.7 0 0
-0.69 0 0
-0.68 0 0
-0.67 0 0
-0.66 0 0
-0.65 0 0
-0.64 0 0
-0.63 0 0
-0.62 0 0
-0.61 0 0
-0.6 0 0
-0.59 0 0
-0.58 0 0
-0.57 0 0
-0.56 0 0
-0.55 0 0
-0.54 0 0
-0.53 0 0
-0.52 0 0
-0.51 0 0
-0.5 0 0
-0.49 0 0
-0.48 0 0
-0.47 0 0
-0.46 0 0
-0.45 0 0
-0.44 0 0
-0.43 0 0
-0.42 0 0
-0.41 0 0
-0.4 0 0
-0.39 0 0
-0.38 0 0
-0.37 0 0
-0.36 0 0
-0.35 0 0
-0.34 0 0
-0.33 0 0
-0.32 0 0
-0.31 0 0
-0.3 0 0
-0.29 0 0
-0.28 0 0
-0.27 0 0
-0.26 0 0
-0.25 0 0
-0.24 0 0
-0.23 0 0
-0.22 0 0
-0.21 0 0
-0.2 0 0
-0.19 0 0
-0.18 0 0
-0.17 0 0
-0.16 0 0
-0.15 0 0
-0.14 0 0
-0.13 0 0
-0.12 0 0
-0.11 0 0
-0.1 0 0
-0.09 0 0
-0.08 0 0
-0.07 0 0
-0.06 0 0
-0.05 0 0
-0.04 0 0
-0.03 0 0
-0.02 0 0
-0.01 0 0
1.01 0 0
1.02 0 0
1.03 0 0
1.04 0 0
1.05 0 0
1.06 0 0
1.07 0 0
1.08 0 0
1.09 0 0
1.1 0 0
1.11 0 0
1.12 0 0
1.13 0 0
1.14 0 0
1.15 0 0
1.16 0 0
1.17 0 0
1.18 0 0
1.19 0 0
1.2 0 0
1.21 0 0
1.22 0 0
1.23 0 0
1.24 0 0
1.25 0 0
1.26 0 0
1.27 0 0
1.28 0 0
1.29 0 0
1.3 0 0
1.31 0 0
1.32 0 0
1.33 0 0
1.34 0 0
1.35 0 0
1.36 0 0
1.37 0 0
1.38 0 0
1.39 0 0
1.4 0 0
1.41 0 0
1.42 0 0
1.43 0 0
1.44 0 0
1.45 0 0
1.46 0 0
1.47 0 0
1.48 0 0
1.49 0 0
1.5 0 0
1.51 0 0
1.52 0 0
1.53 0 0
1.54 0 0
1.55 0 0
1.56 0 0
1.57 0 0
1.58 0 0
1.59 0 0
1.6 0 0
1.61 0 0
1.62 0 0
1.63 0 0
1.64 0 0
1.65 0 0
1.66 0 0
1.67 0 0
1.68 0 0
1.69 0 0
1.7 0 0
1.71 0 0
1.72 0 0
1.73 0 0
1.74 0 0
1.75 0 0
1.76 0 0
1.77 0 0
1.78 0 0
1.79 0 0
1.8 0 0
1.81 0 0
1.82 0 0
1.83 0 0
1.84 0 0
1.85 0 0
1.86 0 0
1.87 0 0
1.88 0 0
1.89 0 0
1.9 0 0
1.91 0 0
1.92 0 0
1.93 0 0
1.94 0 0
1.95 0 0
1.96 0 0
1.97 0 0
1.98 0 0
1.99 0 0
2 0.010289 0
2 0.0215307 0
2 0.0338135 0
2 0.0472336 0
2 0.0618965 0
2 0.0779171 0
2 0.0954213 0
2 0.114546 0
2 0.135442 0
2 0.158274 0
2 0.183219 0
2 0.210474 0
2 0.240253 0
2 0.27279 0
2 0.308339 0
2 0.347181 0
2 0.389619 0
2 0.435987 0
2 0.486649 0
2 0.542002 0
2 0.602481 0
2 0.66856 0
2 0.740758 0
2 0.819642 0
2 0.90583 0
1.9 1 0
1.8 1 0
1.7 1 0
1.6 1 0
1.5 1 0
1.4 1 0
1.3 1 0
1.2 1 0
1.1 1 0
1 1 0
0.9 1 0
0.8 1 0
0.7 1 0
0.6 1 0
0.5 1 0
0.4 1 0
0.3 1 0
0.2 1 0
0.1 1 0
3.69793e-12 1 0
-0.1 1 0
-0.2 1 0
-0.3 1 0
-0.4 1 0
-0.5 1 0
-0.6 1 0
-0.7 1 0
-0.8 1 0
-0.9 1 0
-1 0.90583 0
-1 0.819642 0
-1 0.740758 0
-1 0.66856 0
-1 0.602481 0
-1 0.542002 0
-1 0.486649 0
-1 0.435987 0
-1 0.389619 0
-1 0.347181 0
-1 0.308339 0
-1 0.27279 0
-1 0.240253 0
-1 0.210474 0
-1 0.183219 0
-1 0.158274 0
-1 0.135442 0
-1 0.114546 0
-1 0.0954213 0
-1 0.0779171 0
-1 0.0618965 0
-1 0.0472336 0
-1 0.0338135 0
-1 0.0215307 0
-1 0.010289 0
0.00921362 0.00379763 0
0.0184561 0.00752451 0
0.0277268 0.0111804 0
0.0370253 0.0147652 0
0.0463511 0.0182786 0
0.0557034 0.0217203 0
0.0650819 0.0250903 0
0.074486 0.0283883 0
0.083915 0.0316141 0
0.0933685 0.0347675 0
0.102846 0.0378484 0
0.112347 0.0408565 0
0.12187 0.0437917 0
0.131416 0.0466538 0
0.140983 0.0494427 0
0.150572 0.0521581 0
0.160181 0.0547999 0
0.16981 0.0573681 0
0.179458 0.0598623 0
0.189125 0.0622825 0
0.198811 0.0646285 0
0.208514 0.0669001 0
0.218234 0.0690974 0
0.227971 0.07122 0
0.237724 0.073268 0
0.247493 0.0752411 0
0.257276 0.0771393 0
0.267073 0.0789625 0
0.276884 0.0807105 0
0.286708 0.0823832 0
0.296545 0.0839806 0
0.306394 0.0855025 0
0.316254 0.0869488 0
0.326125 0.0883196 0
0.336006 0.0896146 0
0.345896 0.0908339 0
0.355796 0.0919773 0
0.365704 0.0930447 0
0.375621 0.0940362 0
0.385544 0.0949517 0
0.395474 0.095791 0
0.40541 0.0965542 0
0.415352 0.0972412 0
0.425299 0.097852 0
0.43525 0.0983865 0
0.445205 0.0988447 0
0.455164 0.0992266 0
0.465125 0.0995321 0
0.475088 0.0997613 0
0.485052 0.0999141 0
0.495017 0.0999904 0
0.504983 0.0999904 0
0.514948 0.0999141 0
0.524912 0.0997613 0
0.534875 0.0995321 0
0.544836 0.0992266 0
0.554795 0.0988447 0
0.56475 0.0983865 0
0.574701 0.097852 0
0.584648 0.0972412 0
0.59459 0.0965542 0
0.604526 0.095791 0
0.614456 0.0949517 0
0.624379 0.0940362 0
0.634296 0.0930447 0
0.644204 0.0919773 0
0.654104 0.0908339 0
0.663994 0.0896146 0
0.673875 0.0883196 0
0.683746 0.0869488 0
0.693606 0.0855025 0
0.703455 0.0839806 0
0.713292 0.0823832 0
0.723116 0.0807105 0
0.732927 0.0789625 0
0.742724 0.0771393 0
0.752508 0.0752411 0
0.762276 0.073268 0
0.772029 0.07122 0
0.781766 0.0690974 0
0.791486 0.0669001 0
0.801189 0.0646285 0
0.810875 0.0622825 0
0.820542 0.0598623 0
0.83019 0.0573681 0
0.839819 0.0547999 0
0.849428 0.0521581 0
0.859017 0.0494427 0
0.868584 0.0466538 0
0.87813 0.0437917 0
0.887653 0.0408565 0
0.897154 0.0378484 0
0.906631 0.0347675 0
0.916085 0.0316141 0
0.925514 0.0283883 0
0.934918 0.0250903 0
0.944297 0.0217203 0
0.953649 0.0182786 0
0.962975 0.0147652 0
0.972273 0.0111804 0
0.981544 0.00752451 0
0.990786 0.00379763 0
-1 0.90583 0.1
-1 0.819642 0.1
-1 0.740758 0.1
-1 0.66856 0.1
-1 0.602481 0.1
-1 0.542002 0.1
-1 0.486649 0.1
-1 0.435987 0.1
-1 0.389619 0.1
-1 0.347181 0.1
-1 0.308339 0.1
-1 0.27279 0.1
-1 0.240253 0.1
-1 0.210474 0.1
-1 0.183219 0.1
-1 0.158274 0.1
-1 0.135442 0.1
-1 0.114546 0.1
-1 0.0954213 0.1
-1 0.0779171 0.1
-1 0.0618965 0.1
-1 0.0472336 0.1
-1 0.0338135 0.1
-1 0.0215307 0.1
-1 0.010289 0.1
-0.99 0 0.1
-0.98 0 0.1
-0.97 0 0.1
-0.96 0 0.1
-0.95 0 0.1
-0.94 0 0.1
-0.93 0 0.1
-0.92 0 0.1
-0.91 0 0.1
-0.9 0 0.1
-0.89 0 0.1
-0.88 0 0.1
-0.87 0 0.1
-0.86 0 0.1
-0.85 0 0.1
-0.84 0 0.1
-0.83 0 0.1
-0.82 0 0.1
-0.81 0 0.1
-0.8 0 0.1
-0.79 0 0.1
-0.78 0 0.1
-0.77 0 0.1
-0.76 0 0.1
-0.75 0 0.1
-0.74 0 0.1
-0.73 0 0.1
-0.72 0 0.1
-0.71 0 0.1
-0.7 0 0.1
-0.69 0 0.1
-0.68 0 0.1
-0.67 0 0.1
-0.66 0 0.1
-0.65 0 0.1
-0.64 0 0.1
-0.63 0 0.1
-0.62 0 0.1
-0.61 0 0.1
-0.6 0 0.1
-0.59 0 0.1
-0.58 0 0.1
-0.57 0 0.1
-0.56 0 0.1
-0.55 0 0.1
-0.54 0 0.1
-0.53 0 0.1
-0.52 0 0.1
-0.51 0 0.1
-0.5 0 0.1
-0.49 0 0.1
-0.48 0 0.1
-0.47 0 0.1
-0.46 0 0.1
-0.45 0 0.1
-0.44 0 0.1
-0.43 0 0.1
-0.42 0 0.1
-0.41 0 0.1
-0.4 0 0.1
-0.39 0 0.1
-0.38 0 0.1
-0.37 0 0.1
-0.36 0 0.1
-0.35 0 0.1
-0.34 0 0.1
-0.33 0 0.1
-0.32 0 0.1
-0.31 0 0.1
-0.3 0 0.1
-0.29 0 0.1
-0.28 0 0.1
-0.27 0 0.1
-0.26 0 0.1
-0.25 0 0.1
-0.24 0 0.1
-0.23 0 0.1
-0.22 0 0.1
-0.21 0 0.1
-0.2 0 0.1
-0.19 0 0.1
-0.18 0 0.1
-0.17 0 0.1
-0.16 0 0.1
-0.15 0 0.1
-0.14 0 0.1
-0.13 0 0.1
-0.12 0 0.1
-0.11 0 0.1
-0.1 0 0.1
-0.09 0 0.1
-0.08 0 0.1
-0.07 0 0.1
-0.06 0 0.1
-0.05 0 0.1
-0.04 0 0.1
-0.03 0 0.1
-0.02 0 0.1
-0.01 0 0.1
0.00921362 0.00379763 0.1
0.0184561 0.00752451 0.1
0.0277268 0.0111804 0.1
0.0370253 0.0147652 0.1
0.0463511 0.0182786 0.1
0.0557034 0.0217203 0.1
0.0650819 0.0250903 0.1
0.074486 0.0283883 0.1
0.083915 0.0316141 0.1
0.0933685 0.0347675 0.1
0.102846 0.0378484 0.1
0.112347 0.0408565 0.1
0.12187 0.0437917 0.1
0.131416 0.0466538 0.1
0.140983 0.0494427 0.1
0.150572 0.0521581 0.1
0.160181 0.0547999 0.1
0.16981 0.0573681 0.1
0.179458 0.0598623 0.1
0.189125 0.0622825 0.1
0.198811 0.0646285 0.1
0.208514 0.0669001 0.1
0.218234 0.0690974 0.1
0.227971 0.07122 0.1
0.237724 0.073268 0.1
0.247493 0.0752411 0.1
0.257276 0.0771393 0.1
0.267073 0.0789625 0.1
0.276884 0.0807105 0.1
0.286708 0.0823832 0.1
0.296545 0.0839806 0.1
0.306394 0.0855025 0.1
0.316254 0.0869488 0.1
0.326125 0.0883196 0.1
0.336006 0.0896146 0.1
0.345896 0.0908339 0.1
0.355796 0.0919773 0.1
0.365704 0.0930447 0.1
0.375621 0.0940362 0.1
0.385544 0.0949517 0.1
0.395474 0.095791 0.1
0.40541 0.0965542 0.1
0.415352 0.0972412 0.1
0.425299 0.097852 0.1
0.43525 0.0983865 0.1
0.445205 0.0988447 0.1
0.455164 0.0992266 0.1
0.465125 0.0995321 0.1
0.475088 0.0997613 0.1
0.485052 0.0999141 0.1
0.495017 0.0999904 0.1
0.504983 0.0999904 0.1
0.514948 0.0999141 0.1
0.524912 0.0997613 0.1
0.534875 0.0995321 0.1
0.544836 0.0992266 0.1
0.554795 0.0988447 0.1
0.56475 0.0983865 0.1
0.574701 0.097852 0.1
0.584648 0.0972412 0.1
0.59459 0.0965542 0.1
0.604526 0.095791 0.1
0.614456 0.0949517 0.1
0.624379 0.0940362 0.1
0.634296 0.0930447 0.1
0.644204 0.0919773 0.1
0.654104 0.0908339 0.1
0.663994 0.0896146 0.1
0.673875 0.0883196 0.1
0.683746 0.0869488 0.1
0.693606 0.0855025 0.1
0.703455 0.0839806 0.1
0.713292 0.0823832 0.1
0.723116 0.0807105 0.1
0.732927 0.0789625 0.1
0.742724 0.0771393 0.1
0.752508 0.0752411 0.1
0.762276 0.073268 0.1
0.772029 0.07122 0.1
0.781766 0.0690974 0.1
0.791486 0.0669001 0.1
0.801189 0.0646285 0.1
0.810875 0.0622825 0.1
0.820542 0.0598623 0.1
0.83019 0.0573681 0.1
0.839819 0.0547999 0.1
0.849428 0.0521581 0.1
0.859017 0.0494427 0.1
0.868584 0.0466538 0.1
0.87813 0.0437917 0.1
0.887653 0.0408565 0.1
0.897154 0.0378484 0.1
0.906631 0.0347675 0.1
0.916085 0.0316141 0.1
0.925514 0.0283883 0.1
0.934918 0.0250903 0.1
0.944297 0.0217203 0.1
0.953649 0.0182786 0.1
0.962975 0.0147652 0.1
0.972273 0.0111804 0.1
0.981544 0.00752451 0.1
0.990786 0.00379763 0.1
1.01 0 0.1
1.02 0 0.1
1.03 0 0.1
1.04 0 0.1
1.05 0 0.1
1.06 0 0.1
1.07 0 0.1
1.08 0 0.1
1.09 0 0.1
1.1 0 0.1
1.11 0 0.1
1.12 0 0.1
1.13 0 0.1
1.14 0 0.1
1.15 0 0.1
1.16 0 0.1
1.17 0 0.1
1.18 0 0.1
1.19 0 0.1
1.2 0 0.1
1.21 0 0.1
1.22 0 0.1
1.23 0 0.1
1.24 0 0.1
1.25 0 0.1
1.26 0 0.1
1.27 0 0.1
1.28 0 0.1
1.29 0 0.1
1.3 0 0.1
1.31 0 0.1
1.32 0 0.1
1.33 0 0.1
1.34 0 0.1
1.35 0 0.1
1.36 0 0.1
1.37 0 0.1
1.38 0 0.1
1.39 0 0.1
1.4 0 0.1
1.41 0 0.1
1.42 0 0.1
1.43 0 0.1
1.44 0 0.1
1.45 0 0.1
1.46 0 0.1
1.47 0 0.1
1.48 0 0.1
1.49 0 0.1
1.5 0 0.1
1.51 0 0.1
1.52 0 0.1
1.53 0 0.1
1.54 0 0.1
1.55 0 0.1
1.56 0 0.1
1.57 0 0.1
1.58 0 0.1
1.59 0 0.1
1.6 0 0.1
1.61 0 0.1
1.62 0 0.1
1.63 0 0.1
1.64 0 0.1
1.65 0 0.1
1.66 0 0.1
1.67 0 0.1
1.68 0 0.1
1.69 0 0.1
1.7 0 0.1
1.71 0 0.1
1.72 0 0.1
1.73 0 0.1
1.74 0 0.1
1.75 0 0.1
1.76 0 0.1
1.77 0 0.1
1.78 0 0.1
1.79 0 0.1
1.8 0 0.1
1.81 0 0.1
1.82 0 0.1
1.83 0 0.1
1.84 0 0.1
1.85 0 0.1
1.86 0 0.1
1.87 0 0.1
1.88 0 0.1
[...]
CELL_DATA 7425
SCALARS rho float
LOOKUP_TABLE default
0.587274
0.80504
0.819563
0.827527
0.799444
0.81916
0.820918
0.814142
0.812994
0.738659
0.863493
0.810041
0.813905
0.827384
0.803733
0.817159
0.798775
0.813275
0.803472
0.767271
0.831282
0.822054
0.724813
0.828056
0.803878
0.703111
0.831213
0.848303
0.800169
0.80795
0.819375
0.72546
0.803618
0.652182
0.519474
0.828023
0.803509
0.814119
0.811151
0.828015
0.716052
0.70334
0.789991
0.701974
0.586602
0.748242
0.799321
0.813839
0.661845
0.719241
0.746324
0.805156
0.812362
0.799098
0.709732
0.632732
0.822921
0.800107
0.738529
0.700955
0.70959
0.807663
0.813245
0.799402
0.798778
0.817617
0.584462
0.773299
0.704591
0.807869
0.804191
0.803204
0.883403
0.821127
0.810851
0.813054
0.805053
0.800443
0.813252
0.757776
0.815987
0.807242
0.810298
0.7887
0.835909
0.801112
0.574544
0.829964
0.542658
0.848485
0.706436
0.729768
0.845266
0.80318
0.817406
0.758252
0.836062
0.788028
0.825635
0.802498
0.808104
0.738651
0.803289
0.828247
0.597316
0.811078
0.82438
0.707512
0.815004
0.799188
0.816717
0.784551
0.789821
0.812435
0.789724
0.786326
0.831262
0.803106
0.699971
0.631113
0.805051
0.777281
0.812958
0.790413
0.85894
0.838872
0.807699
0.804281
0.661256
0.504288
0.814483
0.655137
0.515337
0.867729
0.662214
0.799538
0.811108
0.723587
0.582103
0.724887
0.723323
0.80962
0.809653
0.707229
0.80316
0.779618
0.565568
0.788528
0.782545
0.827775
0.81677
0.704297
0.802924
0.744305
0.705127
0.803278
0.810442
0.830416
0.797571
0.652255
0.802518
0.70325
0.801118
0.82975
0.820465
0.802378
0.813076
0.784826
0.806281
0.800669
0.819716
0.804499
0.791194
0.799151
0.799895
0.740173
0.803714
0.758757
0.594215
0.706108
0.7997
0.792719
0.879797
0.83185
0.618356
0.822934
0.798658
0.827349
0.799892
0.813416
0.812622
0.803196
0.806948
0.704498
0.815019
0.819263
0.770112
0.797154
0.861164
0.807771
0.811838
0.811179
0.612954
0.838925
0.573124
0.531979
0.595574
0.600762
0.828161
0.879331
0.80753
0.798657
0.841383
0.812982
0.816689
0.820774
0.815211
0.63808
0.549835
0.813736
0.545708
0.592668
0.703349
0.811706
0.814074
0.813054
0.833141
0.812925
0.864234
0.70986
0.83523
0.712739
0.805174
0.803925
0.801967
0.713953
0.720524
0.61958
0.705375
0.86362
0.875426
0.806249
0.8077
0.798875
0.81154
0.715934
0.821615
0.800211
0.8257
0.79463
0.809863
0.721404
0.812825
0.823743
0.739834
0.528646
0.799874
0.736415
0.843307
0.814353
0.72657
0.815586
0.814849
0.849951
0.809522
0.803891
0.803256
0.825659
0.860762
0.805458
0.619336
0.84889
0.812009
0.805606
0.827547
0.837339
0.813001
0.821438
0.793509
0.815081
0.866638
0.849946
0.827346
0.836743
0.802678
0.817168
0.803193
0.759725
0.701339
0.580995
0.700777
0.802354
0.812904
0.815994
0.854731
0.779666
0.645817
0.827087
0.521042
0.774296
0.800993
0.646478
0.49579
0.639176
0.815206
0.813247
0.812981
0.812734
0.826722
0.774437
0.811481
0.80267
0.812921
0.840715
0.867133
0.833562
0.802745
0.705853
0.795903
0.834287
0.691635
0.798766
0.802053
0.864785
0.817108
0.59314
0.813404
0.740555
0.852322
0.732035
0.81012
0.907654
0.799889
0.795661
0.659029
0.635645
0.711616
0.780607
0.826546
0.814943
0.813703
0.882455
0.858198
0.799557
0.799171
0.826036
0.739254
0.802531
0.879386
0.801383
0.804721
0.800718
0.802571
0.81298
0.815729
0.81638
0.636305
0.829997
0.64574
0.808474
0.639419
0.802631
0.802241
0.840266
0.728759
0.816352
0.80858
0.816988
0.799518
0.802498
0.811255
0.696915
0.824476
0.813072
0.812942
0.800683
0.736827
0.560058
0.806418
0.811035
0.803192
0.812909
0.794746
0.503634
0.846029
0.813327
0.803852
0.785737
0.813274
0.804685
0.803046
0.816246
0.807515
0.822515
0.768625
0.812662
0.807776
0.562786
0.803139
0.640186
0.83876
0.636306
0.814707
0.8779
0.59344
0.818087
0.748979
0.804418
0.873343
0.533928
0.823127
0.822266
0.8035
0.825744
0.81107
0.823464
0.830642
0.824841
0.739761
0.827526
0.76166
0.810225
0.794247
0.793639
0.758612
0.805605
0.80209
0.814475
0.752273
0.804713
0.604532
0.614318
0.689146
0.812825
0.8442
0.864839
0.829883
0.798603
0.812659
0.804898
0.818526
0.680566
0.801003
0.742979
0.824058
0.814808
0.805416
0.711667
0.72727
0.533843
0.605695
0.801309
0.611465
0.7926
0.765383
0.770064
0.727048
0.762481
0.767554
0.80945
0.814941
0.819558
0.811481
0.710573
0.602504
0.839035
0.806942
0.783157
0.809857
0.802574
0.836563
0.71827
0.855288
0.763693
0.728426
0.764541
0.81152
0.545172
0.798848
0.84162
0.813309
0.813797
0.809729
0.799189
0.780322
0.835704
0.803111
0.842978
0.721128
0.70739
0.800351
0.795165
0.822028
0.708781
0.847965
0.800447
0.816062
0.79875
0.779187
0.808287
0.594718
0.677494
0.632489
0.812946
0.803825
0.826361
0.749277
0.810601
0.814809
0.820401
0.798999
0.72941
0.796895
0.81432
0.803202
0.703338
0.813605
0.818917
0.840033
0.810794
0.825344
0.862296
0.857276
0.743976
0.60351
0.838035
0.805817
0.843386
0.814239
0.822923
0.813536
0.813815
0.634705
0.80521
0.809317
0.81284
0.791916
0.8106
0.804787
0.860567
0.798686
0.812754
0.814726
0.871924
0.597733
0.813473
0.842463
0.88332
0.530639
0.816415
0.829967
0.79615
0.814756
0.794968
0.867601
0.812209
0.831357
0.812739
0.619443
0.802403
0.804153
0.690981
0.853144
0.759764
0.801817
0.81399
0.81273
0.85975
0.79536
0.833619
0.834728
0.784319
0.825192
0.842394
0.799766
0.810518
0.806984
0.805321
0.814856
0.802636
0.845229
0.769271
0.809788
0.803169
0.815225
0.723197
0.812914
0.818365
0.752629
0.8136
0.816363
0.827598
0.825126
0.800743
0.800677
0.850505
0.767927
0.825162
0.844212
0.804563
0.505911
0.812917
0.828288
0.852392
0.812659
0.803152
0.808539
0.855052
0.780081
0.80259
0.801258
0.812956
0.727243
0.802741
0.830016
0.808042
0.794983
0.793537
0.843206
0.806613
0.845324
0.802024
0.82426
0.812781
0.804223
0.84186
0.812886
0.679558
0.818791
0.807106
0.812853
0.906146
0.800825
0.815906
0.8005
0.80042
0.816218
0.800525
0.803368
0.783732
0.747365
0.806523
0.812918
0.758051
0.791428
0.823034
0.813025
0.822269
0.806331
0.825784
0.875309
0.830659
0.575101
0.70885
0.840762
0.817303
0.844165
0.814778
0.850109
0.807366
0.812413
0.799377
0.838418
0.860938
0.852798
0.731586
0.814105
0.822189
0.743947
0.817135
0.775963
0.800243
0.733128
0.81608
0.830876
0.823477
0.861897
0.814232
0.813318
0.810204
0.81466
0.835802
0.812209
0.798692
0.81024
0.737611
0.81137
0.774175
0.832849
0.812796
0.638878
0.777655
0.811172
0.799209
0.819841
0.802506
0.814693
0.817315
0.804479
0.819412
0.80417
0.805881
0.597454
0.847051
0.825143
0.826716
0.814953
0.803227
0.701895
0.806511
0.907836
0.813608
0.801064
0.812905
0.782299
0.807288
0.813305
0.821301
0.814647
0.813249
0.816256
0.70158
0.777879
0.764626
0.812683
0.805335
0.80106
0.621424
0.805745
0.802662
0.708272
0.837218
0.817215
0.802218
0.807483
0.799427
0.817266
0.813949
0.81331
0.812902
0.709729
0.831706
0.800292
0.807443
0.842833
0.817652
0.816311
0.800206
0.753679
0.823848
0.787444
0.821449
0.789428
0.80567
0.820968
0.73754
0.817418
0.650838
0.872034
0.704391
0.845016
0.800829
0.875163
0.793736
0.801692
0.820687
0.83625
0.838421
0.825483
0.819844
0.814729
0.801153
0.804192
0.808257
0.725861
0.827248
0.80009
0.719635
0.830546
0.705651
0.800035
0.860448
0.805589
0.701613
0.797857
0.814108
0.704902
0.785662
0.8194
0.831868
0.806987
0.574439
0.728746
0.812395
0.80136
0.81295
0.800699
0.73726
0.814035
0.815736
0.812517
0.775387
0.803269
0.8045
0.803607
0.560555
0.812738
0.834115
0.579992
0.815185
0.816122
0.814717
0.818378
0.814442
0.824553
0.799113
0.795131
0.77103
0.822907
0.829675
0.825115
0.834918
0.765389
0.809027
0.724526
0.772388
0.808834
0.821089
0.813308
0.800978
0.858345
0.812954
0.800361
0.80962
0.816114
0.815208
0.836641
0.814515
0.812833
0.811987
0.813841
0.800175
0.821011
0.803774
0.822845
0.81349
0.575715
0.813537
0.834475
0.858125
0.838196
0.491046
0.816826
0.804545
0.496812
0.669502
0.64349
0.834308
0.807993
0.811657
0.812824
0.803207
0.816767
0.810974
0.534733
0.686623
0.818247
0.806632
0.815634
0.803513
0.810247
0.810935
0.820253
0.799542
0.692436
0.855974
0.803153
0.814726
0.813646
0.757808
0.485989
0.832906
0.81356
0.741963
0.802705
0.806236
0.591159
0.827542
0.814802
0.827734
0.818798
0.826015
0.804736
0.719549
0.643624
0.562176
0.825331
0.80855
0.782976
0.812997
0.779827
0.817907
0.873319
0.762396
0.821625
0.813547
0.825851
0.883569
0.814463
0.811859
0.803272
0.813872
0.691818
0.828222
0.799904
0.810197
0.802217
0.784264
0.85417
0.822056
0.840492
0.821539
0.757588
0.75593
0.803343
0.818119
0.803067
0.80525
0.802595
0.775685
0.814704
0.761619
0.821183
0.662124
0.813994
0.802968
0.735675
0.823265
0.817991
0.740025
0.801173
0.757248
0.880712
0.800727
0.812866
0.762715
0.800118
0.814293
0.803954
0.589962
0.820956
0.798679
0.801373
0.814546
0.825625
0.757178
0.805554
0.841666
0.826971
0.814108
0.835849
0.700535
0.700193
0.81295
0.744193
0.822233
0.771395
0.812858
0.802525
0.810415
0.751988
0.794206
0.764364
0.809914
0.803146
0.631259
0.779041
0.799242
0.849049
0.814389
0.828663
0.526652
0.825345
0.785159
0.858744
0.800946
0.817996
0.800314
0.785809
0.798774
0.825724
0.835773
0.821779
0.817136
0.706915
0.773864
0.815377
0.805385
0.810002
0.803913
0.706724
0.79285
0.803485
0.810684
0.827205
0.851218
0.831863
0.813488
0.799458
0.804254
0.802046
0.779654
0.611693
0.80035
0.731356
0.661973
0.822819
0.798871
0.777272
0.800003
0.754191
0.785309
0.811482
0.822214
0.803362
0.816026
0.817367
0.820672
0.813412
0.808491
0.712189
0.69944
0.640963
0.829291
0.869573
0.815376
0.841367
0.847846
0.863744
0.735761
0.8166
0.863018
0.81021
0.812897
0.816207
0.732835
0.812443
0.806685
0.806222
0.517426
0.812989
0.761206
0.81318
0.813792
0.803545
0.705486
0.81322
0.61069
0.825042
0.802299
0.82225
0.855172
0.803434
0.795379
0.820947
0.811599
0.805718
0.762279
0.510042
0.82091
0.80309
0.828955
0.825774
0.802123
0.807029
0.834475
0.720876
0.500624
0.886266
0.800605
0.815706
0.804326
0.710429
0.798656
0.800029
0.815081
0.736145
0.646561
0.883253
0.714198
0.836559
0.812006
0.832899
0.842671
0.792201
0.804749
0.813615
0.852786
0.738347
0.870708
0.814035
0.562897
0.802484
0.74891
0.85292
0.760328
0.804221
0.803957
0.799652
0.801599
0.808899
0.81293
0.855597
0.806012
0.802868
0.801314
0.800026
0.812264
0.816888
0.80262
0.812508
0.849215
0.803099
0.783472
0.802241
0.839627
0.725111
0.813648
0.813845
0.638495
0.713146
0.805552
0.823034
0.80358
0.5119
0.856366
0.813231
0.833029
0.80531
0.803316
0.801348
0.786265
0.587245
0.8043
0.816117
0.835996
0.820578
0.812972
0.798184
0.746999
0.801575
0.765818
0.787547
0.799355
0.790971
0.751103
0.800858
0.811486
0.810389
0.832208
0.84911
0.553377
0.841911
0.812867
0.820853
0.802018
0.822667
0.811099
0.894617
0.800249
0.867146
0.805692
0.759801
0.862127
0.802283
0.800247
0.82417
0.660454
0.645342
0.803398
0.803859
0.70475
0.654356
0.799904
0.823863
0.813051
0.822599
0.733013
0.817196
0.812862
0.826143
0.81696
0.811947
0.812887
0.754608
0.803917
0.815693
0.811353
0.676267
0.56653
0.812924
0.650053
0.721958
0.55521
0.841404
0.800141
0.527151
0.600839
0.827523
0.908068
0.818159
0.652369
0.814176
0.786454
0.801734
0.786408
0.820676
0.810117
0.788294
0.821065
0.801027
0.587759
0.817838
0.766698
0.815943
0.700832
0.822232
0.789659
0.813967
0.80007
0.662923
0.843518
0.806564
0.806638
0.493774
0.816846
0.800399
0.852199
0.711306
0.8171
0.584183
0.719005
0.801419
0.796681
0.732808
0.715596
0.715912
0.507178
0.58998
0.80001
0.517713
0.822611
0.520512
0.757215
0.671359
0.599609
0.540771
0.745459
0.803083
0.715096
0.821308
0.800948
0.802952
0.761216
0.889682
0.799067
0.824492
0.803434
0.812811
0.705997
0.807589
0.736725
0.821921
0.886042
0.83358
0.747745
0.8228
0.770515
0.879905
0.8042
0.758687
0.850691
0.776882
0.79993
0.805314
0.758255
0.744667
0.665625
0.804988
0.803025
0.817921
0.833499
0.61154
0.807936
0.53824
0.668636
0.616488
0.818541
0.821053
0.809015
0.803979
0.615737
0.872462
0.802679
0.802947
0.863522
0.812447
0.772045
0.812184
0.80237
0.817915
0.803146
0.717074
0.80338
0.655481
0.799024
0.80411
0.801553
0.639214
0.811539
0.810316
0.725653
0.817823
0.549243
0.576783
0.80415
0.69652
0.725973
0.572178
0.723662
0.81364
0.707396
0.772993
0.716659
0.812812
0.670248
0.762129
0.80646
0.810623
0.654583
0.801952
0.895158
0.796707
0.81681
0.585312
0.69385
0.800954
0.812965
0.814026
0.851663
0.812664
0.804259
0.803732
0.803341
0.713838
0.717538
0.615692
0.771497
0.532974
0.723874
0.809937
0.814424
0.80615
0.799286
0.536805
0.809082
0.803761
0.554093
0.543467
0.746619
0.803576
0.806191
0.549427
0.79823
0.569678
0.720577
0.607848
0.81355
0.80227
0.597118
0.608355
0.8679
0.81005
0.76543
0.717905
0.621817
0.655375
0.709646
0.816025
0.759797
0.765499
0.624075
0.753898
0.809326
0.81538
0.812475
0.815486
0.865651
0.75472
0.818942
0.803339
0.851285
0.812879
0.802776
0.813097
0.722497
0.812961
0.812005
0.815197
0.811166
0.815905
0.803274
0.817937
0.810401
0.809753
0.817278
0.800118
0.816606
0.818963
0.667518
0.818619
0.868419
0.818179
0.792935
0.645959
0.858585
0.818799
0.824896
0.799562
0.811232
0.757503
0.85255
0.559647
0.726721
0.809865
0.81568
0.803877
0.803364
0.832055
0.805046
0.805215
0.815276
0.780731
0.838558
0.841951
0.815217
0.664362
0.612585
0.815778
0.816632
0.788326
0.849633
0.847262
0.81087
0.813641
0.777777
0.814101
0.817843
0.814126
0.818786
0.813115
0.815836
0.851047
0.815981
0.814514
0.817564
0.817777
0.784904
0.81413
0.80407
0.804149
0.804631
0.818578
0.811502
0.788364
0.753955
0.812685
0.80628
0.808794
0.80638
0.857772
0.80336
0.814008
0.812711
0.805202
0.569632
0.80389
0.812755
0.815037
0.810317
0.812798
0.813313
0.813038
0.81018
0.864394
0.501714
0.812829
0.841664
0.812664
0.802968
0.808421
0.81501
0.839682
0.800464
0.801234
0.812615
0.705729
0.812846
0.80823
0.807372
0.812566
0.812896
0.813039
0.813371
0.511973
0.811873
0.715878
0.885843
0.821062
0.733378
0.671654
0.815372
0.803527
0.818734
0.646539
0.801668
0.813342
0.648024
0.79987
0.8041
0.815453
0.806281
0.856741
0.809852
0.606987
0.800843
0.77517
0.811218
0.889074
0.803294
0.815516
0.819326
0.832206
0.813408
0.822404
0.836344
0.635017
0.802639
0.655823
0.813755
0.813655
0.712476
0.813541
0.804828
0.713089
0.814928
0.701377
0.861075
0.784106
0.814304
0.812903
0.813436
0.66795
0.813662
0.633336
0.80021
0.792375
0.822298
0.815187
0.716078
0.766698
0.830052
0.812762
0.821301
0.821907
0.813445
0.825335
0.799515
0.552169
0.754892
0.759237
0.731374
0.837608
0.822372
0.834342
0.776055
0.802763
0.813036
0.812959
0.812962
0.774654
0.563887
0.803205
0.528692
0.808207
0.824294
0.799718
0.80376
0.812976
0.806017
0.782636
0.732214
0.813394
0.859144
0.813702
0.799305
0.736897
0.809626
0.788728
0.833718
0.504084
0.795982
0.805912
0.798891
0.68929
0.812849
0.810759
0.857102
0.569143
0.807337
0.803271
0.812829
0.612658
0.813094
0.803335
0.803404
0.803029
0.813205
0.813303
0.816108
0.813046
0.717775
0.804504
0.803202
0.812995
0.896162
0.813151
0.774002
0.841161
0.799183
0.803135
0.601399
0.812889
0.803359
0.825675
0.801972
0.866223
0.814826
0.853441
0.800357
0.820633
0.777891
0.55838
0.75273
0.794253
0.803943
0.813937
0.813806
0.555591
0.861781
0.857949
0.768493
0.757672
0.738526
0.812081
0.848431
0.812927
0.81371
0.812961
0.804275
0.726759
0.803502
0.799123
0.764201
0.824257
0.822992
0.861839
0.815648
0.812973
0.525003
0.808889
0.812933
0.800721
0.773983
0.81807
0.803111
0.812882
0.826879
0.798453
0.803595
0.801228
0.81517
0.83911
0.802388
0.799178
0.801511
0.766086
0.819859
0.567153
0.868373
0.80369
0.545829
0.803174
0.803133
0.819581
0.592272
0.606217
0.801566
0.803652
0.800863
0.860726
0.779946
0.814624
0.802938
0.865765
0.804714
0.804452
0.826309
0.81594
0.820114
0.821265
0.820315
0.867473
0.729288
0.852141
0.817189
0.653717
0.802552
0.803185
0.803638
0.821109
0.823493
0.803976
0.8011
0.800066
0.822664
0.803205
0.803607
0.799678
0.824371
0.803973
0.801999
0.806077
0.827851
0.800559
0.801536
0.824279
0.799598
0.81537
0.651316
0.826372
0.849832
0.804874
0.819558
0.803232
0.828732
0.83748
0.803398
0.821461
0.800543
0.806993
0.789555
0.802161
0.803166
0.806356
0.805904
0.804527
0.818529
0.814734
0.811236
0.831391
0.802196
0.802221
0.799918
0.789
0.83377
0.803147
0.819287
0.815194
0.807108
0.805047
0.802948
0.83889
0.864775
0.799588
0.67898
0.80119
0.842134
0.816577
0.805144
0.804463
0.819691
0.844579
0.601974
0.828775
0.7945
0.850396
0.818713
0.811995
0.813273
0.808245
0.803955
0.812769
0.808753
0.591891
0.847967
0.794608
0.814165
0.854573
0.819261
0.763195
0.808635
0.814436
0.815444
0.802966
0.661735
0.80922
0.86314
0.802579
0.800714
0.775431
0.871207
0.800439
0.877059
0.806684
0.817146
0.820594
0.802241
0.803828
0.81259
0.815864
0.803486
0.813308
0.816726
0.881341
0.820689
0.809294
0.800153
0.828393
0.810477
0.838874
0.808811
0.80694
0.812135
0.816528
0.829893
0.813641
0.822514
0.832504
0.814179
0.699779
0.690974
0.813027
0.817724
0.803826
0.813105
0.514251
0.854859
0.799773
0.806223
0.813914
0.813464
0.803958
0.812461
0.800487
0.801215
0.808036
0.814717
0.756913
0.784647
0.82292
0.842706
0.834795
0.800271
0.805071
0.803354
0.812907
0.805706
0.799537
0.799804
0.801015
0.810894
0.797808
0.802764
0.835473
0.83134
0.72989
0.669499
0.807576
0.698702
0.799511
0.572505
0.804407
0.806932
0.803118
0.818142
0.83379
0.813903
0.81284
0.810261
0.803845
0.88151
0.816245
0.804816
0.772264
0.586144
0.810234
0.806638
0.769371
0.814394
0.813853
0.791469
0.800703
0.804029
0.62506
0.830426
0.803501
0.781505
0.77931
0.852695
0.809984
0.802897
0.80262
0.810214
0.811056
0.518861
0.801789
0.839473
0.813903
0.798571
0.588841
0.814531
0.814047
0.81293
0.83371
0.813895
0.803929
0.821869
0.805606
0.575854
0.808629
0.736566
0.798502
0.813612
0.722225
0.814903
0.846013
0.831597
0.664531
0.890893
0.785588
0.777427
0.796871
0.779519
0.808618
0.849988
0.80799
0.802867
0.813525
0.808841
0.782615
0.785927
0.813857
0.808332
0.834827
0.821247
0.835662
0.801282
0.79967
0.813024
0.856597
0.816437
0.818354
0.813322
0.607394
0.795522
0.823866
0.829325
0.865884
0.812582
0.818921
0.508894
0.809722
0.800603
0.812585
0.81474
0.847567
0.813028
0.811082
0.881487
0.764556
0.812543
0.813212
0.809002
0.805208
0.814202
0.65595
0.800497
0.849511
0.833493
0.810598
0.813534
0.813342
0.809559
0.699081
0.812471
0.800184
0.838548
0.818448
0.811607
0.8313
0.792716
0.811526
0.817788
0.808811
0.819262
0.744293
0.854761
0.818938
0.813781
0.813031
0.812679
0.815689
0.817129
0.812726
0.810762
0.841054
0.818568
0.80017
0.825264
0.826923
0.81604
0.814452
0.800378
0.801517
0.813021
0.818998
0.829387
0.812772
0.816429
0.799846
0.809936
0.81281
0.812774
0.802495
0.814637
0.813302
0.80324
0.812834
0.835633
0.800021
0.809408
0.82153
0.560075
0.814185
0.818137
0.815487
0.814979
0.821939
0.828798
0.815594
0.818808
0.701467
0.813033
0.801342
0.815588
0.818995
0.835044
0.821537
0.81552
0.829345
0.824913
0.810649
0.819173
0.819531
0.804203
0.813129
0.815576
0.819435
0.832087
0.812601
0.815669
0.802715
0.812907
0.813023
0.522822
0.627759
0.814338
0.821412
0.801743
0.82244
0.815877
0.841847
0.708146
0.813716
0.730509
0.817372
0.81029
0.813134
0.829323
0.813627
0.804884
0.812892
0.830056
0.83932
0.812768
0.719218
0.81924
0.816002
0.799934
0.803027
0.815281
0.855907
0.81262
0.813344
0.849677
0.828974
0.843245
0.573624
0.829083
0.813914
0.81087
0.817371
0.850535
0.817735
0.71842
0.799558
0.831729
0.799792
0.799745
0.805397
0.747849
0.813368
0.814316
0.725474
0.814327
0.827309
0.813287
0.814002
0.79924
0.818346
0.812957
0.823547
0.808694
0.808178
0.814941
0.705425
0.819045
0.814051
0.812942
0.639971
0.718653
0.599425
0.823244
0.529894
0.853842
0.727346
0.842779
0.812498
0.722817
0.821387
0.815852
0.742571
0.80766
0.818323
0.794404
0.816492
0.815833
0.815762
0.812958
0.807863
0.80366
0.737314
0.836147
0.820137
0.816578
0.799242
0.815403
0.802021
0.815976
0.81343
0.854634
0.817741
0.497276
0.813272
0.818758
0.818631
0.778058
0.815714
0.806718
0.818545
0.845371
0.596495
0.809119
0.799324
0.815289
0.817589
0.817659
0.812422
0.818568
0.813825
0.81455
0.803071
0.814246
0.846087
0.813903
0.791999
0.811462
0.622583
0.718704
0.813034
0.816963
0.802937
0.82227
0.735454
0.803149
0.803183
0.820174
0.630531
0.817563
0.799372
0.815384
0.864691
0.785492
0.821916
0.817945
0.822778
0.813988
0.769606
0.802425
0.813535
0.902289
0.827138
0.816395
0.832182
0.809578
0.868232
0.719327
0.689402
0.852346
0.802701
0.666515
0.850307
0.786051