# vtk DataFile Version 1.0
unstructured grid
ascii
DATASET UNSTRUCTURED_GRID
points 7812 float
-1 0 0
-1 1 0
2 0 0
2 1 0
0 0 0
1 0 0
-1 1 0.1
-1 0 0.1
0 0 0.1
1 0 0.1
2 0 0.1
2 1 0.1
-0.99 0 0
-0.98 0 0
-0.97 0 0
-0.96 0 0
-0.95 0 0
-0.94 0 0
-0.93 0 0
-0.92 0 0
-0.91 0 0
-0.9 0 0
-0.89 0 0
-0.88 0 0
-0.87 0 0
-0.86 0 0
-0.85 0 0
-0.84 0 0
-0.83 0 0
-0.82 0 0
-0.81 0 0
-0.8 0 0
-0.79 0 0
-0.78 0 0
-0.77 0 0
-0.76 0 0
-0.75 0 0
-0.74 0 0
-0.73 0 0
-0.72 0 0
-0.71 0 0
-0.7 0 0
-0.69 0 0
-0.68 0 0
-0.67 0 0
-0.66 0 0
-0.65 0 0
-0.64 0 0
-0.63 0 0
-0.62 0 0
-0.61 0 0
-0.6 0 0
-0.59 0 0
-0.58 0 0
-0.57 0 0
-0.56 0 0
-0.55 0 0
-0.54 0 0
-0.53 0 0
-0.52 0 0
-0.51 0 0
-0.5 0 0
-0.49 0 0
-0.48 0 0
-0.47 0 0
-0.46 0 0
-0.45 0 0
-0.44 0 0
-0.43 0 0
-0.42 0 0
-0.41 0 0
-0.4 0 0
-0.39 0 0
-0.38 0 0
-0.37 0 0
-0.36 0 0
-0.35 0 0
-0.34 0 0
-0.33 0 0
-0.32 0 0
-0.31 0 0
-0.3 0 0
-0.29 0 0
-0.28 0 0
-0.27 0 0
-0.26 0 0
-0.25 0 0
-0.24 0 0
-0.23 0 0
-0.22 0 0
-0.21 0 0
-0.2 0 0
-0.19 0 0
-0.18 0 0
-0.17 0 0
-0.16 0 0
-0.15 0 0
-0.14 0 0
-0.13 0 0
-0.12 0 0
-0.11 0 0
-0.1 0 0
-0.09 0 0
-0.08 0 0
-0.07 0 0
-0.06 0 0
-0.05 0 0
-0.04 0 0
-0.03 0 0
-0.02 0 0
-0.01 0 0
1.01 0 0
1.02 0 0
1.03 0 0
1.04 0 0
1.05 0 0
1.06 0 0
1.07 0 0
1.08 0 0
1.09 0 0
1.1 0 0
1.11 0 0
1.12 0 0
1.13 0 0
1.14 0 0
1.15 0 0
1.16 0 0
1.17 0 0
1.18 0 0
1.19 0 0
1.2 0 0
1.21 0 0
1.22 0 0
1.23 0 0
1.24 0 0
1.25 0 0
1.26 0 0
1.27 0 0
1.28 0 0
1.29 0 0
1.3 0 0
1.31 0 0
1.32 0 0
1.33 0 0
1.34 0 0
1.35 0 0
1.36 0 0
1.37 0 0
1.38 0 0
1.39 0 0
1.4 0 0
1.41 0 0
1.42 0 0
1.43 0 0
1.44 0 0
1.45 0 0
1.46 0 0
1.47 0 0
1.48 0 0
1.49 0 0
1.5 0 0
1.51 0 0
1.52 0 0
1.53 0 0
1.54 0 0
1.55 0 0
1.56 0 0
1.57 0 0
1.58 0 0
1.59 0 0
1.6 0 0
1.61 0 0
1.62 0 0
1.63 0 0
1.64 0 0
1.65 0 0
1.66 0 0
1.67 0 0
1.68 0 0
1.69 0 0
1.7 0 0
1.71 0 0
1.72 0 0
1.73 0 0
1.74 0 0
1.75 0 0
1.76 0 0
1.77 0 0
1.78 0 0
1.79 0 0
1.8 0 0
1.81 0 0
1.82 0 0
1.83 0 0
1.84 0 0
1.85 0 0
1.86 0 0
1.87 0 0
1.88 0 0
1.89 0 0
1.9 0 0
1.91 0 0
1.92 0 0
1.93 0 0
1.94 0 0
1.95 0 0
1.96 0 0
1.97 0 0
1.98 0 0
1.99 0 0
2 0.010289 0
2 0.0215307 0
2 0.0338135 0
2 0.0472336 0
2 0.0618965 0
2 0.0779171 0
2 0.0954213 0
2 0.114546 0
2 0.135442 0
2 0.158274 0
2 0.183219 0
2 0.210474 0
2 0.240253 0
2 0.27279 0
2 0.308339 0
2 0.347181 0
2 0.389619 0
2 0.435987 0
2 0.486649 0
2 0.542002 0
2 0.602481 0
2 0.66856 0
2 0.740758 0
2 0.819642 0
2 0.90583 0
1.9 1 0
1.8 1 0
1.7 1 0
1.6 1 0
1.5 1 0
1.4 1 0
1.3 1 0
1.2 1 0
1.1 1 0
1 1 0
0.9 1 0
0.8 1 0
0.7 1 0
0.6 1 0
0.5 1 0
0.4 1 0
0.3 1 0
0.2 1 0
0.1 1 0
3.69793e-12 1 0
-0.1 1 0
-0.2 1 0
-0.3 1 0
-0.4 1 0
-0.5 1 0
-0.6 1 0
-0.7 1 0
-0.8 1 0
-0.9 1 0
-1 0.90583 0
-1 0.819642 0
-1 0.740758 0
-1 0.66856 0
-1 0.602481 0
-1 0.542002 0
-1 0.486649 0
-1 0.435987 0
-1 0.389619 0
-1 0.347181 0
-1 0.308339 0
-1 0.27279 0
-1 0.240253 0
-1 0.210474 0
-1 0.183219 0
-1 0.158274 0
-1 0.135442 0
-1 0.114546 0
-1 0.0954213 0
-1 0.0779171 0
-1 0.0618965 0
-1 0.0472336 0
-1 0.0338135 0
-1 0.0215307 0
-1 0.010289 0
0.00921362 0.00379763 0
0.0184561 0.00752451 0
0.0277268 0.0111804 0
0.0370253 0.0147652 0
0.0463511 0.0182786 0
0.0557034 0.0217203 0
0.0650819 0.0250903 0
0.074486 0.0283883 0
0.083915 0.0316141 0
0.0933685 0.0347675 0
0.102846 0.0378484 0
0.112347 0.0408565 0
0.12187 0.0437917 0
0.131416 0.0466538 0
0.140983 0.0494427 0
0.150572 0.0521581 0
0.160181 0.0547999 0
0.16981 0.0573681 0
0.179458 0.0598623 0
0.189125 0.0622825 0
0.198811 0.0646285 0
0.208514 0.0669001 0
0.218234 0.0690974 0
0.227971 0.07122 0
0.237724 0.073268 0
0.247493 0.0752411 0
0.257276 0.0771393 0
0.267073 0.0789625 0
0.276884 0.0807105 0
0.286708 0.0823832 0
0.296545 0.0839806 0
0.306394 0.0855025 0
0.316254 0.0869488 0
0.326125 0.0883196 0
0.336006 0.0896146 0
0.345896 0.0908339 0
0.355796 0.0919773 0
0.365704 0.0930447 0
0.375621 0.0940362 0
0.385544 0.0949517 0
0.395474 0.095791 0
0.40541 0.0965542 0
0.415352 0.0972412 0
0.425299 0.097852 0
0.43525 0.0983865 0
0.445205 0.0988447 0
0.455164 0.0992266 0
0.465125 0.0995321 0
0.475088 0.0997613 0
0.485052 0.0999141 0
0.495017 0.0999904 0
0.504983 0.0999904 0
0.514948 0.0999141 0
0.524912 0.0997613 0
0.534875 0.0995321 0
0.544836 0.0992266 0
0.554795 0.0988447 0
0.56475 0.0983865 0
0.574701 0.097852 0
0.584648 0.0972412 0
0.59459 0.0965542 0
0.604526 0.095791 0
0.614456 0.0949517 0
0.624379 0.0940362 0
0.634296 0.0930447 0
0.644204 0.0919773 0
0.654104 0.0908339 0
0.663994 0.0896146 0
0.673875 0.0883196 0
0.683746 0.0869488 0
0.693606 0.0855025 0
0.703455 0.0839806 0
0.713292 0.0823832 0
0.723116 0.0807105 0
0.732927 0.0789625 0
0.742724 0.0771393 0
0.752508 0.0752411 0
0.762276 0.073268 0
0.772029 0.07122 0
0.781766 0.0690974 0
0.791486 0.0669001 0
0.801189 0.0646285 0
0.810875 0.0622825 0
0.820542 0.0598623 0
0.83019 0.0573681 0
0.839819 0.0547999 0
0.849428 0.0521581 0
0.859017 0.0494427 0
0.868584 0.0466538 0
0.87813 0.0437917 0
0.887653 0.0408565 0
0.897154 0.0378484 0
0.906631 0.0347675 0
0.916085 0.0316141 0
0.925514 0.0283883 0
0.934918 0.0250903 0
0.944297 0.0217203 0
0.953649 0.0182786 0
0.962975 0.0147652 0
0.972273 0.0111804 0
0.981544 0.00752451 0
0.990786 0.00379763 0
-1 0.90583 0.1
-1 0.819642 0.1
-1 0.740758 0.1
-1 0.66856 0.1
-1 0.602481 0.1
-1 0.542002 0.1
-1 0.486649 0.1
-1 0.435987 0.1
-1 0.389619 0.1
-1 0.347181 0.1
-1 0.308339 0.1
-1 0.27279 0.1
-1 0.240253 0.1
-1 0.210474 0.1
-1 0.183219 0.1
-1 0.158274 0.1
-1 0.135442 0.1
-1 0.114546 0.1
-1 0.0954213 0.1
-1 0.0779171 0.1
-1 0.0618965 0.1
-1 0.0472336 0.1
-1 0.0338135 0.1
-1 0.0215307 0.1
-1 0.010289 0.1
-0.99 0 0.1
-0.98 0 0.1
-0.97 0 0.1
-0.96 0 0.1
-0.95 0 0.1
-0.94 0 0.1
-0.93 0 0.1
-0.92 0 0.1
-0.91 0 0.1
-0.9 0 0.1
-0.89 0 0.1
-0.88 0 0.1
-0.87 0 0.1
-0.86 0 0.1
-0.85 0 0.1
-0.84 0 0.1
-0.83 0 0.1
-0.82 0 0.1
-0.81 0 0.1
-0.8 0 0.1
-0.79 0 0.1
-0.78 0 0.1
-0.77 0 0.1
-0.76 0 0.1
-0.75 0 0.1
-0.74 0 0.1
-0.73 0 0.1
-0.72 0 0.1
-0.71 0 0.1
-0.7 0 0.1
-0.69 0 0.1
-0.68 0 0.1
-0.67 0 0.1
-0.66 0 0.1
-0.65 0 0.1
-0.64 0 0.1
-0.63 0 0.1
-0.62 0 0.1
-0.61 0 0.1
-0.6 0 0.1
-0.59 0 0.1
-0.58 0 0.1
-0.57 0 0.1
-0.56 0 0.1
-0.55 0 0.1
-0.54 0 0.1
-0.53 0 0.1
-0.52 0 0.1
-0.51 0 0.1
-0.5 0 0.1
-0.49 0 0.1
-0.48 0 0.1
-0.47 0 0.1
-0.46 0 0.1
-0.45 0 0.1
-0.44 0 0.1
-0.43 0 0.1
-0.42 0 0.1
-0.41 0 0.1
-0.4 0 0.1
-0.39 0 0.1
-0.38 0 0.1
-0.37 0 0.1
-0.36 0 0.1
-0.35 0 0.1
-0.34 0 0.1
-0.33 0 0.1
-0.32 0 0.1
-0.31 0 0.1
-0.3 0 0.1
-0.29 0 0.1
-0.28 0 0.1
-0.27 0 0.1
-0.26 0 0.1
-0.25 0 0.1
-0.24 0 0.1
-0.23 0 0.1
-0.22 0 0.1
-0.21 0 0.1
-0.2 0 0.1
-0.19 0 0.1
-0.18 0 0.1
-0.17 0 0.1
-0.16 0 0.1
-0.15 0 0.1
-0.14 0 0.1
-0.13 0 0.1
-0.12 0 0.1
-0.11 0 0.1
-0.1 0 0.1
-0.09 0 0.1
-0.08 0 0.1
-0.07 0 0.1
-0.06 0 0.1
-0.05 0 0.1
-0.04 0 0.1
-0.03 0 0.1
-0.02 0 0.1
-0.01 0 0.1
0.00921362 0.00379763 0.1
0.0184561 0.00752451 0.1
0.0277268 0.0111804 0.1
0.0370253 0.0147652 0.1
0.0463511 0.0182786 0.1
0.0557034 0.0217203 0.1
0.0650819 0.0250903 0.1
0.074486 0.0283883 0.1
0.083915 0.0316141 0.1
0.0933685 0.0347675 0.1
0.102846 0.0378484 0.1
0.112347 0.0408565 0.1
0.12187 0.0437917 0.1
0.131416 0.0466538 0.1
0.140983 0.0494427 0.1
0.150572 0.0521581 0.1
0.160181 0.0547999 0.1
0.16981 0.0573681 0.1
0.179458 0.0598623 0.1
0.189125 0.0622825 0.1
0.198811 0.0646285 0.1
0.208514 0.0669001 0.1
0.218234 0.0690974 0.1
0.227971 0.07122 0.1
0.237724 0.073268 0.1
0.247493 0.0752411 0.1
0.257276 0.0771393 0.1
0.267073 0.0789625 0.1
0.276884 0.0807105 0.1
0.286708 0.0823832 0.1
0.296545 0.0839806 0.1
0.306394 0.0855025 0.1
0.316254 0.0869488 0.1
0.326125 0.0883196 0.1
0.336006 0.0896146 0.1
0.345896 0.0908339 0.1
0.355796 0.0919773 0.1
0.365704 0.0930447 0.1
0.375621 0.0940362 0.1
0.385544 0.0949517 0.1
0.395474 0.095791 0.1
0.40541 0.0965542 0.1
0.415352 0.0972412 0.1
0.425299 0.097852 0.1
0.43525 0.0983865 0.1
0.445205 0.0988447 0.1
0.455164 0.0992266 0.1
0.465125 0.0995321 0.1
0.475088 0.0997613 0.1
0.485052 0.0999141 0.1
0.495017 0.0999904 0.1
0.504983 0.0999904 0.1
0.514948 0.0999141 0.1
0.524912 0.0997613 0.1
0.534875 0.0995321 0.1
0.544836 0.0992266 0.1
0.554795 0.0988447 0.1
0.56475 0.0983865 0.1
0.574701 0.097852 0.1
0.584648 0.0972412 0.1
0.59459 0.0965542 0.1
0.604526 0.095791 0.1
0.614456 0.0949517 0.1
0.624379 0.0940362 0.1
0.634296 0.0930447 0.1
0.644204 0.0919773 0.1
0.654104 0.0908339 0.1
0.663994 0.0896146 0.1
0.673875 0.0883196 0.1
0.683746 0.0869488 0.1
0.693606 0.0855025 0.1
0.703455 0.0839806 0.1
0.713292 0.0823832 0.1
0.723116 0.0807105 0.1
0.732927 0.0789625 0.1
0.742724 0.0771393 0.1
0.752508 0.0752411 0.1
0.762276 0.073268 0.1
0.772029 0.07122 0.1
0.781766 0.0690974 0.1
0.791486 0.0669001 0.1
0.801189 0.0646285 0.1
0.810875 0.0622825 0.1
0.820542 0.0598623 0.1
0.83019 0.0573681 0.1
0.839819 0.0547999 0.1
0.849428 0.0521581 0.1
0.859017 0.0494427 0.1
0.868584 0.0466538 0.1
0.87813 0.0437917 0.1
0.887653 0.0408565 0.1
0.897154 0.0378484 0.1
0.906631 0.0347675 0.1
0.916085 0.0316141 0.1
0.925514 0.0283883 0.1
0.934918 0.0250903 0.1
0.944297 0.0217203 0.1
0.953649 0.0182786 0.1
0.962975 0.0147652 0.1
0.972273 0.0111804 0.1
0.981544 0.00752451 0.1
0.990786 0.00379763 0.1
1.01 0 0.1
1.02 0 0.1
1.03 0 0.1
1.04 0 0.1
1.05 0 0.1
1.06 0 0.1
1.07 0 0.1
1.08 0 0.1
1.09 0 0.1
1.1 0 0.1
1.11 0 0.1
1.12 0 0.1
1.13 0 0.1
1.14 0 0.1
1.15 0 0.1
1.16 0 0.1
1.17 0 0.1
1.18 0 0.1
1.19 0 0.1
1.2 0 0.1
1.21 0 0.1
1.22 0 0.1
1.23 0 0.1
1.24 0 0.1
1.25 0 0.1
1.26 0 0.1
1.27 0 0.1
1.28 0 0.1
1.29 0 0.1
1.3 0 0.1
1.31 0 0.1
1.32 0 0.1
1.33 0 0.1
1.34 0 0.1
1.35 0 0.1
1.36 0 0.1
1.37 0 0.1
1.38 0 0.1
1.39 0 0.1
1.4 0 0.1
1.41 0 0.1
1.42 0 0.1
1.43 0 0.1
1.44 0 0.1
1.45 0 0.1
1.46 0 0.1
1.47 0 0.1
1.48 0 0.1
1.49 0 0.1
1.5 0 0.1
1.51 0 0.1
1.52 0 0.1
1.53 0 0.1
1.54 0 0.1
1.55 0 0.1
1.56 0 0.1
1.57 0 0.1
1.58 0 0.1
1.59 0 0.1
1.6 0 0.1
1.61 0 0.1
1.62 0 0.1
1.63 0 0.1
1.64 0 0.1
1.65 0 0.1
1.66 0 0.1
1.67 0 0.1
1.68 0 0.1
1.69 0 0.1
1.7 0 0.1
1.71 0 0.1
1.72 0 0.1
1.73 0 0.1
1.74 0 0.1
1.75 0 0.1
1.76 0 0.1
1.77 0 0.1
1.78 0 0.1
1.79 0 0.1
1.8 0 0.1
1.81 0 0.1
1.82 0 0.1
1.83 0 0.1
1.84 0 0.1
1.85 0 0.1
1.86 0 0.1
1.87 0 0.1
1.88 0 0.1
[...]
CELL_DATA 7425
SCALARS rho float
LOOKUP_TABLE default
0.864878
0.810848
0.934071
0.933004
0.805552
0.933108
0.928088
0.938504
0.942638
0.902188
0.938448
0.82304
0.939132
0.932966
0.813719
0.93512
0.803768
0.9413
0.805866
0.852532
0.933677
0.842158
0.89852
0.93343
0.807258
0.897757
0.933253
0.869726
0.810375
0.820001
0.928012
0.849538
0.806246
0.884381
0.848154
0.933418
0.805861
0.938627
0.824667
0.931874
0.902813
0.867
0.916729
0.840163
0.865776
0.856181
0.925833
0.93926
0.860785
0.838254
0.842139
0.811557
0.844391
0.804191
0.841417
0.839381
0.933454
0.803892
0.902356
0.895016
0.890947
0.819409
0.941411
0.804229
0.809417
0.934756
0.864727
0.912552
0.838705
0.81981
0.813206
0.803147
0.944351
0.841333
0.853616
0.942545
0.811157
0.808311
0.941278
0.844876
0.936035
0.818729
0.939648
0.850508
0.93043
0.807507
0.860931
0.931853
0.854919
0.936136
0.844623
0.899741
0.868441
0.804899
0.934855
0.918585
0.853951
0.833965
0.933357
0.812031
0.93362
0.840422
0.80539
0.932071
0.86731
0.8249
0.932107
0.899213
0.937152
0.80474
0.934956
0.848838
0.850964
0.830079
0.916778
0.835648
0.933194
0.803104
0.838274
0.854682
0.811614
0.913425
0.942821
0.840292
0.939177
0.855791
0.817869
0.921924
0.884637
0.843836
0.937292
0.884021
0.847717
0.878013
0.858947
0.805751
0.843257
0.902113
0.86226
0.866514
0.905481
0.823952
0.940436
0.840732
0.810762
0.847528
0.858231
0.927274
0.850037
0.933442
0.926698
0.846931
0.812026
0.841299
0.837211
0.806655
0.82357
0.933617
0.920456
0.879259
0.805948
0.841059
0.807698
0.933559
0.933733
0.803882
0.942229
0.91541
0.824897
0.807379
0.934014
0.816389
0.928022
0.804636
0.803889
0.868417
0.813919
0.91862
0.867633
0.842636
0.805197
0.922397
0.943331
0.932137
0.847265
0.933461
0.803935
0.845777
0.805245
0.940282
0.943856
0.805037
0.826568
0.836586
0.93705
0.933277
0.851105
0.923676
0.872496
0.817991
0.826751
0.941857
0.871414
0.856049
0.859617
0.850897
0.866509
0.865912
0.846534
0.943393
0.817851
0.809285
0.931441
0.943175
0.934818
0.933679
0.936771
0.875789
0.853433
0.93959
0.855165
0.866402
0.83882
0.935348
0.937955
0.942559
0.933444
0.944271
0.872983
0.843226
0.85321
0.893692
0.827065
0.807207
0.804237
0.900257
0.865248
0.87155
0.845248
0.940358
0.881217
0.935816
0.818226
0.926461
0.826859
0.868696
0.933624
0.807449
0.932968
0.82901
0.940923
0.839214
0.943982
0.933404
0.873905
0.850857
0.804102
0.839455
0.861112
0.937452
0.850156
0.936216
0.937371
0.933923
0.939012
0.817036
0.804655
0.933358
0.939675
0.818262
0.871491
0.93613
0.830475
0.81266
0.933141
0.931306
0.94093
0.932573
0.839068
0.937046
0.874392
0.934234
0.845821
0.934423
0.806016
0.935137
0.802861
0.845274
0.897564
0.86243
0.839158
0.928135
0.942725
0.936025
0.866946
0.847231
0.879091
0.933409
0.84924
0.912195
0.807353
0.879802
0.842334
0.876359
0.936914
0.941373
0.943164
0.939008
0.933365
0.846456
0.828922
0.808237
0.944334
0.935053
0.877825
0.933433
0.807185
0.843317
0.920558
0.929901
0.89326
0.803943
0.804035
0.939601
0.935203
0.864947
0.940268
0.874299
0.865408
0.90695
0.939626
0.952692
0.806508
0.852113
0.884553
0.876822
0.842483
0.924908
0.933103
0.937158
0.939689
0.883741
0.870646
0.805682
0.919166
0.849388
0.909504
0.839192
0.944549
0.801384
0.818139
0.807486
0.803929
0.940731
0.936272
0.935547
0.879642
0.847997
0.876987
0.855465
0.879814
0.927466
0.804011
0.860169
0.906301
0.848962
0.933639
0.935117
0.80407
0.803849
0.854111
0.881467
0.848308
0.942212
0.94076
0.802889
0.853865
0.856564
0.817115
0.941417
0.804434
0.943974
0.851752
0.843398
0.861574
0.940478
0.806979
0.91595
0.941253
0.813999
0.810691
0.935786
0.818341
0.933364
0.851431
0.924035
0.818218
0.858416
0.813657
0.876916
0.930533
0.877337
0.93655
0.944177
0.866021
0.835757
0.908596
0.813569
0.941336
0.852234
0.933125
0.933521
0.806573
0.933343
0.825772
0.93341
0.933606
0.932932
0.870881
0.933399
0.846143
0.824619
0.825615
0.919561
0.910412
0.812899
0.800227
0.933441
0.916714
0.81323
0.869187
0.872546
0.89146
0.94105
0.935078
0.940748
0.932052
0.804008
0.943756
0.81417
0.930945
0.88954
0.806442
0.857806
0.926533
0.935633
0.819985
0.844371
0.90364
0.852357
0.868444
0.80776
0.869731
0.924478
0.845082
0.849285
0.848694
0.911797
0.915418
0.939693
0.937257
0.934046
0.941841
0.900558
0.866951
0.934163
0.932911
0.844694
0.826608
0.807132
0.934401
0.885308
0.938268
0.84431
0.884745
0.916166
0.93582
0.855303
0.804037
0.935273
0.829504
0.939445
0.938968
0.805282
0.925079
0.930783
0.804262
0.935553
0.855685
0.839332
0.80391
0.920468
0.93336
0.899868
0.936545
0.808495
0.935522
0.803775
0.847139
0.823754
0.865273
0.888328
0.875747
0.938647
0.920318
0.932895
0.905266
0.826413
0.93746
0.933699
0.804491
0.906832
0.93041
0.832602
0.804165
0.880177
0.939904
0.933095
0.858609
0.941511
0.933358
0.93785
0.936873
0.911416
0.86786
0.930566
0.816568
0.932311
0.938344
0.841399
0.940192
0.939374
0.855553
0.819879
0.929968
0.944137
0.917532
0.923123
0.816351
0.873942
0.804051
0.944127
0.937467
0.94246
0.866837
0.940126
0.858553
0.944416
0.851143
0.935566
0.848311
0.822733
0.848762
0.919851
0.94111
0.926117
0.933698
0.830689
0.873526
0.804532
0.808394
0.89221
0.935233
0.849209
0.838819
0.938482
0.941685
0.870303
0.821375
0.931081
0.934072
0.925873
0.843849
0.85817
0.805823
0.82669
0.821074
0.811979
0.933122
0.803894
0.935115
0.846101
0.853182
0.806475
0.926286
0.903886
0.943688
0.934497
0.906487
0.939899
0.929337
0.846301
0.933079
0.80697
0.804574
0.934367
0.847817
0.844526
0.935062
0.812753
0.84498
0.942505
0.933446
0.934809
0.935576
0.802785
0.855331
0.936062
0.849485
0.807875
0.807018
0.943588
0.885042
0.809529
0.848602
0.824761
0.826464
0.92938
0.935547
0.816618
0.932664
0.800221
0.933401
0.93944
0.808253
0.931808
0.94245
0.892061
0.934314
0.818456
0.939407
0.952057
0.804383
0.930926
0.803855
0.804351
0.935768
0.804494
0.806393
0.850963
0.842679
0.935782
0.943795
0.909892
0.927181
0.933104
0.830358
0.93352
0.816556
0.933355
0.942214
0.933607
0.86203
0.894536
0.935066
0.935023
0.934725
0.93657
0.935525
0.821721
0.92438
0.804341
0.933923
0.939563
0.93756
0.906602
0.938692
0.932575
0.845253
0.835735
0.847226
0.803828
0.90637
0.935877
0.933652
0.846165
0.87483
0.937743
0.94104
0.93736
0.936865
0.93199
0.827479
0.803741
0.82606
0.909033
0.942057
0.848864
0.93214
0.830006
0.876496
0.848774
0.827096
0.804085
0.934034
0.81197
0.936851
0.935016
0.813531
0.933695
0.809622
0.81992
0.867293
0.936377
0.933094
0.933376
0.832682
0.806242
0.893877
0.823062
0.952794
0.937799
0.809975
0.939642
0.844329
0.822526
0.938014
0.933676
0.831407
0.941307
0.935798
0.83874
0.918101
0.916462
0.941677
0.814975
0.80982
0.873657
0.819504
0.81161
0.899813
0.862744
0.934996
0.808215
0.821092
0.803732
0.934445
0.926492
0.941122
0.944054
0.894618
0.931722
0.827253
0.822726
0.859744
0.835755
0.935367
0.805261
0.843468
0.93195
0.923304
0.933419
0.839641
0.820409
0.933762
0.854455
0.931606
0.874124
0.942513
0.896413
0.935869
0.932205
0.941888
0.851976
0.804961
0.933819
0.861965
0.857539
0.931768
0.933998
0.935399
0.928099
0.828255
0.819815
0.889174
0.859444
0.807325
0.837708
0.931361
0.84132
0.807273
0.870421
0.812713
0.869232
0.84237
0.938683
0.839293
0.851028
0.933825
0.930548
0.936643
0.853721
0.881323
0.841131
0.810891
0.943712
0.806445
0.903172
0.937941
0.936289
0.943318
0.912399
0.804489
0.809699
0.816603
0.857322
0.943937
0.852876
0.86305
0.936884
0.935917
0.937473
0.934511
0.937686
0.93317
0.805242
0.814825
0.850227
0.841102
0.848217
0.843489
0.864526
0.853459
0.939046
0.901625
0.84591
0.823799
0.933716
0.940677
0.804777
0.872513
0.94359
0.931522
0.939678
0.935315
0.936803
0.934368
0.937865
0.942677
0.827236
0.939206
0.808415
0.933452
0.8076
0.933493
0.940366
0.862897
0.9402
0.934074
0.869013
0.860534
0.840804
0.935263
0.923
0.84255
0.887539
0.874608
0.932141
0.923749
0.827864
0.941378
0.8025
0.935375
0.825264
0.852913
0.892449
0.835497
0.815545
0.93606
0.805802
0.822935
0.941257
0.932814
0.803775
0.889797
0.872548
0.802571
0.830947
0.938974
0.907327
0.839837
0.933843
0.829446
0.84486
0.800384
0.822719
0.864446
0.859712
0.936297
0.933413
0.934323
0.845265
0.810216
0.88586
0.878851
0.857566
0.933356
0.824845
0.85025
0.942602
0.919994
0.934707
0.941451
0.908468
0.933624
0.937704
0.933033
0.945733
0.937541
0.940155
0.820502
0.831325
0.894516
0.93341
0.804086
0.827849
0.804523
0.846926
0.938014
0.933246
0.931287
0.933613
0.849014
0.855213
0.814884
0.933557
0.803464
0.812737
0.823853
0.919159
0.937018
0.857674
0.840036
0.883358
0.938235
0.820066
0.845421
0.926055
0.930865
0.902797
0.850798
0.909555
0.882713
0.803318
0.944197
0.911922
0.807819
0.938197
0.808251
0.864886
0.839206
0.920195
0.932334
0.937752
0.932195
0.858233
0.818518
0.857856
0.845774
0.829964
0.934269
0.837691
0.893525
0.943714
0.904135
0.93354
0.911197
0.944082
0.804469
0.924986
0.906676
0.817369
0.914026
0.937433
0.80327
0.874894
0.84819
0.806763
0.863313
0.938064
0.933475
0.850595
0.847479
0.849046
0.93907
0.805866
0.835346
0.807996
0.917812
0.803854
0.931815
0.929767
0.839975
0.934431
0.83799
0.916627
0.932541
0.812552
0.941518
0.809324
0.84241
0.918879
0.810675
0.827083
0.860837
0.934368
0.933749
0.940354
0.80518
0.813989
0.807903
0.841963
0.871545
0.93074
0.907665
0.885501
0.932283
0.803729
0.850752
0.805423
0.906779
0.847088
0.943302
0.859546
0.925309
0.935305
0.929539
0.925421
0.940656
0.924557
0.895078
0.89405
0.877179
0.933509
0.941526
0.923858
0.858608
0.935721
0.938514
0.879213
0.931044
0.939018
0.929702
0.944465
0.928512
0.906053
0.935666
0.821622
0.820124
0.84729
0.943016
0.85502
0.941045
0.842595
0.805616
0.838321
0.940881
0.870295
0.8433
0.80953
0.92572
0.938187
0.805771
0.82131
0.933739
0.938504
0.814901
0.854163
0.845293
0.933407
0.815424
0.848114
0.933148
0.93304
0.81648
0.931548
0.902581
0.843413
0.945969
0.925943
0.936346
0.811279
0.839958
0.803812
0.805827
0.937044
0.910305
0.878643
0.944494
0.899356
0.934337
0.939796
0.933829
0.935187
0.927944
0.80999
0.939007
0.935172
0.902656
0.940365
0.938762
0.858439
0.812801
0.84965
0.937624
0.914482
0.810352
0.808013
0.804369
0.804253
0.939028
0.94412
0.869063
0.81916
0.803578
0.800867
0.805042
0.943861
0.935311
0.803725
0.944088
0.936855
0.803339
0.916793
0.803825
0.856379
0.901826
0.939778
0.938471
0.853001
0.899418
0.830194
0.932467
0.817039
0.846272
0.868028
0.937978
0.851044
0.811771
0.804303
0.803842
0.920275
0.86411
0.825556
0.93591
0.859225
0.933857
0.94338
0.931145
0.867926
0.850117
0.920381
0.842897
0.804544
0.82188
0.844028
0.806222
0.856498
0.939147
0.930104
0.863039
0.857269
0.935371
0.944511
0.84118
0.808616
0.844081
0.943249
0.948763
0.919534
0.874798
0.82419
0.91414
0.937863
0.81062
0.805098
0.932276
0.883412
0.878187
0.805302
0.80746
0.83942
0.881143
0.804083
0.933122
0.942621
0.933486
0.860963
0.927444
0.94174
0.933349
0.931513
0.828152
0.944534
0.907765
0.814931
0.935718
0.943428
0.886474
0.859711
0.944567
0.879846
0.897964
0.856767
0.934933
0.80548
0.84975
0.867394
0.927946
0.952883
0.934486
0.880661
0.937983
0.918001
0.808191
0.849767
0.839976
0.931048
0.843332
0.932755
0.930696
0.865968
0.9346
0.913343
0.935087
0.837125
0.933409
0.920893
0.938473
0.806592
0.883862
0.932276
0.922636
0.820709
0.841148
0.935259
0.80533
0.865224
0.838705
0.935129
0.862143
0.89736
0.80713
0.921345
0.908111
0.902297
0.843483
0.844611
0.859706
0.807058
0.847101
0.933493
0.848556
0.907989
0.888449
0.862957
0.852641
0.905065
0.802342
0.845155
0.933672
0.804406
0.809676
0.90929
0.947306
0.804521
0.933135
0.80647
0.943991
0.895384
0.821402
0.903168
0.933573
0.94636
0.931899
0.908355
0.933219
0.913516
0.943301
0.808381
0.907986
0.937183
0.915488
0.80426
0.819083
0.908118
0.914083
0.861592
0.810909
0.802461
0.933495
0.933584
0.869918
0.823358
0.853517
0.884695
0.869474
0.83739
0.933548
0.938357
0.809159
0.870968
0.940929
0.803724
0.803581
0.940302
0.944198
0.848657
0.943975
0.803818
0.934704
0.803347
0.898227
0.811186
0.879798
0.803844
0.927648
0.803847
0.876417
0.926519
0.923784
0.854383
0.83625
0.856648
0.861305
0.813597
0.892759
0.899354
0.8601
0.905034
0.939734
0.844436
0.849582
0.841894
0.923151
0.88626
0.909426
0.816831
0.936639
0.88395
0.803876
0.948983
0.841627
0.935383
0.864879
0.893449
0.931514
0.943472
0.938236
0.935356
0.941332
0.822675
0.814925
0.805157
0.900006
0.840519
0.872349
0.917504
0.851349
0.84379
0.938208
0.937104
0.819408
0.80505
0.848779
0.937582
0.80825
0.856959
0.854018
0.905104
0.808161
0.929041
0.85639
0.853137
0.860903
0.897647
0.870116
0.856737
0.808829
0.868028
0.870311
0.940885
0.823911
0.91067
0.902778
0.87315
0.881581
0.845188
0.934842
0.908096
0.849319
0.874654
0.910138
0.936836
0.936381
0.94358
0.936552
0.874288
0.91235
0.933924
0.82534
0.935938
0.944439
0.803976
0.941473
0.845387
0.933884
0.934313
0.934807
0.934892
0.934569
0.804289
0.934101
0.935472
0.936122
0.93422
0.807306
0.934378
0.93419
0.885054
0.934269
0.941412
0.934365
0.82405
0.879507
0.938917
0.934334
0.933352
0.804985
0.943118
0.845992
0.937573
0.856289
0.904574
0.826787
0.936297
0.80957
0.805102
0.933763
0.854659
0.814756
0.936797
0.913675
0.934679
0.934597
0.929624
0.884351
0.866339
0.936162
0.934631
0.927525
0.936894
0.934964
0.827897
0.934345
0.916214
0.937359
0.934299
0.937646
0.93431
0.83048
0.93616
0.937135
0.936036
0.935096
0.9349
0.934495
0.831542
0.934736
0.815147
0.817314
0.815377
0.934415
0.942833
0.919
0.846402
0.940251
0.815366
0.938354
0.815083
0.936676
0.811811
0.937062
0.942608
0.815617
0.838788
0.807595
0.942899
0.8331
0.823731
0.943152
0.940285
0.942101
0.824009
0.938623
0.84391
0.943372
0.934236
0.942308
0.806005
0.820198
0.937159
0.934839
0.806663
0.810692
0.923368
0.840635
0.943576
0.821719
0.821997
0.940971
0.942405
0.941917
0.940801
0.846541
0.855984
0.874264
0.945753
0.932454
0.844241
0.855453
0.936676
0.854356
0.83683
0.879001
0.804978
0.940927
0.879438
0.805631
0.809256
0.834072
0.92141
0.938539
0.824299
0.869356
0.805384
0.848966
0.834392
0.947071
0.923356
0.839231
0.837301
0.928709
0.940664
0.933515
0.933551
0.876988
0.925615
0.882048
0.939387
0.939581
0.841037
0.939809
0.929614
0.839636
0.931202
0.858827
0.939608
0.849769
0.938262
0.943536
0.940049
0.887982
0.939802
0.874805
0.804226
0.84202
0.933115
0.936946
0.858282
0.847203
0.933555
0.940663
0.92582
0.933554
0.940513
0.933345
0.804247
0.856794
0.850025
0.858317
0.845741
0.934537
0.841777
0.860282
0.923866
0.805011
0.942688
0.943461
0.943321
0.845364
0.859576
0.804347
0.85094
0.925088
0.843549
0.805075
0.807924
0.831157
0.827488
0.918993
0.85598
0.940668
0.937424
0.927727
0.803951
0.849042
0.856095
0.830731
0.929383
0.843863
0.818433
0.934107
0.803896
0.852605
0.941767
0.930686
0.871547
0.859802
0.817116
0.804055
0.939976
0.870485
0.941887
0.804087
0.805042
0.804868
0.941483
0.941096
0.935084
0.942562
0.844513
0.809562
0.803957
0.943067
0.949037
0.94168
0.914889
0.862858
0.806528
0.80351
0.86842
0.943368
0.804317
0.844618
0.853878
0.940932
0.928731
0.869
0.806604
0.933562
0.846421
0.858019
0.913206
0.924632
0.93327
0.832539
0.93871
0.857961
0.937841
0.86928
0.91806
0.852686
0.841319
0.829862
0.865809
0.943185
0.830031
0.94318
0.809617
0.840317
0.807774
0.803925
0.847583
0.933014
0.933445
0.937631
0.935551
0.943328
0.848477
0.822011
0.943358
0.805338
0.912683
0.841632
0.802535
0.940392
0.933387
0.828531
0.811357
0.804946
0.930421
0.934267
0.811084
0.803768
0.810431
0.850212
0.933946
0.860854
0.939785
0.806994
0.855063
0.811621
0.922779
0.838012
0.860723
0.870322
0.807408
0.814464
0.806686
0.937299
0.848585
0.931968
0.80651
0.875618
0.810331
0.809256
0.927996
0.932418
0.83902
0.933281
0.933484
0.939311
0.901425
0.935148
0.934618
0.88147
0.809154
0.8081
0.809718
0.933656
0.933001
0.811975
0.806784
0.805071
0.933471
0.8102
0.806897
0.804818
0.933348
0.807577
0.80497
0.815486
0.932883
0.80824
0.807457
0.843734
0.803984
0.936688
0.880826
0.933358
0.935273
0.813457
0.934086
0.805999
0.933464
0.934461
0.804912
0.933468
0.80425
0.820416
0.849412
0.805013
0.810073
0.814905
0.815878
0.815152
0.934
0.937526
0.825142
0.933673
0.810906
0.804144
0.804889
0.851177
0.933256
0.80592
0.934124
0.936869
0.817856
0.815344
0.803471
0.933865
0.873376
0.804699
0.887549
0.80456
0.935279
0.935403
0.817726
0.809075
0.837695
0.934611
0.863968
0.847709
0.923907
0.870174
0.934104
0.82648
0.828923
0.822432
0.807442
0.827776
0.820441
0.865765
0.936456
0.852255
0.93855
0.937948
0.934173
0.90942
0.821146
0.938032
0.934171
0.852347
0.884225
0.824858
0.940043
0.921957
0.804266
0.919459
0.940876
0.803804
0.942968
0.922191
0.934963
0.933795
0.812424
0.811796
0.941995
0.936021
0.814293
0.940054
0.834765
0.944616
0.857776
0.824559
0.806809
0.931126
0.829222
0.855643
0.822031
0.816753
0.829226
0.935585
0.930397
0.938728
0.931962
0.851225
0.831812
0.895436
0.852665
0.94172
0.934806
0.81557
0.940152
0.84725
0.935643
0.804006
0.815123
0.936701
0.939277
0.808064
0.940603
0.805504
0.805392
0.821361
0.92741
0.914923
0.915087
0.933295
0.867006
0.853538
0.805666
0.928977
0.804939
0.838945
0.815588
0.804473
0.804273
0.804538
0.922916
0.831057
0.812452
0.934143
0.849748
0.868595
0.842587
0.845276
0.887458
0.805326
0.859863
0.809587
0.817541
0.812228
0.934605
0.851776
0.939088
0.94292
0.823208
0.822354
0.944988
0.9358
0.817411
0.849381
0.863285
0.823466
0.820039
0.851678
0.937962
0.939282
0.827872
0.827869
0.808267
0.861394
0.929133
0.805657
0.924072
0.841564
0.935847
0.823683
0.812622
0.812984
0.855924
0.824563
0.84816
0.805958
0.93486
0.939162
0.839648
0.866787
0.831274
0.938684
0.94402
0.933899
0.939029
0.809229
0.933582
0.854855
0.862538
0.820034
0.909843
0.853123
0.939939
0.856376
0.937291
0.861092
0.858168
0.88479
0.947122
0.84153
0.920658
0.848302
0.850187
0.82163
0.863832
0.822043
0.806405
0.94022
0.93765
0.839289
0.834684
0.938185
0.823132
0.858072
0.932222
0.857045
0.928845
0.852873
0.942831
0.938484
0.930201
0.836215
0.940969
0.869413
0.832477
0.931699
0.928143
0.940808
0.943683
0.836641
0.845685
0.9383
0.805556
0.939823
0.833082
0.935218
0.942117
0.828603
0.944138
0.853863
0.827219
0.940744
0.936876
0.824132
0.938337
0.881945
0.824712
0.936845
0.853239
0.826347
0.933515
0.940834
0.823946
0.858251
0.933855
0.806846
0.934673
0.933969
0.828698
0.930977
0.92527
0.934328
0.934062
0.824387
0.934109
0.9127
0.86773
0.934184
0.831299
0.942284
0.942604
0.93454
0.934193
0.94289
0.934954
0.934265
0.934258
0.805895
0.844172
0.93133
0.834067
0.830582
0.805724
0.805217
0.942709
0.934257
0.848758
0.943152
0.934353
0.806018
0.935489
0.943374
0.942028
0.80644
0.937699
0.940497
0.84677
0.943582
0.933571
0.849454
0.936185
0.84065
0.859092
0.938002
0.93437
0.931724
0.934797
0.93323
0.931474
0.93574
0.934333
0.89429
0.942749
0.805437
0.936423
0.837319
0.855339
0.933612
0.924063
0.933522
0.933363
0.941295
0.841142
0.838369
0.932058
0.942039
0.936429
0.83706
0.933761
0.941324
0.936303
0.804006
0.943711
0.941927
0.848594
0.87562
0.838449
0.933669
0.807761
0.93221
0.936145
0.861473
0.89576
0.939552
0.861511
0.928724
0.936664
0.941843
0.930814
0.939752
0.818364
0.943544
0.929895
0.865821
0.941019
0.898648
0.857758
0.93552
0.804299
0.803504
0.936809
0.937251
0.94231
0.940933
0.935998
0.929127
0.932208
0.860845
0.932992
0.93887
0.936048
0.935011
0.869586
0.934812
0.897217
0.804481
0.851131
0.806312
0.80439
0.814301
0.905196
0.940808
0.937402
0.90526
0.937079
0.846434
0.940296
0.937371
0.804318
0.934205
0.943466
0.842492
0.8225
0.929796
0.93444
0.84541
0.93424
0.937635
0.943738
0.880892
0.84291
0.866509
0.841893
0.850067
0.866598
0.899552
0.860251
0.940976
0.893971
0.925792
0.934834
0.903826
0.818949
0.934556
0.851771
0.934625
0.936166
0.936168
0.943329
0.937484
0.806181
0.902347
0.853846
0.932986
0.934854
0.803755
0.831661
0.812519
0.936038
0.939539
0.869973
0.934284
0.842779
0.934324
0.934301
0.934413
0.848399
0.832328
0.816902
0.836196
0.860434
0.867254
0.824218
0.80477
0.936635
0.934656
0.934467
0.941701
0.934412
0.934734
0.935432
0.805264
0.935089
0.936217
0.937052
0.851851
0.938582
0.874763
0.83942
0.942691
0.935114
0.8071
0.933536
0.841356
0.802239
0.801864
0.933951
0.840675
0.934904
0.805023
0.936678
0.873082
0.84534
0.933572
0.934709
0.841701
0.938851
0.851489
0.804288
0.939601
0.950787
0.845751
0.935692
0.859029
0.940462
0.877066
0.841439
0.843314
0.86703
0.802582
0.841252
0.8671
0.845517
0.850608