# vtk DataFile Version 1.0
unstructured grid
ascii
DATASET UNSTRUCTURED_GRID
points 7812 float
-1 0 0
-1 1 0
2 0 0
2 1 0
0 0 0
1 0 0
-1 1 0.1
-1 0 0.1
0 0 0.1
1 0 0.1
2 0 0.1
2 1 0.1
-0.99 0 0
-0.98 0 0
-0.97 0 0
-0.96 0 0
-0.95 0 0
-0.94 0 0
-0.93 0 0
-0.92 0 0
-0.91 0 0
-0.9 0 0
-0.89 0 0
-0.88 0 0
-0.87 0 0
-0.86 0 0
-0.85 0 0
-0.84 0 0
-0.83 0 0
-0.82 0 0
-0.81 0 0
-0.8 0 0
-0.79 0 0
-0.78 0 0
-0.77 0 0
-0.76 0 0
-0.75 0 0
-0.74 0 0
-0.73 0 0
-0.72 0 0
-0.71 0 0
-0.7 0 0
-0.69 0 0
-0.68 0 0
-0.67 0 0
-0.66 0 0
-0.65 0 0
-0.64 0 0
-0.63 0 0
-0.62 0 0
-0.61 0 0
-0.6 0 0
-0.59 0 0
-0.58 0 0
-0.57 0 0
-0.56 0 0
-0.55 0 0
-0.54 0 0
-0.53 0 0
-0.52 0 0
-0.51 0 0
-0.5 0 0
-0.49 0 0
-0.48 0 0
-0.47 0 0
-0.46 0 0
-0.45 0 0
-0.44 0 0
-0.43 0 0
-0.42 0 0
-0.41 0 0
-0.4 0 0
-0.39 0 0
-0.38 0 0
-0.37 0 0
-0.36 0 0
-0.35 0 0
-0.34 0 0
-0.33 0 0
-0.32 0 0
-0.31 0 0
-0.3 0 0
-0.29 0 0
-0.28 0 0
-0.27 0 0
-0.26 0 0
-0.25 0 0
-0.24 0 0
-0.23 0 0
-0.22 0 0
-0.21 0 0
-0.2 0 0
-0.19 0 0
-0.18 0 0
-0.17 0 0
-0.16 0 0
-0.15 0 0
-0.14 0 0
-0.13 0 0
-0.12 0 0
-0.11 0 0
-0.1 0 0
-0.09 0 0
-0.08 0 0
-0.07 0 0
-0.06 0 0
-0.05 0 0
-0.04 0 0
-0.03 0 0
-0.02 0 0
-0.01 0 0
1.01 0 0
1.02 0 0
1.03 0 0
1.04 0 0
1.05 0 0
1.06 0 0
1.07 0 0
1.08 0 0
1.09 0 0
1.1 0 0
1.11 0 0
1.12 0 0
1.13 0 0
1.14 0 0
1.15 0 0
1.16 0 0
1.17 0 0
1.18 0 0
1.19 0 0
1.2 0 0
1.21 0 0
1.22 0 0
1.23 0 0
1.24 0 0
1.25 0 0
1.26 0 0
1.27 0 0
1.28 0 0
1.29 0 0
1.3 0 0
1.31 0 0
1.32 0 0
1.33 0 0
1.34 0 0
1.35 0 0
1.36 0 0
1.37 0 0
1.38 0 0
1.39 0 0
1.4 0 0
1.41 0 0
1.42 0 0
1.43 0 0
1.44 0 0
1.45 0 0
1.46 0 0
1.47 0 0
1.48 0 0
1.49 0 0
1.5 0 0
1.51 0 0
1.52 0 0
1.53 0 0
1.54 0 0
1.55 0 0
1.56 0 0
1.57 0 0
1.58 0 0
1.59 0 0
1.6 0 0
1.61 0 0
1.62 0 0
1.63 0 0
1.64 0 0
1.65 0 0
1.66 0 0
1.67 0 0
1.68 0 0
1.69 0 0
1.7 0 0
1.71 0 0
1.72 0 0
1.73 0 0
1.74 0 0
1.75 0 0
1.76 0 0
1.77 0 0
1.78 0 0
1.79 0 0
1.8 0 0
1.81 0 0
1.82 0 0
1.83 0 0
1.84 0 0
1.85 0 0
1.86 0 0
1.87 0 0
1.88 0 0
1.89 0 0
1.9 0 0
1.91 0 0
1.92 0 0
1.93 0 0
1.94 0 0
1.95 0 0
1.96 0 0
1.97 0 0
1.98 0 0
1.99 0 0
2 0.010289 0
2 0.0215307 0
2 0.0338135 0
2 0.0472336 0
2 0.0618965 0
2 0.0779171 0
2 0.0954213 0
2 0.114546 0
2 0.135442 0
2 0.158274 0
2 0.183219 0
2 0.210474 0
2 0.240253 0
2 0.27279 0
2 0.308339 0
2 0.347181 0
2 0.389619 0
2 0.435987 0
2 0.486649 0
2 0.542002 0
2 0.602481 0
2 0.66856 0
2 0.740758 0
2 0.819642 0
2 0.90583 0
1.9 1 0
1.8 1 0
1.7 1 0
1.6 1 0
1.5 1 0
1.4 1 0
1.3 1 0
1.2 1 0
1.1 1 0
1 1 0
0.9 1 0
0.8 1 0
0.7 1 0
0.6 1 0
0.5 1 0
0.4 1 0
0.3 1 0
0.2 1 0
0.1 1 0
3.69793e-12 1 0
-0.1 1 0
-0.2 1 0
-0.3 1 0
-0.4 1 0
-0.5 1 0
-0.6 1 0
-0.7 1 0
-0.8 1 0
-0.9 1 0
-1 0.90583 0
-1 0.819642 0
-1 0.740758 0
-1 0.66856 0
-1 0.602481 0
-1 0.542002 0
-1 0.486649 0
-1 0.435987 0
-1 0.389619 0
-1 0.347181 0
-1 0.308339 0
-1 0.27279 0
-1 0.240253 0
-1 0.210474 0
-1 0.183219 0
-1 0.158274 0
-1 0.135442 0
-1 0.114546 0
-1 0.0954213 0
-1 0.0779171 0
-1 0.0618965 0
-1 0.0472336 0
-1 0.0338135 0
-1 0.0215307 0
-1 0.010289 0
0.00921362 0.00379763 0
0.0184561 0.00752451 0
0.0277268 0.0111804 0
0.0370253 0.0147652 0
0.0463511 0.0182786 0
0.0557034 0.0217203 0
0.0650819 0.0250903 0
0.074486 0.0283883 0
0.083915 0.0316141 0
0.0933685 0.0347675 0
0.102846 0.0378484 0
0.112347 0.0408565 0
0.12187 0.0437917 0
0.131416 0.0466538 0
0.140983 0.0494427 0
0.150572 0.0521581 0
0.160181 0.0547999 0
0.16981 0.0573681 0
0.179458 0.0598623 0
0.189125 0.0622825 0
0.198811 0.0646285 0
0.208514 0.0669001 0
0.218234 0.0690974 0
0.227971 0.07122 0
0.237724 0.073268 0
0.247493 0.0752411 0
0.257276 0.0771393 0
0.267073 0.0789625 0
0.276884 0.0807105 0
0.286708 0.0823832 0
0.296545 0.0839806 0
0.306394 0.0855025 0
0.316254 0.0869488 0
0.326125 0.0883196 0
0.336006 0.0896146 0
0.345896 0.0908339 0
0.355796 0.0919773 0
0.365704 0.0930447 0
0.375621 0.0940362 0
0.385544 0.0949517 0
0.395474 0.095791 0
0.40541 0.0965542 0
0.415352 0.0972412 0
0.425299 0.097852 0
0.43525 0.0983865 0
0.445205 0.0988447 0
0.455164 0.0992266 0
0.465125 0.0995321 0
0.475088 0.0997613 0
0.485052 0.0999141 0
0.495017 0.0999904 0
0.504983 0.0999904 0
0.514948 0.0999141 0
0.524912 0.0997613 0
0.534875 0.0995321 0
0.544836 0.0992266 0
0.554795 0.0988447 0
0.56475 0.0983865 0
0.574701 0.097852 0
0.584648 0.0972412 0
0.59459 0.0965542 0
0.604526 0.095791 0
0.614456 0.0949517 0
0.624379 0.0940362 0
0.634296 0.0930447 0
0.644204 0.0919773 0
0.654104 0.0908339 0
0.663994 0.0896146 0
0.673875 0.0883196 0
0.683746 0.0869488 0
0.693606 0.0855025 0
0.703455 0.0839806 0
0.713292 0.0823832 0
0.723116 0.0807105 0
0.732927 0.0789625 0
0.742724 0.0771393 0
0.752508 0.0752411 0
0.762276 0.073268 0
0.772029 0.07122 0
0.781766 0.0690974 0
0.791486 0.0669001 0
0.801189 0.0646285 0
0.810875 0.0622825 0
0.820542 0.0598623 0
0.83019 0.0573681 0
0.839819 0.0547999 0
0.849428 0.0521581 0
0.859017 0.0494427 0
0.868584 0.0466538 0
0.87813 0.0437917 0
0.887653 0.0408565 0
0.897154 0.0378484 0
0.906631 0.0347675 0
0.916085 0.0316141 0
0.925514 0.0283883 0
0.934918 0.0250903 0
0.944297 0.0217203 0
0.953649 0.0182786 0
0.962975 0.0147652 0
0.972273 0.0111804 0
0.981544 0.00752451 0
0.990786 0.00379763 0
-1 0.90583 0.1
-1 0.819642 0.1
-1 0.740758 0.1
-1 0.66856 0.1
-1 0.602481 0.1
-1 0.542002 0.1
-1 0.486649 0.1
-1 0.435987 0.1
-1 0.389619 0.1
-1 0.347181 0.1
-1 0.308339 0.1
-1 0.27279 0.1
-1 0.240253 0.1
-1 0.210474 0.1
-1 0.183219 0.1
-1 0.158274 0.1
-1 0.135442 0.1
-1 0.114546 0.1
-1 0.0954213 0.1
-1 0.0779171 0.1
-1 0.0618965 0.1
-1 0.0472336 0.1
-1 0.0338135 0.1
-1 0.0215307 0.1
-1 0.010289 0.1
-0.99 0 0.1
-0.98 0 0.1
-0.97 0 0.1
-0.96 0 0.1
-0.95 0 0.1
-0.94 0 0.1
-0.93 0 0.1
-0.92 0 0.1
-0.91 0 0.1
-0.9 0 0.1
-0.89 0 0.1
-0.88 0 0.1
-0.87 0 0.1
-0.86 0 0.1
-0.85 0 0.1
-0.84 0 0.1
-0.83 0 0.1
-0.82 0 0.1
-0.81 0 0.1
-0.8 0 0.1
-0.79 0 0.1
-0.78 0 0.1
-0.77 0 0.1
-0.76 0 0.1
-0.75 0 0.1
-0.74 0 0.1
-0.73 0 0.1
-0.72 0 0.1
-0.71 0 0.1
-0.7 0 0.1
-0.69 0 0.1
-0.68 0 0.1
-0.67 0 0.1
-0.66 0 0.1
-0.65 0 0.1
-0.64 0 0.1
-0.63 0 0.1
-0.62 0 0.1
-0.61 0 0.1
-0.6 0 0.1
-0.59 0 0.1
-0.58 0 0.1
-0.57 0 0.1
-0.56 0 0.1
-0.55 0 0.1
-0.54 0 0.1
-0.53 0 0.1
-0.52 0 0.1
-0.51 0 0.1
-0.5 0 0.1
-0.49 0 0.1
-0.48 0 0.1
-0.47 0 0.1
-0.46 0 0.1
-0.45 0 0.1
-0.44 0 0.1
-0.43 0 0.1
-0.42 0 0.1
-0.41 0 0.1
-0.4 0 0.1
-0.39 0 0.1
-0.38 0 0.1
-0.37 0 0.1
-0.36 0 0.1
-0.35 0 0.1
-0.34 0 0.1
-0.33 0 0.1
-0.32 0 0.1
-0.31 0 0.1
-0.3 0 0.1
-0.29 0 0.1
-0.28 0 0.1
-0.27 0 0.1
-0.26 0 0.1
-0.25 0 0.1
-0.24 0 0.1
-0.23 0 0.1
-0.22 0 0.1
-0.21 0 0.1
-0.2 0 0.1
-0.19 0 0.1
-0.18 0 0.1
-0.17 0 0.1
-0.16 0 0.1
-0.15 0 0.1
-0.14 0 0.1
-0.13 0 0.1
-0.12 0 0.1
-0.11 0 0.1
-0.1 0 0.1
-0.09 0 0.1
-0.08 0 0.1
-0.07 0 0.1
-0.06 0 0.1
-0.05 0 0.1
-0.04 0 0.1
-0.03 0 0.1
-0.02 0 0.1
-0.01 0 0.1
0.00921362 0.00379763 0.1
0.0184561 0.00752451 0.1
0.0277268 0.0111804 0.1
0.0370253 0.0147652 0.1
0.0463511 0.0182786 0.1
0.0557034 0.0217203 0.1
0.0650819 0.0250903 0.1
0.074486 0.0283883 0.1
0.083915 0.0316141 0.1
0.0933685 0.0347675 0.1
0.102846 0.0378484 0.1
0.112347 0.0408565 0.1
0.12187 0.0437917 0.1
0.131416 0.0466538 0.1
0.140983 0.0494427 0.1
0.150572 0.0521581 0.1
0.160181 0.0547999 0.1
0.16981 0.0573681 0.1
0.179458 0.0598623 0.1
0.189125 0.0622825 0.1
0.198811 0.0646285 0.1
0.208514 0.0669001 0.1
0.218234 0.0690974 0.1
0.227971 0.07122 0.1
0.237724 0.073268 0.1
0.247493 0.0752411 0.1
0.257276 0.0771393 0.1
0.267073 0.0789625 0.1
0.276884 0.0807105 0.1
0.286708 0.0823832 0.1
0.296545 0.0839806 0.1
0.306394 0.0855025 0.1
0.316254 0.0869488 0.1
0.326125 0.0883196 0.1
0.336006 0.0896146 0.1
0.345896 0.0908339 0.1
0.355796 0.0919773 0.1
0.365704 0.0930447 0.1
0.375621 0.0940362 0.1
0.385544 0.0949517 0.1
0.395474 0.095791 0.1
0.40541 0.0965542 0.1
0.415352 0.0972412 0.1
0.425299 0.097852 0.1
0.43525 0.0983865 0.1
0.445205 0.0988447 0.1
0.455164 0.0992266 0.1
0.465125 0.0995321 0.1
0.475088 0.0997613 0.1
0.485052 0.0999141 0.1
0.495017 0.0999904 0.1
0.504983 0.0999904 0.1
0.514948 0.0999141 0.1
0.524912 0.0997613 0.1
0.534875 0.0995321 0.1
0.544836 0.0992266 0.1
0.554795 0.0988447 0.1
0.56475 0.0983865 0.1
0.574701 0.097852 0.1
0.584648 0.0972412 0.1
0.59459 0.0965542 0.1
0.604526 0.095791 0.1
0.614456 0.0949517 0.1
0.624379 0.0940362 0.1
0.634296 0.0930447 0.1
0.644204 0.0919773 0.1
0.654104 0.0908339 0.1
0.663994 0.0896146 0.1
0.673875 0.0883196 0.1
0.683746 0.0869488 0.1
0.693606 0.0855025 0.1
0.703455 0.0839806 0.1
0.713292 0.0823832 0.1
0.723116 0.0807105 0.1
0.732927 0.0789625 0.1
0.742724 0.0771393 0.1
0.752508 0.0752411 0.1
0.762276 0.073268 0.1
0.772029 0.07122 0.1
0.781766 0.0690974 0.1
0.791486 0.0669001 0.1
0.801189 0.0646285 0.1
0.810875 0.0622825 0.1
0.820542 0.0598623 0.1
0.83019 0.0573681 0.1
0.839819 0.0547999 0.1
0.849428 0.0521581 0.1
0.859017 0.0494427 0.1
0.868584 0.0466538 0.1
0.87813 0.0437917 0.1
0.887653 0.0408565 0.1
0.897154 0.0378484 0.1
0.906631 0.0347675 0.1
0.916085 0.0316141 0.1
0.925514 0.0283883 0.1
0.934918 0.0250903 0.1
0.944297 0.0217203 0.1
0.953649 0.0182786 0.1
0.962975 0.0147652 0.1
0.972273 0.0111804 0.1
0.981544 0.00752451 0.1
0.990786 0.00379763 0.1
1.01 0 0.1
1.02 0 0.1
1.03 0 0.1
1.04 0 0.1
1.05 0 0.1
1.06 0 0.1
1.07 0 0.1
1.08 0 0.1
1.09 0 0.1
1.1 0 0.1
1.11 0 0.1
1.12 0 0.1
1.13 0 0.1
1.14 0 0.1
1.15 0 0.1
1.16 0 0.1
1.17 0 0.1
1.18 0 0.1
1.19 0 0.1
1.2 0 0.1
1.21 0 0.1
1.22 0 0.1
1.23 0 0.1
1.24 0 0.1
1.25 0 0.1
1.26 0 0.1
1.27 0 0.1
1.28 0 0.1
1.29 0 0.1
1.3 0 0.1
1.31 0 0.1
1.32 0 0.1
1.33 0 0.1
1.34 0 0.1
1.35 0 0.1
1.36 0 0.1
1.37 0 0.1
1.38 0 0.1
1.39 0 0.1
1.4 0 0.1
1.41 0 0.1
1.42 0 0.1
1.43 0 0.1
1.44 0 0.1
1.45 0 0.1
1.46 0 0.1
1.47 0 0.1
1.48 0 0.1
1.49 0 0.1
1.5 0 0.1
1.51 0 0.1
1.52 0 0.1
1.53 0 0.1
1.54 0 0.1
1.55 0 0.1
1.56 0 0.1
1.57 0 0.1
1.58 0 0.1
1.59 0 0.1
1.6 0 0.1
1.61 0 0.1
1.62 0 0.1
1.63 0 0.1
1.64 0 0.1
1.65 0 0.1
1.66 0 0.1
1.67 0 0.1
1.68 0 0.1
1.69 0 0.1
1.7 0 0.1
1.71 0 0.1
1.72 0 0.1
1.73 0 0.1
1.74 0 0.1
1.75 0 0.1
1.76 0 0.1
1.77 0 0.1
1.78 0 0.1
1.79 0 0.1
1.8 0 0.1
1.81 0 0.1
1.82 0 0.1
1.83 0 0.1
1.84 0 0.1
1.85 0 0.1
1.86 0 0.1
1.87 0 0.1
1.88 0 0.1
[...]
CELL_DATA 7425
SCALARS rho float
LOOKUP_TABLE default
0.654452
0.807698
0.840783
0.844091
0.803409
0.839255
0.834708
0.841706
0.844739
0.761817
0.869678
0.813183
0.842124
0.843946
0.808084
0.840409
0.801733
0.843694
0.805582
0.778231
0.846935
0.823638
0.749991
0.844889
0.806254
0.746801
0.846383
0.84957
0.803589
0.811587
0.833593
0.734636
0.805782
0.704036
0.652084
0.844867
0.805762
0.841792
0.814173
0.842983
0.754215
0.74247
0.805823
0.695757
0.668934
0.763278
0.817433
0.84221
0.718932
0.728167
0.75444
0.807876
0.814684
0.802419
0.714172
0.676451
0.842096
0.802495
0.761829
0.733309
0.752851
0.810566
0.843789
0.802588
0.802401
0.840284
0.651753
0.791727
0.678944
0.811555
0.808113
0.804394
0.886984
0.82282
0.812977
0.844717
0.807751
0.803698
0.843675
0.764916
0.840582
0.810183
0.839319
0.793706
0.846133
0.80502
0.639402
0.844068
0.651331
0.85895
0.697916
0.754142
0.846659
0.805037
0.840241
0.784908
0.837058
0.794625
0.843506
0.806995
0.83077
0.747415
0.805516
0.843361
0.657246
0.814096
0.841184
0.744213
0.841015
0.802871
0.8398
0.790165
0.794512
0.814985
0.805667
0.793335
0.846336
0.804176
0.701671
0.704466
0.807799
0.79497
0.844906
0.796396
0.867712
0.840761
0.810584
0.818729
0.703565
0.642794
0.840717
0.706271
0.64853
0.867947
0.717703
0.803549
0.813629
0.752912
0.645308
0.753259
0.759442
0.813507
0.83971
0.710986
0.806976
0.785541
0.632636
0.809719
0.787431
0.844755
0.830717
0.697631
0.807224
0.752798
0.711782
0.805747
0.813536
0.846387
0.813158
0.718927
0.805065
0.696508
0.805077
0.845961
0.840912
0.803655
0.844431
0.80145
0.809472
0.80475
0.840829
0.80911
0.812266
0.802792
0.802372
0.764906
0.808102
0.78526
0.678795
0.691304
0.803379
0.810626
0.883895
0.845488
0.691563
0.842105
0.801954
0.829953
0.803504
0.842848
0.845707
0.805129
0.81005
0.711637
0.840919
0.839499
0.780672
0.81463
0.861024
0.810735
0.815256
0.8428
0.667314
0.840788
0.637629
0.654516
0.655691
0.694802
0.830192
0.883657
0.810394
0.802273
0.850272
0.845248
0.839653
0.841051
0.840767
0.67959
0.68832
0.842453
0.654034
0.676476
0.707379
0.835893
0.841052
0.844723
0.847653
0.846257
0.864621
0.713246
0.836119
0.754826
0.808488
0.806268
0.803811
0.745889
0.749716
0.66628
0.702482
0.871505
0.875246
0.830873
0.810594
0.81757
0.815161
0.750169
0.84153
0.804518
0.843008
0.799688
0.840556
0.72999
0.845931
0.842479
0.765964
0.633367
0.802675
0.745313
0.843174
0.840751
0.736034
0.8404
0.841122
0.857772
0.837679
0.80889
0.805053
0.843518
0.869212
0.810089
0.665208
0.859166
0.816577
0.80839
0.844244
0.847841
0.843115
0.840004
0.798816
0.840967
0.866891
0.857833
0.829458
0.85068
0.80517
0.840419
0.80446
0.766774
0.745466
0.644797
0.700483
0.821398
0.844782
0.840577
0.855629
0.787932
0.687819
0.844344
0.653828
0.792288
0.804901
0.688754
0.671379
0.680685
0.840906
0.843743
0.845237
0.84094
0.844114
0.780779
0.814145
0.805471
0.846302
0.853498
0.867493
0.847853
0.805642
0.695715
0.812042
0.844687
0.726494
0.80203
0.803638
0.871659
0.840445
0.648977
0.842821
0.766447
0.853376
0.762795
0.839091
0.908416
0.804028
0.800097
0.701752
0.681053
0.716099
0.802576
0.84366
0.840958
0.842519
0.882033
0.857882
0.803531
0.813713
0.826919
0.768781
0.8063
0.884519
0.803777
0.809623
0.804812
0.803907
0.842935
0.840638
0.840324
0.696488
0.831815
0.715278
0.811377
0.69869
0.821094
0.803714
0.840331
0.764484
0.818045
0.831286
0.840246
0.802489
0.80373
0.813326
0.744724
0.82555
0.844414
0.84291
0.803439
0.750169
0.631147
0.80938
0.842131
0.804901
0.845966
0.799428
0.671431
0.846069
0.842964
0.806182
0.802368
0.843666
0.808574
0.80692
0.840508
0.810408
0.841703
0.780874
0.825905
0.810728
0.636309
0.807747
0.681672
0.847985
0.681899
0.84004
0.883309
0.689036
0.820857
0.772953
0.807382
0.878204
0.65662
0.841748
0.841777
0.80589
0.84354
0.814579
0.842322
0.846503
0.842461
0.764847
0.844559
0.768208
0.814019
0.799378
0.809823
0.780403
0.808489
0.803949
0.836196
0.780706
0.808355
0.662495
0.669127
0.739088
0.84311
0.855512
0.872541
0.844281
0.80202
0.845654
0.808695
0.836172
0.716644
0.804579
0.760419
0.83532
0.839042
0.810399
0.715137
0.756355
0.641162
0.657062
0.805187
0.661332
0.811518
0.772254
0.781922
0.735708
0.783833
0.789381
0.838454
0.841068
0.840754
0.84298
0.75164
0.696752
0.851647
0.829082
0.79074
0.814467
0.805551
0.850557
0.756415
0.86478
0.770851
0.761878
0.787733
0.836317
0.647184
0.802155
0.854207
0.816864
0.842352
0.837873
0.803156
0.802433
0.846385
0.804784
0.855246
0.738932
0.712615
0.802594
0.811383
0.841377
0.745481
0.859011
0.804955
0.839996
0.801758
0.78757
0.812914
0.650446
0.713798
0.677051
0.840757
0.817652
0.84328
0.770864
0.81335
0.841171
0.840832
0.802608
0.765108
0.818272
0.818523
0.80482
0.747566
0.842638
0.839032
0.840257
0.84207
0.843334
0.868532
0.864813
0.772706
0.657377
0.847511
0.80975
0.852131
0.841619
0.825321
0.842877
0.84231
0.706453
0.810245
0.828429
0.846071
0.807622
0.823927
0.809258
0.860809
0.80211
0.846037
0.841113
0.878273
0.653174
0.84275
0.843941
0.887007
0.635107
0.840341
0.831755
0.800807
0.816647
0.810993
0.874554
0.827142
0.84699
0.817127
0.670552
0.804291
0.806654
0.740676
0.860625
0.766945
0.805635
0.841545
0.843661
0.860169
0.800109
0.845387
0.849209
0.805802
0.827288
0.843632
0.803701
0.814873
0.811576
0.808085
0.836032
0.803967
0.856104
0.77589
0.811849
0.805575
0.829329
0.755288
0.845697
0.840514
0.773889
0.842626
0.832936
0.830206
0.842841
0.804647
0.803492
0.858293
0.774049
0.828363
0.855488
0.807433
0.644851
0.844561
0.845054
0.859879
0.83712
0.80436
0.811159
0.862815
0.785106
0.805362
0.804928
0.845621
0.761152
0.806429
0.831509
0.812938
0.799984
0.814932
0.855354
0.809506
0.853762
0.803951
0.842756
0.841411
0.806668
0.850791
0.844497
0.728904
0.840603
0.810023
0.841482
0.907029
0.803395
0.83436
0.802549
0.803195
0.840434
0.803352
0.805649
0.788375
0.755247
0.831103
0.845786
0.779696
0.811943
0.841648
0.815544
0.841769
0.809968
0.843562
0.880029
0.846507
0.683588
0.736757
0.853525
0.840384
0.855136
0.840134
0.859367
0.811941
0.825959
0.80269
0.851071
0.869241
0.862719
0.762339
0.841866
0.84049
0.751684
0.820973
0.781949
0.802433
0.76239
0.840444
0.846685
0.82476
0.862186
0.840967
0.843505
0.836622
0.840364
0.847606
0.814867
0.801637
0.813004
0.767433
0.84313
0.779748
0.846033
0.816991
0.680518
0.786048
0.815265
0.802363
0.840912
0.807002
0.840406
0.840393
0.808358
0.840175
0.806837
0.810687
0.683524
0.858331
0.842888
0.844115
0.818878
0.805647
0.732165
0.811586
0.908675
0.840442
0.805698
0.841727
0.790089
0.812067
0.840391
0.84139
0.817101
0.843686
0.840517
0.684536
0.797854
0.787821
0.843613
0.809088
0.80566
0.672504
0.810527
0.806973
0.74425
0.837742
0.840276
0.805783
0.811848
0.801887
0.839616
0.828648
0.843564
0.846027
0.737412
0.844915
0.804326
0.812189
0.843228
0.821216
0.840015
0.803667
0.761334
0.840676
0.807156
0.841126
0.795607
0.810641
0.841294
0.751141
0.836246
0.720479
0.878363
0.736537
0.856697
0.822922
0.87994
0.798157
0.804199
0.84119
0.836891
0.838502
0.841408
0.840892
0.838747
0.820341
0.807703
0.811641
0.761227
0.828261
0.803333
0.728718
0.843867
0.68888
0.804359
0.860853
0.808432
0.742528
0.80231
0.841859
0.708416
0.790306
0.840298
0.843844
0.832417
0.694383
0.761456
0.814834
0.806088
0.845735
0.80443
0.761403
0.840994
0.840646
0.845133
0.793154
0.80509
0.80717
0.808627
0.632236
0.845836
0.834793
0.670161
0.840882
0.840544
0.841103
0.840524
0.841079
0.842657
0.803095
0.799689
0.777275
0.82505
0.830947
0.826964
0.836944
0.779414
0.837195
0.762305
0.778907
0.813227
0.841323
0.843128
0.80383
0.858375
0.845619
0.821985
0.838627
0.839788
0.840775
0.850559
0.841343
0.844692
0.8146
0.842147
0.804766
0.840883
0.806243
0.842084
0.842991
0.66705
0.842879
0.849072
0.858352
0.838352
0.656025
0.840295
0.819595
0.641103
0.723666
0.716946
0.846904
0.822474
0.814277
0.843432
0.804222
0.840379
0.814448
0.642252
0.73727
0.820772
0.809502
0.840286
0.805631
0.81319
0.841899
0.839567
0.802016
0.742339
0.856606
0.804223
0.817172
0.841741
0.778002
0.654939
0.847975
0.816908
0.749729
0.804024
0.811357
0.68611
0.828721
0.839827
0.844716
0.84061
0.829101
0.807388
0.757276
0.685982
0.635097
0.843329
0.813307
0.78769
0.844725
0.800036
0.840467
0.878252
0.781883
0.841532
0.840299
0.843181
0.888059
0.840965
0.841371
0.806722
0.816294
0.73548
0.84499
0.802704
0.814907
0.804177
0.791084
0.863905
0.841276
0.84961
0.841462
0.764602
0.769138
0.808127
0.839089
0.804303
0.808074
0.806221
0.796759
0.84056
0.777167
0.824538
0.699979
0.841281
0.806409
0.743355
0.834508
0.835688
0.763103
0.804403
0.778951
0.880217
0.803505
0.846142
0.784123
0.804568
0.841508
0.806494
0.651556
0.823608
0.813805
0.823487
0.841268
0.842033
0.774064
0.810183
0.843272
0.829821
0.817181
0.850024
0.682807
0.7308
0.845739
0.766723
0.841793
0.789697
0.846046
0.804318
0.825058
0.773539
0.799035
0.7864
0.836341
0.804137
0.675633
0.784828
0.802609
0.850217
0.841432
0.845281
0.648288
0.826367
0.790545
0.86752
0.803897
0.820821
0.804738
0.803295
0.801895
0.841656
0.845478
0.824324
0.839487
0.713333
0.794213
0.835819
0.808161
0.8417
0.806571
0.707289
0.80895
0.807094
0.815018
0.828755
0.858823
0.847326
0.842986
0.803252
0.808396
0.805596
0.788495
0.665734
0.821425
0.76404
0.704723
0.840491
0.801642
0.782824
0.803644
0.775139
0.791908
0.84476
0.824244
0.82022
0.839687
0.833841
0.832314
0.843207
0.823382
0.739403
0.731
0.683006
0.845656
0.876097
0.827735
0.841584
0.858207
0.869892
0.764576
0.834987
0.870099
0.828897
0.846435
0.831948
0.762231
0.83695
0.811515
0.810927
0.639182
0.845105
0.774863
0.843379
0.815973
0.805613
0.710758
0.843237
0.663949
0.82718
0.806212
0.833635
0.864658
0.805544
0.800146
0.841236
0.839323
0.809227
0.775545
0.649744
0.840758
0.806349
0.83183
0.843306
0.824712
0.809902
0.846401
0.753009
0.658011
0.889986
0.818587
0.840679
0.807121
0.716307
0.801779
0.803842
0.840959
0.769744
0.687111
0.886885
0.74505
0.850477
0.841116
0.84795
0.854725
0.813063
0.807351
0.84172
0.860333
0.761719
0.875851
0.841878
0.638997
0.807176
0.757113
0.862841
0.784022
0.806951
0.806452
0.802835
0.803642
0.837033
0.8461
0.855486
0.810595
0.80378
0.803659
0.803465
0.845619
0.840434
0.803611
0.845926
0.860005
0.803942
0.801139
0.803382
0.841125
0.762723
0.842559
0.841392
0.703645
0.744304
0.808918
0.840826
0.808682
0.646008
0.857018
0.840296
0.835258
0.808031
0.805078
0.802888
0.804879
0.645673
0.807737
0.84054
0.836091
0.841162
0.845442
0.819889
0.769224
0.804953
0.790331
0.794047
0.802819
0.796644
0.758761
0.80442
0.814843
0.838808
0.843599
0.850025
0.647048
0.85446
0.846452
0.822478
0.805805
0.824095
0.844576
0.897296
0.814629
0.86729
0.808937
0.783598
0.868417
0.805355
0.803292
0.841287
0.699835
0.686163
0.805392
0.806252
0.68222
0.693985
0.802945
0.842178
0.844771
0.841936
0.755885
0.831663
0.843831
0.843773
0.835799
0.814581
0.846483
0.775986
0.808472
0.839923
0.844842
0.710833
0.644781
0.846529
0.690031
0.747788
0.638952
0.853748
0.803743
0.660025
0.655991
0.838753
0.908919
0.840301
0.692589
0.841208
0.803931
0.805538
0.791568
0.824271
0.830081
0.794659
0.840017
0.822022
0.65583
0.840243
0.787654
0.839362
0.705472
0.841565
0.807588
0.841508
0.80416
0.701557
0.852379
0.820782
0.811303
0.648749
0.840318
0.8038
0.853137
0.718552
0.84036
0.690842
0.75873
0.805041
0.813009
0.767618
0.751016
0.722007
0.65702
0.698053
0.804278
0.657969
0.841952
0.674313
0.77793
0.72555
0.700933
0.662673
0.768099
0.804488
0.720472
0.841397
0.80348
0.806563
0.781451
0.893108
0.802676
0.842582
0.805718
0.845928
0.735869
0.811941
0.76104
0.841641
0.890075
0.846232
0.772066
0.841678
0.790332
0.883901
0.806686
0.778956
0.861143
0.795849
0.802972
0.810169
0.778722
0.775529
0.721379
0.80766
0.804624
0.838864
0.847996
0.660857
0.812629
0.652093
0.704969
0.700443
0.822211
0.841062
0.836377
0.806628
0.665279
0.877384
0.803613
0.803787
0.871401
0.845986
0.783452
0.845677
0.803425
0.840453
0.803922
0.744889
0.807206
0.721253
0.802005
0.822432
0.802958
0.680779
0.827012
0.824104
0.740597
0.821387
0.647049
0.642727
0.807149
0.728242
0.751357
0.641256
0.757615
0.842502
0.706601
0.783152
0.723488
0.825525
0.707673
0.782147
0.810058
0.836263
0.708649
0.803328
0.897799
0.801366
0.840443
0.680128
0.728176
0.822556
0.845521
0.841319
0.86011
0.843266
0.80764
0.806847
0.805302
0.745986
0.725141
0.670799
0.792955
0.668403
0.731383
0.837246
0.840422
0.810709
0.803096
0.68384
0.835625
0.806345
0.650893
0.658021
0.768949
0.806179
0.825158
0.640568
0.802023
0.650656
0.759748
0.666372
0.815988
0.806014
0.659581
0.662227
0.874588
0.813646
0.785162
0.75285
0.699139
0.695001
0.711882
0.839142
0.779788
0.771977
0.675862
0.777267
0.835117
0.840448
0.84539
0.840749
0.865296
0.779223
0.840153
0.80686
0.860428
0.846406
0.804207
0.843723
0.729649
0.835431
0.83509
0.838423
0.834959
0.838711
0.805095
0.839664
0.834819
0.834853
0.839337
0.803343
0.839023
0.840528
0.70506
0.840387
0.875291
0.8402
0.798277
0.689041
0.867294
0.840609
0.843078
0.8032
0.844479
0.764459
0.862585
0.686166
0.763715
0.812703
0.840612
0.806593
0.805347
0.847435
0.808921
0.809008
0.840848
0.797638
0.851928
0.853725
0.832438
0.702867
0.704446
0.840531
0.839365
0.809683
0.860281
0.857128
0.815345
0.83655
0.796873
0.840417
0.839863
0.840747
0.840552
0.817261
0.840588
0.861316
0.840568
0.838176
0.840432
0.840053
0.792315
0.837443
0.808593
0.809105
0.808917
0.840546
0.84413
0.80579
0.761118
0.842196
0.809176
0.836121
0.809255
0.864931
0.807364
0.840015
0.844538
0.80922
0.672135
0.806307
0.844853
0.818975
0.813156
0.845124
0.842765
0.844289
0.812972
0.87059
0.650901
0.845347
0.853194
0.84422
0.805306
0.811751
0.841019
0.852699
0.804393
0.805964
0.825471
0.68447
0.845553
0.812283
0.811975
0.842837
0.844485
0.844113
0.843313
0.651727
0.814256
0.75219
0.889523
0.839614
0.741225
0.714624
0.840802
0.807122
0.821915
0.687473
0.804204
0.843414
0.688607
0.803675
0.806891
0.819523
0.819936
0.865881
0.812657
0.660666
0.804037
0.780662
0.813929
0.892527
0.818941
0.81766
0.822167
0.842292
0.843215
0.84187
0.849512
0.681972
0.819899
0.695547
0.842259
0.842371
0.718313
0.842498
0.824494
0.720078
0.833956
0.731821
0.869366
0.789313
0.841598
0.845545
0.842638
0.715994
0.842592
0.675742
0.802981
0.797863
0.84122
0.840923
0.739353
0.773046
0.846111
0.842674
0.832993
0.841592
0.843097
0.843297
0.802678
0.635021
0.76293
0.775595
0.739215
0.851272
0.825782
0.834796
0.798813
0.805149
0.844832
0.845506
0.845376
0.785047
0.640708
0.805257
0.661966
0.823586
0.827469
0.803336
0.806287
0.817356
0.809284
0.801577
0.748519
0.843206
0.866469
0.829531
0.802266
0.74576
0.812981
0.79515
0.843709
0.664073
0.800549
0.829068
0.802019
0.711822
0.843823
0.83023
0.857197
0.637764
0.810314
0.805093
0.842048
0.694963
0.844127
0.80509
0.80532
0.805291
0.843822
0.843533
0.839505
0.844719
0.723815
0.807139
0.804847
0.845157
0.898494
0.843968
0.79347
0.841422
0.802545
0.804424
0.657208
0.84538
0.805313
0.828676
0.805239
0.873566
0.831267
0.853392
0.804317
0.840797
0.78695
0.644674
0.77864
0.812963
0.826532
0.816328
0.841595
0.640514
0.868154
0.858084
0.791253
0.768018
0.746879
0.816533
0.848427
0.845226
0.817069
0.845244
0.806932
0.735382
0.806064
0.802136
0.770607
0.842247
0.842102
0.868099
0.839676
0.84539
0.681161
0.811739
0.845395
0.803954
0.792256
0.819916
0.804481
0.842503
0.844196
0.802839
0.807342
0.803974
0.833282
0.851808
0.806703
0.801823
0.806064
0.773008
0.840819
0.646463
0.873905
0.806023
0.634899
0.807235
0.818385
0.822885
0.700057
0.664438
0.805208
0.808213
0.804604
0.867314
0.78544
0.834578
0.805484
0.865723
0.807378
0.807018
0.837994
0.836135
0.823587
0.840809
0.840468
0.873108
0.754998
0.860186
0.839754
0.694002
0.806223
0.805868
0.806396
0.84125
0.841777
0.807677
0.80476
0.803505
0.841933
0.806817
0.805946
0.803168
0.842768
0.80636
0.804348
0.808994
0.844094
0.804945
0.805197
0.82759
0.802415
0.840795
0.692114
0.843881
0.858927
0.808463
0.840815
0.805444
0.845286
0.851103
0.805327
0.841192
0.803139
0.811408
0.794805
0.804456
0.806786
0.809196
0.809572
0.808835
0.839963
0.84119
0.814067
0.846968
0.80656
0.803888
0.803332
0.79327
0.847765
0.805364
0.840663
0.840832
0.810603
0.809105
0.80402
0.85125
0.864768
0.803053
0.713267
0.803716
0.854502
0.840276
0.809789
0.806994
0.822239
0.85525
0.702976
0.831499
0.812692
0.851243
0.840236
0.814899
0.816433
0.812517
0.80631
0.815757
0.811854
0.650459
0.85892
0.798634
0.841776
0.86409
0.840714
0.782894
0.812175
0.841467
0.837859
0.805898
0.701199
0.813705
0.870971
0.817522
0.80325
0.796591
0.876639
0.802427
0.88191
0.820611
0.840162
0.841094
0.806945
0.80758
0.843869
0.840433
0.808092
0.842532
0.82039
0.885828
0.822294
0.812163
0.804276
0.84234
0.813272
0.840514
0.812562
0.809838
0.816405
0.840467
0.842462
0.841473
0.839865
0.833703
0.81819
0.745852
0.714253
0.843922
0.840425
0.808557
0.842461
0.666786
0.862329
0.802536
0.809083
0.839539
0.841876
0.806473
0.842361
0.803923
0.804213
0.812134
0.829934
0.782231
0.801165
0.841846
0.843784
0.835685
0.803892
0.824153
0.805343
0.815342
0.809437
0.802861
0.802826
0.803602
0.824011
0.802313
0.80725
0.849679
0.833729
0.757753
0.684091
0.810515
0.746235
0.803345
0.689707
0.807109
0.810487
0.807365
0.840475
0.835907
0.8421
0.844923
0.813111
0.80724
0.886184
0.840506
0.809535
0.782651
0.693172
0.813009
0.811141
0.780806
0.841356
0.842239
0.797178
0.804709
0.806559
0.710309
0.841628
0.805626
0.80292
0.788252
0.861199
0.812753
0.807353
0.807288
0.813774
0.813935
0.659661
0.804739
0.852615
0.842163
0.802967
0.671414
0.817922
0.841796
0.846016
0.848466
0.842017
0.806815
0.841637
0.809234
0.64728
0.811763
0.768159
0.801986
0.842683
0.740626
0.841075
0.847166
0.832108
0.703261
0.893796
0.792715
0.798651
0.801129
0.786215
0.812412
0.850782
0.812315
0.805408
0.842884
0.835391
0.790623
0.793051
0.841097
0.81278
0.835102
0.839425
0.836008
0.821019
0.804102
0.844954
0.865745
0.833888
0.821594
0.843433
0.659673
0.800486
0.840368
0.839977
0.873258
0.845538
0.821844
0.658768
0.837052
0.804005
0.841658
0.818898
0.857586
0.844285
0.813771
0.885627
0.778719
0.815584
0.843125
0.834785
0.808468
0.841577
0.696129
0.804489
0.860158
0.834182
0.81475
0.835485
0.84332
0.81237
0.730133
0.834963
0.804305
0.851907
0.839858
0.815983
0.84393
0.812116
0.83464
0.839509
0.81337
0.84063
0.774175
0.854726
0.840495
0.817861
0.844445
0.844508
0.838495
0.83918
0.844818
0.834577
0.852906
0.840331
0.803944
0.827081
0.841703
0.819843
0.817436
0.803971
0.80426
0.844837
0.840656
0.830703
0.845103
0.838844
0.80382
0.834352
0.845335
0.844027
0.805144
0.841287
0.842949
0.806659
0.845545
0.849148
0.803521
0.834505
0.824866
0.650887
0.841204
0.840155
0.834944
0.838206
0.841162
0.842992
0.83984
0.840606
0.73256
0.844887
0.804295
0.840685
0.822404
0.835524
0.841452
0.827919
0.84569
0.843087
0.84174
0.820898
0.823089
0.825839
0.84429
0.840676
0.822027
0.847446
0.843203
0.840601
0.804141
0.845705
0.844103
0.666418
0.697471
0.816584
0.841457
0.805406
0.84014
0.84061
0.841716
0.737574
0.84238
0.753714
0.832968
0.83593
0.844105
0.842539
0.842501
0.809769
0.845542
0.84206
0.840694
0.843039
0.746641
0.82087
0.839926
0.80292
0.804186
0.840853
0.864322
0.844185
0.843415
0.85952
0.840662
0.851987
0.681399
0.844938
0.841865
0.835881
0.840433
0.851086
0.84045
0.744935
0.802884
0.832673
0.803908
0.802905
0.80891
0.769854
0.843313
0.840664
0.758978
0.840314
0.828862
0.842743
0.840318
0.802599
0.840101
0.845505
0.826606
0.811591
0.827348
0.837769
0.694715
0.840647
0.840666
0.845756
0.700118
0.725326
0.653417
0.82533
0.675605
0.854385
0.75242
0.842707
0.842769
0.760522
0.833029
0.838979
0.76543
0.811105
0.840537
0.798233
0.839231
0.840583
0.840513
0.845377
0.834196
0.805827
0.760861
0.838066
0.839714
0.839567
0.801871
0.818265
0.806844
0.840562
0.842109
0.854499
0.839757
0.665211
0.836181
0.840521
0.840588
0.786289
0.818525
0.809641
0.820992
0.846612
0.658453
0.813462
0.802967
0.84067
0.840111
0.839936
0.843439
0.84053
0.837152
0.838585
0.80538
0.837926
0.857613
0.8399
0.79613
0.83921
0.674114
0.727037
0.844831
0.840211
0.805696
0.841808
0.74397
0.804254
0.804004
0.841026
0.678537
0.840427
0.803122
0.840805
0.864783
0.792319
0.841642
0.840466
0.825958
0.841916
0.78038
0.804145
0.842277
0.903727
0.828755
0.840493
0.832562
0.839652
0.868057
0.726687
0.687781
0.852091
0.804662
0.681623