# vtk DataFile Version 1.0
unstructured grid
ascii
DATASET UNSTRUCTURED_GRID
points 7812 float
-1 0 0
-1 1 0
2 0 0
2 1 0
0 0 0
1 0 0
-1 1 0.1
-1 0 0.1
0 0 0.1
1 0 0.1
2 0 0.1
2 1 0.1
-0.99 0 0
-0.98 0 0
-0.97 0 0
-0.96 0 0
-0.95 0 0
-0.94 0 0
-0.93 0 0
-0.92 0 0
-0.91 0 0
-0.9 0 0
-0.89 0 0
-0.88 0 0
-0.87 0 0
-0.86 0 0
-0.85 0 0
-0.84 0 0
-0.83 0 0
-0.82 0 0
-0.81 0 0
-0.8 0 0
-0.79 0 0
-0.78 0 0
-0.77 0 0
-0.76 0 0
-0.75 0 0
-0.74 0 0
-0.73 0 0
-0.72 0 0
-0.71 0 0
-0.7 0 0
-0.69 0 0
-0.68 0 0
-0.67 0 0
-0.66 0 0
-0.65 0 0
-0.64 0 0
-0.63 0 0
-0.62 0 0
-0.61 0 0
-0.6 0 0
-0.59 0 0
-0.58 0 0
-0.57 0 0
-0.56 0 0
-0.55 0 0
-0.54 0 0
-0.53 0 0
-0.52 0 0
-0.51 0 0
-0.5 0 0
-0.49 0 0
-0.48 0 0
-0.47 0 0
-0.46 0 0
-0.45 0 0
-0.44 0 0
-0.43 0 0
-0.42 0 0
-0.41 0 0
-0.4 0 0
-0.39 0 0
-0.38 0 0
-0.37 0 0
-0.36 0 0
-0.35 0 0
-0.34 0 0
-0.33 0 0
-0.32 0 0
-0.31 0 0
-0.3 0 0
-0.29 0 0
-0.28 0 0
-0.27 0 0
-0.26 0 0
-0.25 0 0
-0.24 0 0
-0.23 0 0
-0.22 0 0
-0.21 0 0
-0.2 0 0
-0.19 0 0
-0.18 0 0
-0.17 0 0
-0.16 0 0
-0.15 0 0
-0.14 0 0
-0.13 0 0
-0.12 0 0
-0.11 0 0
-0.1 0 0
-0.09 0 0
-0.08 0 0
-0.07 0 0
-0.06 0 0
-0.05 0 0
-0.04 0 0
-0.03 0 0
-0.02 0 0
-0.01 0 0
1.01 0 0
1.02 0 0
1.03 0 0
1.04 0 0
1.05 0 0
1.06 0 0
1.07 0 0
1.08 0 0
1.09 0 0
1.1 0 0
1.11 0 0
1.12 0 0
1.13 0 0
1.14 0 0
1.15 0 0
1.16 0 0
1.17 0 0
1.18 0 0
1.19 0 0
1.2 0 0
1.21 0 0
1.22 0 0
1.23 0 0
1.24 0 0
1.25 0 0
1.26 0 0
1.27 0 0
1.28 0 0
1.29 0 0
1.3 0 0
1.31 0 0
1.32 0 0
1.33 0 0
1.34 0 0
1.35 0 0
1.36 0 0
1.37 0 0
1.38 0 0
1.39 0 0
1.4 0 0
1.41 0 0
1.42 0 0
1.43 0 0
1.44 0 0
1.45 0 0
1.46 0 0
1.47 0 0
1.48 0 0
1.49 0 0
1.5 0 0
1.51 0 0
1.52 0 0
1.53 0 0
1.54 0 0
1.55 0 0
1.56 0 0
1.57 0 0
1.58 0 0
1.59 0 0
1.6 0 0
1.61 0 0
1.62 0 0
1.63 0 0
1.64 0 0
1.65 0 0
1.66 0 0
1.67 0 0
1.68 0 0
1.69 0 0
1.7 0 0
1.71 0 0
1.72 0 0
1.73 0 0
1.74 0 0
1.75 0 0
1.76 0 0
1.77 0 0
1.78 0 0
1.79 0 0
1.8 0 0
1.81 0 0
1.82 0 0
1.83 0 0
1.84 0 0
1.85 0 0
1.86 0 0
1.87 0 0
1.88 0 0
1.89 0 0
1.9 0 0
1.91 0 0
1.92 0 0
1.93 0 0
1.94 0 0
1.95 0 0
1.96 0 0
1.97 0 0
1.98 0 0
1.99 0 0
2 0.010289 0
2 0.0215307 0
2 0.0338135 0
2 0.0472336 0
2 0.0618965 0
2 0.0779171 0
2 0.0954213 0
2 0.114546 0
2 0.135442 0
2 0.158274 0
2 0.183219 0
2 0.210474 0
2 0.240253 0
2 0.27279 0
2 0.308339 0
2 0.347181 0
2 0.389619 0
2 0.435987 0
2 0.486649 0
2 0.542002 0
2 0.602481 0
2 0.66856 0
2 0.740758 0
2 0.819642 0
2 0.90583 0
1.9 1 0
1.8 1 0
1.7 1 0
1.6 1 0
1.5 1 0
1.4 1 0
1.3 1 0
1.2 1 0
1.1 1 0
1 1 0
0.9 1 0
0.8 1 0
0.7 1 0
0.6 1 0
0.5 1 0
0.4 1 0
0.3 1 0
0.2 1 0
0.1 1 0
3.69793e-12 1 0
-0.1 1 0
-0.2 1 0
-0.3 1 0
-0.4 1 0
-0.5 1 0
-0.6 1 0
-0.7 1 0
-0.8 1 0
-0.9 1 0
-1 0.90583 0
-1 0.819642 0
-1 0.740758 0
-1 0.66856 0
-1 0.602481 0
-1 0.542002 0
-1 0.486649 0
-1 0.435987 0
-1 0.389619 0
-1 0.347181 0
-1 0.308339 0
-1 0.27279 0
-1 0.240253 0
-1 0.210474 0
-1 0.183219 0
-1 0.158274 0
-1 0.135442 0
-1 0.114546 0
-1 0.0954213 0
-1 0.0779171 0
-1 0.0618965 0
-1 0.0472336 0
-1 0.0338135 0
-1 0.0215307 0
-1 0.010289 0
0.00921362 0.00379763 0
0.0184561 0.00752451 0
0.0277268 0.0111804 0
0.0370253 0.0147652 0
0.0463511 0.0182786 0
0.0557034 0.0217203 0
0.0650819 0.0250903 0
0.074486 0.0283883 0
0.083915 0.0316141 0
0.0933685 0.0347675 0
0.102846 0.0378484 0
0.112347 0.0408565 0
0.12187 0.0437917 0
0.131416 0.0466538 0
0.140983 0.0494427 0
0.150572 0.0521581 0
0.160181 0.0547999 0
0.16981 0.0573681 0
0.179458 0.0598623 0
0.189125 0.0622825 0
0.198811 0.0646285 0
0.208514 0.0669001 0
0.218234 0.0690974 0
0.227971 0.07122 0
0.237724 0.073268 0
0.247493 0.0752411 0
0.257276 0.0771393 0
0.267073 0.0789625 0
0.276884 0.0807105 0
0.286708 0.0823832 0
0.296545 0.0839806 0
0.306394 0.0855025 0
0.316254 0.0869488 0
0.326125 0.0883196 0
0.336006 0.0896146 0
0.345896 0.0908339 0
0.355796 0.0919773 0
0.365704 0.0930447 0
0.375621 0.0940362 0
0.385544 0.0949517 0
0.395474 0.095791 0
0.40541 0.0965542 0
0.415352 0.0972412 0
0.425299 0.097852 0
0.43525 0.0983865 0
0.445205 0.0988447 0
0.455164 0.0992266 0
0.465125 0.0995321 0
0.475088 0.0997613 0
0.485052 0.0999141 0
0.495017 0.0999904 0
0.504983 0.0999904 0
0.514948 0.0999141 0
0.524912 0.0997613 0
0.534875 0.0995321 0
0.544836 0.0992266 0
0.554795 0.0988447 0
0.56475 0.0983865 0
0.574701 0.097852 0
0.584648 0.0972412 0
0.59459 0.0965542 0
0.604526 0.095791 0
0.614456 0.0949517 0
0.624379 0.0940362 0
0.634296 0.0930447 0
0.644204 0.0919773 0
0.654104 0.0908339 0
0.663994 0.0896146 0
0.673875 0.0883196 0
0.683746 0.0869488 0
0.693606 0.0855025 0
0.703455 0.0839806 0
0.713292 0.0823832 0
0.723116 0.0807105 0
0.732927 0.0789625 0
0.742724 0.0771393 0
0.752508 0.0752411 0
0.762276 0.073268 0
0.772029 0.07122 0
0.781766 0.0690974 0
0.791486 0.0669001 0
0.801189 0.0646285 0
0.810875 0.0622825 0
0.820542 0.0598623 0
0.83019 0.0573681 0
0.839819 0.0547999 0
0.849428 0.0521581 0
0.859017 0.0494427 0
0.868584 0.0466538 0
0.87813 0.0437917 0
0.887653 0.0408565 0
0.897154 0.0378484 0
0.906631 0.0347675 0
0.916085 0.0316141 0
0.925514 0.0283883 0
0.934918 0.0250903 0
0.944297 0.0217203 0
0.953649 0.0182786 0
0.962975 0.0147652 0
0.972273 0.0111804 0
0.981544 0.00752451 0
0.990786 0.00379763 0
-1 0.90583 0.1
-1 0.819642 0.1
-1 0.740758 0.1
-1 0.66856 0.1
-1 0.602481 0.1
-1 0.542002 0.1
-1 0.486649 0.1
-1 0.435987 0.1
-1 0.389619 0.1
-1 0.347181 0.1
-1 0.308339 0.1
-1 0.27279 0.1
-1 0.240253 0.1
-1 0.210474 0.1
-1 0.183219 0.1
-1 0.158274 0.1
-1 0.135442 0.1
-1 0.114546 0.1
-1 0.0954213 0.1
-1 0.0779171 0.1
-1 0.0618965 0.1
-1 0.0472336 0.1
-1 0.0338135 0.1
-1 0.0215307 0.1
-1 0.010289 0.1
-0.99 0 0.1
-0.98 0 0.1
-0.97 0 0.1
-0.96 0 0.1
-0.95 0 0.1
-0.94 0 0.1
-0.93 0 0.1
-0.92 0 0.1
-0.91 0 0.1
-0.9 0 0.1
-0.89 0 0.1
-0.88 0 0.1
-0.87 0 0.1
-0.86 0 0.1
-0.85 0 0.1
-0.84 0 0.1
-0.83 0 0.1
-0.82 0 0.1
-0.81 0 0.1
-0.8 0 0.1
-0.79 0 0.1
-0.78 0 0.1
-0.77 0 0.1
-0.76 0 0.1
-0.75 0 0.1
-0.74 0 0.1
-0.73 0 0.1
-0.72 0 0.1
-0.71 0 0.1
-0.7 0 0.1
-0.69 0 0.1
-0.68 0 0.1
-0.67 0 0.1
-0.66 0 0.1
-0.65 0 0.1
-0.64 0 0.1
-0.63 0 0.1
-0.62 0 0.1
-0.61 0 0.1
-0.6 0 0.1
-0.59 0 0.1
-0.58 0 0.1
-0.57 0 0.1
-0.56 0 0.1
-0.55 0 0.1
-0.54 0 0.1
-0.53 0 0.1
-0.52 0 0.1
-0.51 0 0.1
-0.5 0 0.1
-0.49 0 0.1
-0.48 0 0.1
-0.47 0 0.1
-0.46 0 0.1
-0.45 0 0.1
-0.44 0 0.1
-0.43 0 0.1
-0.42 0 0.1
-0.41 0 0.1
-0.4 0 0.1
-0.39 0 0.1
-0.38 0 0.1
-0.37 0 0.1
-0.36 0 0.1
-0.35 0 0.1
-0.34 0 0.1
-0.33 0 0.1
-0.32 0 0.1
-0.31 0 0.1
-0.3 0 0.1
-0.29 0 0.1
-0.28 0 0.1
-0.27 0 0.1
-0.26 0 0.1
-0.25 0 0.1
-0.24 0 0.1
-0.23 0 0.1
-0.22 0 0.1
-0.21 0 0.1
-0.2 0 0.1
-0.19 0 0.1
-0.18 0 0.1
-0.17 0 0.1
-0.16 0 0.1
-0.15 0 0.1
-0.14 0 0.1
-0.13 0 0.1
-0.12 0 0.1
-0.11 0 0.1
-0.1 0 0.1
-0.09 0 0.1
-0.08 0 0.1
-0.07 0 0.1
-0.06 0 0.1
-0.05 0 0.1
-0.04 0 0.1
-0.03 0 0.1
-0.02 0 0.1
-0.01 0 0.1
0.00921362 0.00379763 0.1
0.0184561 0.00752451 0.1
0.0277268 0.0111804 0.1
0.0370253 0.0147652 0.1
0.0463511 0.0182786 0.1
0.0557034 0.0217203 0.1
0.0650819 0.0250903 0.1
0.074486 0.0283883 0.1
0.083915 0.0316141 0.1
0.0933685 0.0347675 0.1
0.102846 0.0378484 0.1
0.112347 0.0408565 0.1
0.12187 0.0437917 0.1
0.131416 0.0466538 0.1
0.140983 0.0494427 0.1
0.150572 0.0521581 0.1
0.160181 0.0547999 0.1
0.16981 0.0573681 0.1
0.179458 0.0598623 0.1
0.189125 0.0622825 0.1
0.198811 0.0646285 0.1
0.208514 0.0669001 0.1
0.218234 0.0690974 0.1
0.227971 0.07122 0.1
0.237724 0.073268 0.1
0.247493 0.0752411 0.1
0.257276 0.0771393 0.1
0.267073 0.0789625 0.1
0.276884 0.0807105 0.1
0.286708 0.0823832 0.1
0.296545 0.0839806 0.1
0.306394 0.0855025 0.1
0.316254 0.0869488 0.1
0.326125 0.0883196 0.1
0.336006 0.0896146 0.1
0.345896 0.0908339 0.1
0.355796 0.0919773 0.1
0.365704 0.0930447 0.1
0.375621 0.0940362 0.1
0.385544 0.0949517 0.1
0.395474 0.095791 0.1
0.40541 0.0965542 0.1
0.415352 0.0972412 0.1
0.425299 0.097852 0.1
0.43525 0.0983865 0.1
0.445205 0.0988447 0.1
0.455164 0.0992266 0.1
0.465125 0.0995321 0.1
0.475088 0.0997613 0.1
0.485052 0.0999141 0.1
0.495017 0.0999904 0.1
0.504983 0.0999904 0.1
0.514948 0.0999141 0.1
0.524912 0.0997613 0.1
0.534875 0.0995321 0.1
0.544836 0.0992266 0.1
0.554795 0.0988447 0.1
0.56475 0.0983865 0.1
0.574701 0.097852 0.1
0.584648 0.0972412 0.1
0.59459 0.0965542 0.1
0.604526 0.095791 0.1
0.614456 0.0949517 0.1
0.624379 0.0940362 0.1
0.634296 0.0930447 0.1
0.644204 0.0919773 0.1
0.654104 0.0908339 0.1
0.663994 0.0896146 0.1
0.673875 0.0883196 0.1
0.683746 0.0869488 0.1
0.693606 0.0855025 0.1
0.703455 0.0839806 0.1
0.713292 0.0823832 0.1
0.723116 0.0807105 0.1
0.732927 0.0789625 0.1
0.742724 0.0771393 0.1
0.752508 0.0752411 0.1
0.762276 0.073268 0.1
0.772029 0.07122 0.1
0.781766 0.0690974 0.1
0.791486 0.0669001 0.1
0.801189 0.0646285 0.1
0.810875 0.0622825 0.1
0.820542 0.0598623 0.1
0.83019 0.0573681 0.1
0.839819 0.0547999 0.1
0.849428 0.0521581 0.1
0.859017 0.0494427 0.1
0.868584 0.0466538 0.1
0.87813 0.0437917 0.1
0.887653 0.0408565 0.1
0.897154 0.0378484 0.1
0.906631 0.0347675 0.1
0.916085 0.0316141 0.1
0.925514 0.0283883 0.1
0.934918 0.0250903 0.1
0.944297 0.0217203 0.1
0.953649 0.0182786 0.1
0.962975 0.0147652 0.1
0.972273 0.0111804 0.1
0.981544 0.00752451 0.1
0.990786 0.00379763 0.1
1.01 0 0.1
1.02 0 0.1
1.03 0 0.1
1.04 0 0.1
1.05 0 0.1
1.06 0 0.1
1.07 0 0.1
1.08 0 0.1
1.09 0 0.1
1.1 0 0.1
1.11 0 0.1
1.12 0 0.1
1.13 0 0.1
1.14 0 0.1
1.15 0 0.1
1.16 0 0.1
1.17 0 0.1
1.18 0 0.1
1.19 0 0.1
1.2 0 0.1
1.21 0 0.1
1.22 0 0.1
1.23 0 0.1
1.24 0 0.1
1.25 0 0.1
1.26 0 0.1
1.27 0 0.1
1.28 0 0.1
1.29 0 0.1
1.3 0 0.1
1.31 0 0.1
1.32 0 0.1
1.33 0 0.1
1.34 0 0.1
1.35 0 0.1
1.36 0 0.1
1.37 0 0.1
1.38 0 0.1
1.39 0 0.1
1.4 0 0.1
1.41 0 0.1
1.42 0 0.1
1.43 0 0.1
1.44 0 0.1
1.45 0 0.1
1.46 0 0.1
1.47 0 0.1
1.48 0 0.1
1.49 0 0.1
1.5 0 0.1
1.51 0 0.1
1.52 0 0.1
1.53 0 0.1
1.54 0 0.1
1.55 0 0.1
1.56 0 0.1
1.57 0 0.1
1.58 0 0.1
1.59 0 0.1
1.6 0 0.1
1.61 0 0.1
1.62 0 0.1
1.63 0 0.1
1.64 0 0.1
1.65 0 0.1
1.66 0 0.1
1.67 0 0.1
1.68 0 0.1
1.69 0 0.1
1.7 0 0.1
1.71 0 0.1
1.72 0 0.1
1.73 0 0.1
1.74 0 0.1
1.75 0 0.1
1.76 0 0.1
1.77 0 0.1
1.78 0 0.1
1.79 0 0.1
1.8 0 0.1
1.81 0 0.1
1.82 0 0.1
1.83 0 0.1
1.84 0 0.1
1.85 0 0.1
1.86 0 0.1
1.87 0 0.1
1.88 0 0.1
[...]
CELL_DATA 7425
SCALARS rho float
LOOKUP_TABLE default
0.666378
0.806879
0.8463
0.84909
0.803155
0.844703
0.839347
0.84751
0.850504
0.768423
0.872785
0.811561
0.847932
0.848944
0.80714
0.846069
0.801759
0.849489
0.805197
0.776889
0.851787
0.821187
0.757001
0.849915
0.805661
0.753197
0.851171
0.846726
0.802118
0.81017
0.838312
0.734095
0.805363
0.713393
0.660416
0.849895
0.805113
0.847597
0.812456
0.847769
0.760617
0.744814
0.810962
0.696177
0.679715
0.76264
0.8228
0.848019
0.722007
0.726739
0.752451
0.806953
0.812187
0.802338
0.713631
0.678401
0.847415
0.802497
0.768466
0.741172
0.757355
0.809066
0.849581
0.802505
0.800885
0.845911
0.663952
0.797366
0.680453
0.810156
0.8072
0.804227
0.889527
0.820391
0.810386
0.850482
0.806894
0.802345
0.849469
0.7628
0.846306
0.808724
0.845299
0.791236
0.850094
0.804588
0.651962
0.848714
0.661875
0.862901
0.698933
0.760993
0.84383
0.804768
0.845879
0.790475
0.834383
0.792735
0.84867
0.806181
0.836632
0.745528
0.804901
0.848163
0.668617
0.812359
0.846241
0.75148
0.846788
0.802705
0.845464
0.787714
0.792038
0.812925
0.81083
0.791514
0.851111
0.804059
0.701442
0.707397
0.806852
0.800473
0.850664
0.794312
0.87132
0.83808
0.809254
0.823519
0.712699
0.651135
0.84651
0.715342
0.657146
0.86501
0.720467
0.803274
0.811159
0.760003
0.65715
0.754656
0.765662
0.81185
0.845704
0.710522
0.806264
0.78313
0.645713
0.815472
0.785055
0.849799
0.835398
0.69914
0.806413
0.750822
0.710933
0.804959
0.811881
0.851286
0.81816
0.725918
0.804753
0.697039
0.804628
0.850897
0.846365
0.803623
0.850205
0.806733
0.807553
0.804331
0.846336
0.807956
0.818051
0.802639
0.80238
0.76608
0.807137
0.790852
0.688709
0.69249
0.803165
0.815944
0.886551
0.850048
0.693833
0.847424
0.80192
0.827464
0.803284
0.848659
0.851427
0.804831
0.808058
0.710734
0.84669
0.844954
0.779243
0.819888
0.858123
0.809419
0.813438
0.848651
0.678174
0.838101
0.650103
0.663491
0.667048
0.702228
0.827671
0.88636
0.809038
0.800735
0.853964
0.850993
0.845313
0.846487
0.846529
0.689308
0.692802
0.848262
0.664347
0.686436
0.706917
0.841741
0.846862
0.850487
0.852334
0.851954
0.861728
0.712993
0.833451
0.759336
0.806452
0.805701
0.803713
0.753339
0.751152
0.67683
0.70331
0.874934
0.872271
0.836943
0.809229
0.823037
0.81334
0.752215
0.846926
0.80409
0.848109
0.797673
0.84652
0.728549
0.851643
0.847749
0.767567
0.645338
0.802622
0.743443
0.840383
0.84655
0.735501
0.846141
0.846901
0.861235
0.843709
0.807682
0.804771
0.84868
0.872755
0.808805
0.675779
0.863084
0.814588
0.807432
0.849256
0.851849
0.848931
0.845285
0.796651
0.846736
0.863982
0.861308
0.826955
0.855255
0.804847
0.846078
0.804241
0.764637
0.752019
0.656553
0.700454
0.826921
0.850545
0.846301
0.8528
0.786129
0.697445
0.849427
0.662137
0.797879
0.804482
0.698406
0.674606
0.690413
0.846671
0.849537
0.850982
0.846804
0.849215
0.778418
0.812131
0.804409
0.851999
0.857873
0.864558
0.852501
0.805221
0.69672
0.817121
0.848685
0.73472
0.801991
0.803582
0.874897
0.846108
0.660469
0.848632
0.768029
0.850565
0.769333
0.845079
0.910336
0.803684
0.797569
0.711032
0.691108
0.715556
0.808271
0.848732
0.846733
0.848327
0.879034
0.854995
0.803264
0.8186
0.824299
0.775026
0.803968
0.887376
0.802839
0.808342
0.804383
0.803839
0.848755
0.846376
0.846023
0.706117
0.829261
0.722386
0.808771
0.708129
0.826523
0.80366
0.837555
0.769879
0.815465
0.837145
0.84591
0.802438
0.803694
0.810726
0.748954
0.822953
0.850189
0.848733
0.802315
0.749594
0.644299
0.807999
0.848017
0.804652
0.851678
0.796903
0.675054
0.843278
0.848775
0.805592
0.807648
0.84946
0.8076
0.806219
0.846218
0.809007
0.847027
0.779938
0.83047
0.809387
0.649372
0.806807
0.691393
0.851747
0.691962
0.845817
0.886223
0.697206
0.818641
0.779352
0.806101
0.881024
0.665587
0.847014
0.847132
0.805155
0.848694
0.812811
0.847605
0.851387
0.847606
0.766183
0.849612
0.766069
0.812327
0.797429
0.814916
0.786445
0.807546
0.8033
0.841842
0.7862
0.807441
0.673634
0.680006
0.745466
0.84893
0.859629
0.875931
0.848968
0.801966
0.851376
0.807705
0.84139
0.725203
0.804241
0.760153
0.839516
0.844793
0.808986
0.714894
0.763364
0.652556
0.6681
0.804729
0.67216
0.81697
0.769999
0.78091
0.734983
0.789761
0.795182
0.844484
0.846844
0.84627
0.848821
0.757853
0.704135
0.856005
0.834932
0.788862
0.812671
0.805141
0.855141
0.759832
0.868532
0.768603
0.764649
0.793552
0.842193
0.658563
0.8021
0.858546
0.814918
0.84816
0.843894
0.802925
0.808147
0.85043
0.804552
0.859526
0.739238
0.711915
0.802599
0.816465
0.846721
0.752683
0.863064
0.804433
0.845704
0.801775
0.785807
0.811276
0.661869
0.722419
0.687199
0.846613
0.82239
0.84833
0.777163
0.81146
0.846952
0.846284
0.802478
0.770436
0.824142
0.816449
0.804586
0.751368
0.848448
0.844484
0.837501
0.84796
0.848513
0.871651
0.868202
0.778845
0.668408
0.851324
0.808578
0.855791
0.84742
0.822927
0.848684
0.848117
0.709384
0.808841
0.83392
0.851778
0.812731
0.828521
0.80811
0.857906
0.802048
0.851742
0.846897
0.881386
0.664604
0.848561
0.841216
0.889572
0.646994
0.846039
0.829193
0.798888
0.814082
0.816059
0.877795
0.831997
0.851839
0.815134
0.681252
0.80413
0.806052
0.746944
0.864013
0.76507
0.803318
0.847355
0.849466
0.8573
0.798221
0.849634
0.853877
0.811522
0.824824
0.840908
0.803421
0.813075
0.810104
0.807178
0.841634
0.803892
0.860142
0.773599
0.809272
0.805192
0.834038
0.762207
0.851422
0.846103
0.780117
0.848436
0.838032
0.827702
0.847993
0.80426
0.803348
0.861747
0.771855
0.825905
0.859598
0.806229
0.653171
0.850333
0.850069
0.863269
0.842946
0.804162
0.808555
0.866253
0.78275
0.804288
0.804539
0.85135
0.764
0.80582
0.828932
0.811236
0.798008
0.820802
0.859614
0.80818
0.857357
0.803257
0.847996
0.847268
0.806066
0.85449
0.850272
0.736652
0.846167
0.808564
0.847335
0.908978
0.803287
0.839697
0.802576
0.803087
0.846145
0.80322
0.805267
0.786076
0.753263
0.837159
0.851507
0.785793
0.817629
0.846914
0.813485
0.847124
0.808796
0.848715
0.882817
0.851389
0.691469
0.744251
0.857896
0.846034
0.859195
0.845909
0.863098
0.810429
0.83058
0.802584
0.855438
0.872755
0.866556
0.768934
0.84767
0.845735
0.749941
0.81878
0.779585
0.80246
0.769103
0.846162
0.851561
0.822206
0.859276
0.84677
0.849303
0.842596
0.846147
0.851848
0.812966
0.801672
0.81112
0.77382
0.848968
0.777482
0.850516
0.815031
0.690255
0.784279
0.813444
0.802306
0.846415
0.806198
0.846188
0.846043
0.80742
0.845667
0.805936
0.809285
0.692807
0.862428
0.848043
0.849217
0.816802
0.804856
0.739951
0.809973
0.910611
0.846273
0.805052
0.847576
0.788258
0.810502
0.846235
0.846803
0.815022
0.849481
0.846227
0.685584
0.803425
0.793591
0.84942
0.808032
0.805028
0.683081
0.809155
0.806193
0.751632
0.834956
0.845927
0.805288
0.810377
0.801945
0.845237
0.833464
0.849361
0.851736
0.744861
0.849411
0.802275
0.81061
0.840463
0.819021
0.845709
0.803446
0.759242
0.845739
0.812695
0.846506
0.793563
0.8092
0.84673
0.750593
0.841606
0.726423
0.881471
0.744331
0.86087
0.828871
0.882741
0.795655
0.804006
0.846643
0.834114
0.835757
0.846342
0.846394
0.844496
0.825881
0.805621
0.810231
0.764419
0.825534
0.801997
0.727233
0.848386
0.690067
0.803944
0.857983
0.807497
0.745218
0.800006
0.847663
0.70794
0.787993
0.845797
0.848132
0.838508
0.698271
0.764012
0.812396
0.805366
0.851458
0.80409
0.768091
0.846805
0.846384
0.850879
0.798697
0.804772
0.806485
0.80745
0.645416
0.851552
0.832123
0.680251
0.846646
0.846262
0.846887
0.846113
0.846875
0.847856
0.802869
0.797915
0.775206
0.822657
0.828372
0.824504
0.834169
0.778989
0.843257
0.766912
0.776563
0.811589
0.846751
0.848936
0.802715
0.855481
0.851348
0.827876
0.844647
0.845487
0.846538
0.855131
0.847136
0.850459
0.8127
0.847957
0.804251
0.846285
0.805743
0.847409
0.848797
0.677437
0.848686
0.853757
0.855491
0.835577
0.66112
0.84597
0.82448
0.649269
0.731388
0.723348
0.851285
0.827261
0.812322
0.849242
0.804057
0.846059
0.812713
0.653647
0.744023
0.81856
0.808324
0.846023
0.805218
0.811568
0.84779
0.844933
0.802061
0.747995
0.853724
0.804055
0.815119
0.847562
0.784046
0.659886
0.852737
0.814963
0.748014
0.803639
0.809765
0.694378
0.825992
0.845597
0.849761
0.846174
0.826624
0.806609
0.760622
0.695721
0.648126
0.848509
0.811604
0.785322
0.85049
0.805604
0.846084
0.881088
0.787783
0.846928
0.84613
0.848284
0.890779
0.84676
0.847259
0.804948
0.814196
0.742858
0.850007
0.802646
0.81304
0.804023
0.789064
0.867704
0.84661
0.853347
0.846861
0.762753
0.768187
0.807086
0.844616
0.804169
0.807018
0.80429
0.802388
0.846343
0.777062
0.822201
0.70905
0.847093
0.804634
0.741891
0.838701
0.840917
0.769688
0.801941
0.785034
0.877225
0.802375
0.851846
0.790078
0.804105
0.847308
0.805742
0.663006
0.821281
0.818726
0.829435
0.84706
0.847028
0.773936
0.808876
0.840556
0.827335
0.815202
0.854639
0.683851
0.738661
0.851462
0.773189
0.847153
0.795353
0.851753
0.804161
0.82987
0.779784
0.797218
0.792245
0.842329
0.804048
0.685774
0.782441
0.80119
0.84743
0.847229
0.850275
0.658077
0.823783
0.788092
0.871129
0.802704
0.818623
0.804261
0.808591
0.801887
0.846591
0.849339
0.821973
0.84511
0.712471
0.799844
0.841357
0.807141
0.847598
0.805608
0.70725
0.814054
0.806387
0.813196
0.826023
0.862239
0.852149
0.848792
0.803035
0.807429
0.805127
0.786954
0.676691
0.827241
0.770266
0.713881
0.845665
0.801697
0.780659
0.803406
0.781298
0.789841
0.850501
0.821544
0.825394
0.845388
0.83892
0.836581
0.84901
0.828234
0.746774
0.738925
0.692747
0.850614
0.879251
0.832165
0.838829
0.862143
0.872991
0.766636
0.840313
0.873381
0.834321
0.852122
0.836924
0.768862
0.842786
0.810005
0.809513
0.649392
0.850855
0.77402
0.849184
0.813499
0.805199
0.71006
0.849045
0.674844
0.824734
0.805603
0.837859
0.868408
0.80516
0.798255
0.846669
0.845244
0.808174
0.774594
0.657536
0.846158
0.804836
0.829288
0.848433
0.830705
0.808654
0.85067
0.75998
0.663549
0.892549
0.823944
0.846419
0.80604
0.715507
0.80178
0.803563
0.846728
0.775076
0.696603
0.889437
0.752486
0.85505
0.847003
0.852709
0.858972
0.818826
0.806574
0.847544
0.863735
0.768359
0.878735
0.847685
0.651894
0.8063
0.755589
0.866679
0.789905
0.805952
0.805695
0.802728
0.803547
0.843101
0.851806
0.852617
0.809248
0.803768
0.802747
0.803269
0.851333
0.846109
0.803615
0.85163
0.864009
0.803903
0.806494
0.803396
0.838428
0.767279
0.848368
0.847209
0.706188
0.751835
0.806778
0.846008
0.807472
0.654649
0.854175
0.846142
0.832656
0.807127
0.804761
0.802922
0.810279
0.657633
0.805758
0.846257
0.833329
0.846621
0.851178
0.825814
0.770173
0.802495
0.795932
0.792014
0.802686
0.794812
0.756747
0.8041
0.812203
0.844786
0.847783
0.847237
0.658777
0.858791
0.852139
0.820051
0.805274
0.82159
0.850319
0.899631
0.819469
0.864377
0.807042
0.789549
0.871546
0.804069
0.802022
0.846381
0.708978
0.69567
0.80504
0.805755
0.68361
0.703247
0.801662
0.847405
0.850534
0.847272
0.756371
0.836429
0.849627
0.848906
0.841163
0.812623
0.852168
0.782187
0.807432
0.845649
0.850576
0.719412
0.65729
0.852213
0.699432
0.754902
0.65159
0.858049
0.803497
0.66767
0.667273
0.842921
0.910856
0.845892
0.701926
0.847013
0.80924
0.805044
0.789113
0.821937
0.835659
0.792592
0.845339
0.827824
0.667808
0.845854
0.793496
0.845057
0.704922
0.846905
0.812904
0.847319
0.803808
0.710573
0.856061
0.825533
0.809852
0.654979
0.845992
0.803571
0.850326
0.717534
0.846021
0.697853
0.763197
0.804641
0.818106
0.772725
0.758004
0.7213
0.663277
0.703365
0.803884
0.665051
0.847288
0.679225
0.784035
0.733171
0.706791
0.670919
0.774535
0.804179
0.720062
0.84681
0.803363
0.80594
0.787448
0.895603
0.80254
0.847781
0.805318
0.85164
0.743563
0.810446
0.767765
0.847018
0.892699
0.850626
0.778452
0.846971
0.796061
0.886535
0.806054
0.784999
0.865082
0.801431
0.801694
0.808822
0.784772
0.780949
0.724415
0.806796
0.804232
0.844392
0.852674
0.67172
0.811014
0.662143
0.71379
0.707909
0.819958
0.846473
0.842432
0.805737
0.675962
0.880218
0.803623
0.803782
0.874829
0.851687
0.782582
0.851387
0.803444
0.846069
0.803891
0.75223
0.80646
0.728075
0.801999
0.827846
0.802997
0.690535
0.831962
0.828767
0.740553
0.819171
0.658696
0.655141
0.80584
0.736215
0.758372
0.653948
0.764272
0.848312
0.706921
0.781685
0.722543
0.830027
0.716534
0.788093
0.808859
0.842202
0.717512
0.803326
0.900125
0.799095
0.846123
0.689317
0.73626
0.828444
0.851254
0.84713
0.863688
0.849084
0.805786
0.805392
0.804965
0.753369
0.723993
0.681548
0.798623
0.675311
0.730268
0.84325
0.846216
0.809342
0.802895
0.687516
0.841661
0.805532
0.662114
0.667451
0.77537
0.805301
0.830657
0.652988
0.799494
0.66273
0.764112
0.677392
0.813343
0.805467
0.671086
0.673257
0.877778
0.811987
0.791042
0.759682
0.707551
0.704252
0.712006
0.844824
0.785772
0.76996
0.686346
0.783473
0.84112
0.8462
0.851122
0.846499
0.862375
0.785282
0.84568
0.804875
0.864134
0.852094
0.804091
0.84952
0.728785
0.841161
0.840879
0.844131
0.840809
0.844384
0.804746
0.84524
0.840725
0.840811
0.844944
0.801983
0.844662
0.846075
0.713962
0.845952
0.878514
0.845787
0.796381
0.6987
0.870892
0.846172
0.84828
0.803007
0.85023
0.762404
0.866443
0.692065
0.768667
0.810771
0.846352
0.805636
0.80498
0.852246
0.806325
0.807973
0.846609
0.803013
0.856407
0.85793
0.837635
0.711837
0.710716
0.846265
0.845017
0.815465
0.864259
0.860981
0.813483
0.842285
0.802425
0.846226
0.845456
0.846556
0.846114
0.815278
0.846321
0.865223
0.846293
0.843919
0.846068
0.845659
0.790667
0.843182
0.807535
0.807879
0.807839
0.846121
0.849916
0.811068
0.759177
0.848042
0.80797
0.842186
0.808103
0.868246
0.806567
0.845825
0.850312
0.808119
0.674346
0.805786
0.850614
0.816878
0.81146
0.850873
0.84858
0.850068
0.81124
0.8737
0.657797
0.851087
0.857361
0.850006
0.804973
0.810311
0.846791
0.857117
0.804033
0.805258
0.829987
0.68585
0.851283
0.810765
0.810441
0.848669
0.850258
0.849898
0.849114
0.659498
0.811632
0.754803
0.89208
0.844898
0.739756
0.716759
0.846558
0.804545
0.819674
0.696988
0.804
0.849213
0.698088
0.803413
0.806273
0.817388
0.824634
0.869564
0.810885
0.67167
0.8038
0.778387
0.811672
0.89503
0.823926
0.815266
0.819902
0.846239
0.849018
0.847221
0.853973
0.692058
0.825141
0.704808
0.84807
0.848183
0.717506
0.848312
0.830093
0.719057
0.839371
0.733258
0.872879
0.786893
0.847397
0.851276
0.848452
0.724582
0.8484
0.685717
0.802898
0.795689
0.846525
0.846688
0.740147
0.770852
0.851025
0.848507
0.837268
0.846967
0.848902
0.848472
0.802587
0.648165
0.761274
0.775527
0.737963
0.855801
0.823395
0.832034
0.804497
0.804365
0.850593
0.851239
0.851115
0.783829
0.653632
0.804702
0.669594
0.828524
0.825035
0.803135
0.805469
0.81534
0.807247
0.807024
0.748368
0.849009
0.869811
0.834533
0.802237
0.744631
0.810358
0.793302
0.847634
0.668948
0.798723
0.835029
0.801996
0.713395
0.849621
0.835741
0.854312
0.650705
0.809057
0.804706
0.847891
0.703442
0.849911
0.80474
0.804981
0.804582
0.849614
0.84933
0.845196
0.850484
0.723112
0.806459
0.804578
0.850905
0.900758
0.849757
0.799099
0.838623
0.801116
0.804269
0.668559
0.851119
0.804812
0.826216
0.80269
0.876884
0.836358
0.850527
0.803966
0.846226
0.785326
0.656901
0.784622
0.818407
0.832487
0.81417
0.847412
0.653228
0.871303
0.855219
0.796982
0.766627
0.745041
0.814575
0.845591
0.850972
0.815091
0.850989
0.806058
0.733836
0.80518
0.802115
0.768487
0.847437
0.847414
0.871224
0.845398
0.851128
0.684989
0.810091
0.851133
0.803725
0.797858
0.817463
0.804202
0.848336
0.849287
0.800772
0.80658
0.803783
0.838591
0.856178
0.805968
0.801872
0.805382
0.771071
0.846315
0.659012
0.876873
0.805566
0.647618
0.806456
0.823302
0.82061
0.705355
0.675594
0.804787
0.807209
0.804245
0.87051
0.783051
0.840089
0.804611
0.862797
0.806555
0.806297
0.84225
0.84164
0.82128
0.846181
0.845901
0.876099
0.761957
0.863688
0.845386
0.703338
0.805645
0.804913
0.805362
0.846671
0.847006
0.806862
0.804391
0.803302
0.847263
0.806147
0.805508
0.802995
0.847998
0.805812
0.804144
0.807741
0.84905
0.804447
0.804765
0.825152
0.802387
0.846551
0.701541
0.848999
0.862632
0.807524
0.846334
0.805096
0.850273
0.855627
0.80496
0.846576
0.803055
0.809978
0.792562
0.804241
0.806133
0.808044
0.808446
0.807778
0.845512
0.846975
0.812305
0.85181
0.805841
0.803793
0.803151
0.790826
0.852368
0.805033
0.846194
0.846596
0.809329
0.808028
0.803952
0.855569
0.861864
0.802893
0.721789
0.803572
0.858803
0.845963
0.808541
0.806306
0.819953
0.859256
0.708802
0.828965
0.818049
0.848388
0.845786
0.813075
0.814502
0.810957
0.80579
0.813876
0.810385
0.662212
0.862957
0.79613
0.847578
0.867849
0.84625
0.788813
0.81068
0.847262
0.843522
0.803392
0.710343
0.812006
0.874392
0.822392
0.803158
0.802198
0.879581
0.802472
0.884721
0.825311
0.845813
0.846549
0.806098
0.806784
0.849669
0.846162
0.807103
0.848352
0.818231
0.888555
0.81961
0.810351
0.803906
0.846971
0.811223
0.83783
0.811017
0.808554
0.814481
0.846162
0.846862
0.847298
0.845005
0.831071
0.816149
0.751923
0.715714
0.849714
0.846051
0.807467
0.848288
0.672345
0.865712
0.8025
0.807877
0.845348
0.847703
0.805935
0.848209
0.803677
0.803976
0.810641
0.834831
0.788144
0.806455
0.847142
0.840968
0.833009
0.80363
0.829667
0.804944
0.812953
0.808337
0.802739
0.802735
0.803467
0.828566
0.800196
0.806404
0.854302
0.831153
0.759225
0.685925
0.808047
0.751066
0.803114
0.696184
0.806447
0.809239
0.806536
0.846077
0.833291
0.847908
0.85068
0.811454
0.805384
0.888947
0.846216
0.808308
0.781236
0.700116
0.811319
0.809734
0.779611
0.847153
0.848047
0.795265
0.802644
0.805993
0.71451
0.845783
0.805181
0.808568
0.78675
0.864784
0.811028
0.806491
0.806396
0.81114
0.812211
0.666733
0.804435
0.857053
0.847971
0.800686
0.682111
0.815892
0.847603
0.851726
0.853179
0.847827
0.806206
0.847018
0.806635
0.659882
0.810328
0.774271
0.79946
0.848492
0.740947
0.846852
0.844404
0.82937
0.712272
0.896186
0.790799
0.804291
0.798768
0.784167
0.810896
0.847984
0.810781
0.805045
0.84869
0.841438
0.788918
0.791265
0.846916
0.81118
0.832355
0.84467
0.833272
0.826645
0.801538
0.85071
0.86943
0.839101
0.819376
0.849233
0.670688
0.798384
0.845394
0.844036
0.876584
0.851265
0.819605
0.665022
0.843069
0.803751
0.847518
0.816805
0.861464
0.850065
0.811761
0.888286
0.778213
0.813735
0.848936
0.8408
0.806559
0.84738
0.705385
0.802518
0.864136
0.831504
0.812967
0.841165
0.849122
0.810604
0.731612
0.840704
0.803928
0.856384
0.845406
0.814083
0.848331
0.817654
0.840442
0.845087
0.811697
0.84616
0.779936
0.851872
0.846043
0.815843
0.85022
0.850283
0.844171
0.844789
0.850581
0.840438
0.857128
0.845896
0.803658
0.824601
0.846469
0.817708
0.815426
0.803701
0.804034
0.850598
0.846208
0.828113
0.850853
0.844485
0.80352
0.84027
0.851075
0.849819
0.804175
0.847075
0.848761
0.804221
0.851276
0.853666
0.801087
0.840475
0.822509
0.662565
0.84701
0.845741
0.840391
0.843917
0.846496
0.847656
0.845569
0.846169
0.740378
0.850646
0.804049
0.84643
0.820152
0.832811
0.846849
0.832354
0.850645
0.848289
0.847639
0.818459
0.820803
0.831679
0.850069
0.846421
0.819765
0.852253
0.849024
0.846341
0.804035
0.85143
0.849889
0.672671
0.706494
0.814206
0.846866
0.80495
0.845318
0.846341
0.838922
0.745169
0.84819
0.754314
0.837919
0.841881
0.849889
0.847049
0.848313
0.80847
0.851274
0.846362
0.837895
0.848861
0.753888
0.818192
0.845635
0.802822
0.804085
0.846613
0.867878
0.849973
0.849214
0.863358
0.844911
0.855646
0.689333
0.849834
0.847676
0.841787
0.846081
0.848231
0.846076
0.752155
0.802757
0.830034
0.803579
0.802792
0.807902
0.776204
0.849115
0.846464
0.76547
0.846112
0.826325
0.84856
0.846131
0.802497
0.845671
0.851239
0.824197
0.809902
0.832852
0.843466
0.696218
0.846195
0.846477
0.851478
0.709548
0.724376
0.664595
0.822911
0.680922
0.851553
0.759368
0.839928
0.848605
0.764313
0.837295
0.844665
0.771968
0.809751
0.846129
0.795817
0.844886
0.846316
0.846247
0.851116
0.840283
0.805381
0.767519
0.835412
0.845103
0.84523
0.801916
0.816208
0.805989
0.846287
0.847933
0.851625
0.845351
0.669469
0.841924
0.846082
0.846161
0.784464
0.816437
0.808313
0.818751
0.84386
0.669915
0.811799
0.802795
0.846429
0.845733
0.845545
0.849256
0.846105
0.842898
0.844338
0.804682
0.843675
0.861756
0.845713
0.793666
0.845139
0.684726
0.725725
0.850592
0.845875
0.805279
0.847166
0.742218
0.804048
0.803854
0.84651
0.680495
0.846063
0.802925
0.84656
0.861883
0.790308
0.84702
0.846079
0.823571
0.847723
0.779026
0.804014
0.848094
0.905796
0.826238
0.846195
0.829814
0.845651
0.865117
0.725541
0.68948
0.849238
0.804072
0.683448
0.847284
0.790695