# vtk DataFile Version 1.0
unstructured grid
ascii
DATASET UNSTRUCTURED_GRID
points 7812 float
-1 0 0
-1 1 0
2 0 0
2 1 0
0 0 0
1 0 0
-1 1 0.1
-1 0 0.1
0 0 0.1
1 0 0.1
2 0 0.1
2 1 0.1
-0.99 0 0
-0.98 0 0
-0.97 0 0
-0.96 0 0
-0.95 0 0
-0.94 0 0
-0.93 0 0
-0.92 0 0
-0.91 0 0
-0.9 0 0
-0.89 0 0
-0.88 0 0
-0.87 0 0
-0.86 0 0
-0.85 0 0
-0.84 0 0
-0.83 0 0
-0.82 0 0
-0.81 0 0
-0.8 0 0
-0.79 0 0
-0.78 0 0
-0.77 0 0
-0.76 0 0
-0.75 0 0
-0.74 0 0
-0.73 0 0
-0.72 0 0
-0.71 0 0
-0.7 0 0
-0.69 0 0
-0.68 0 0
-0.67 0 0
-0.66 0 0
-0.65 0 0
-0.64 0 0
-0.63 0 0
-0.62 0 0
-0.61 0 0
-0.6 0 0
-0.59 0 0
-0.58 0 0
-0.57 0 0
-0.56 0 0
-0.55 0 0
-0.54 0 0
-0.53 0 0
-0.52 0 0
-0.51 0 0
-0.5 0 0
-0.49 0 0
-0.48 0 0
-0.47 0 0
-0.46 0 0
-0.45 0 0
-0.44 0 0
-0.43 0 0
-0.42 0 0
-0.41 0 0
-0.4 0 0
-0.39 0 0
-0.38 0 0
-0.37 0 0
-0.36 0 0
-0.35 0 0
-0.34 0 0
-0.33 0 0
-0.32 0 0
-0.31 0 0
-0.3 0 0
-0.29 0 0
-0.28 0 0
-0.27 0 0
-0.26 0 0
-0.25 0 0
-0.24 0 0
-0.23 0 0
-0.22 0 0
-0.21 0 0
-0.2 0 0
-0.19 0 0
-0.18 0 0
-0.17 0 0
-0.16 0 0
-0.15 0 0
-0.14 0 0
-0.13 0 0
-0.12 0 0
-0.11 0 0
-0.1 0 0
-0.09 0 0
-0.08 0 0
-0.07 0 0
-0.06 0 0
-0.05 0 0
-0.04 0 0
-0.03 0 0
-0.02 0 0
-0.01 0 0
1.01 0 0
1.02 0 0
1.03 0 0
1.04 0 0
1.05 0 0
1.06 0 0
1.07 0 0
1.08 0 0
1.09 0 0
1.1 0 0
1.11 0 0
1.12 0 0
1.13 0 0
1.14 0 0
1.15 0 0
1.16 0 0
1.17 0 0
1.18 0 0
1.19 0 0
1.2 0 0
1.21 0 0
1.22 0 0
1.23 0 0
1.24 0 0
1.25 0 0
1.26 0 0
1.27 0 0
1.28 0 0
1.29 0 0
1.3 0 0
1.31 0 0
1.32 0 0
1.33 0 0
1.34 0 0
1.35 0 0
1.36 0 0
1.37 0 0
1.38 0 0
1.39 0 0
1.4 0 0
1.41 0 0
1.42 0 0
1.43 0 0
1.44 0 0
1.45 0 0
1.46 0 0
1.47 0 0
1.48 0 0
1.49 0 0
1.5 0 0
1.51 0 0
1.52 0 0
1.53 0 0
1.54 0 0
1.55 0 0
1.56 0 0
1.57 0 0
1.58 0 0
1.59 0 0
1.6 0 0
1.61 0 0
1.62 0 0
1.63 0 0
1.64 0 0
1.65 0 0
1.66 0 0
1.67 0 0
1.68 0 0
1.69 0 0
1.7 0 0
1.71 0 0
1.72 0 0
1.73 0 0
1.74 0 0
1.75 0 0
1.76 0 0
1.77 0 0
1.78 0 0
1.79 0 0
1.8 0 0
1.81 0 0
1.82 0 0
1.83 0 0
1.84 0 0
1.85 0 0
1.86 0 0
1.87 0 0
1.88 0 0
1.89 0 0
1.9 0 0
1.91 0 0
1.92 0 0
1.93 0 0
1.94 0 0
1.95 0 0
1.96 0 0
1.97 0 0
1.98 0 0
1.99 0 0
2 0.010289 0
2 0.0215307 0
2 0.0338135 0
2 0.0472336 0
2 0.0618965 0
2 0.0779171 0
2 0.0954213 0
2 0.114546 0
2 0.135442 0
2 0.158274 0
2 0.183219 0
2 0.210474 0
2 0.240253 0
2 0.27279 0
2 0.308339 0
2 0.347181 0
2 0.389619 0
2 0.435987 0
2 0.486649 0
2 0.542002 0
2 0.602481 0
2 0.66856 0
2 0.740758 0
2 0.819642 0
2 0.90583 0
1.9 1 0
1.8 1 0
1.7 1 0
1.6 1 0
1.5 1 0
1.4 1 0
1.3 1 0
1.2 1 0
1.1 1 0
1 1 0
0.9 1 0
0.8 1 0
0.7 1 0
0.6 1 0
0.5 1 0
0.4 1 0
0.3 1 0
0.2 1 0
0.1 1 0
3.69793e-12 1 0
-0.1 1 0
-0.2 1 0
-0.3 1 0
-0.4 1 0
-0.5 1 0
-0.6 1 0
-0.7 1 0
-0.8 1 0
-0.9 1 0
-1 0.90583 0
-1 0.819642 0
-1 0.740758 0
-1 0.66856 0
-1 0.602481 0
-1 0.542002 0
-1 0.486649 0
-1 0.435987 0
-1 0.389619 0
-1 0.347181 0
-1 0.308339 0
-1 0.27279 0
-1 0.240253 0
-1 0.210474 0
-1 0.183219 0
-1 0.158274 0
-1 0.135442 0
-1 0.114546 0
-1 0.0954213 0
-1 0.0779171 0
-1 0.0618965 0
-1 0.0472336 0
-1 0.0338135 0
-1 0.0215307 0
-1 0.010289 0
0.00921362 0.00379763 0
0.0184561 0.00752451 0
0.0277268 0.0111804 0
0.0370253 0.0147652 0
0.0463511 0.0182786 0
0.0557034 0.0217203 0
0.0650819 0.0250903 0
0.074486 0.0283883 0
0.083915 0.0316141 0
0.0933685 0.0347675 0
0.102846 0.0378484 0
0.112347 0.0408565 0
0.12187 0.0437917 0
0.131416 0.0466538 0
0.140983 0.0494427 0
0.150572 0.0521581 0
0.160181 0.0547999 0
0.16981 0.0573681 0
0.179458 0.0598623 0
0.189125 0.0622825 0
0.198811 0.0646285 0
0.208514 0.0669001 0
0.218234 0.0690974 0
0.227971 0.07122 0
0.237724 0.073268 0
0.247493 0.0752411 0
0.257276 0.0771393 0
0.267073 0.0789625 0
0.276884 0.0807105 0
0.286708 0.0823832 0
0.296545 0.0839806 0
0.306394 0.0855025 0
0.316254 0.0869488 0
0.326125 0.0883196 0
0.336006 0.0896146 0
0.345896 0.0908339 0
0.355796 0.0919773 0
0.365704 0.0930447 0
0.375621 0.0940362 0
0.385544 0.0949517 0
0.395474 0.095791 0
0.40541 0.0965542 0
0.415352 0.0972412 0
0.425299 0.097852 0
0.43525 0.0983865 0
0.445205 0.0988447 0
0.455164 0.0992266 0
0.465125 0.0995321 0
0.475088 0.0997613 0
0.485052 0.0999141 0
0.495017 0.0999904 0
0.504983 0.0999904 0
0.514948 0.0999141 0
0.524912 0.0997613 0
0.534875 0.0995321 0
0.544836 0.0992266 0
0.554795 0.0988447 0
0.56475 0.0983865 0
0.574701 0.097852 0
0.584648 0.0972412 0
0.59459 0.0965542 0
0.604526 0.095791 0
0.614456 0.0949517 0
0.624379 0.0940362 0
0.634296 0.0930447 0
0.644204 0.0919773 0
0.654104 0.0908339 0
0.663994 0.0896146 0
0.673875 0.0883196 0
0.683746 0.0869488 0
0.693606 0.0855025 0
0.703455 0.0839806 0
0.713292 0.0823832 0
0.723116 0.0807105 0
0.732927 0.0789625 0
0.742724 0.0771393 0
0.752508 0.0752411 0
0.762276 0.073268 0
0.772029 0.07122 0
0.781766 0.0690974 0
0.791486 0.0669001 0
0.801189 0.0646285 0
0.810875 0.0622825 0
0.820542 0.0598623 0
0.83019 0.0573681 0
0.839819 0.0547999 0
0.849428 0.0521581 0
0.859017 0.0494427 0
0.868584 0.0466538 0
0.87813 0.0437917 0
0.887653 0.0408565 0
0.897154 0.0378484 0
0.906631 0.0347675 0
0.916085 0.0316141 0
0.925514 0.0283883 0
0.934918 0.0250903 0
0.944297 0.0217203 0
0.953649 0.0182786 0
0.962975 0.0147652 0
0.972273 0.0111804 0
0.981544 0.00752451 0
0.990786 0.00379763 0
-1 0.90583 0.1
-1 0.819642 0.1
-1 0.740758 0.1
-1 0.66856 0.1
-1 0.602481 0.1
-1 0.542002 0.1
-1 0.486649 0.1
-1 0.435987 0.1
-1 0.389619 0.1
-1 0.347181 0.1
-1 0.308339 0.1
-1 0.27279 0.1
-1 0.240253 0.1
-1 0.210474 0.1
-1 0.183219 0.1
-1 0.158274 0.1
-1 0.135442 0.1
-1 0.114546 0.1
-1 0.0954213 0.1
-1 0.0779171 0.1
-1 0.0618965 0.1
-1 0.0472336 0.1
-1 0.0338135 0.1
-1 0.0215307 0.1
-1 0.010289 0.1
-0.99 0 0.1
-0.98 0 0.1
-0.97 0 0.1
-0.96 0 0.1
-0.95 0 0.1
-0.94 0 0.1
-0.93 0 0.1
-0.92 0 0.1
-0.91 0 0.1
-0.9 0 0.1
-0.89 0 0.1
-0.88 0 0.1
-0.87 0 0.1
-0.86 0 0.1
-0.85 0 0.1
-0.84 0 0.1
-0.83 0 0.1
-0.82 0 0.1
-0.81 0 0.1
-0.8 0 0.1
-0.79 0 0.1
-0.78 0 0.1
-0.77 0 0.1
-0.76 0 0.1
-0.75 0 0.1
-0.74 0 0.1
-0.73 0 0.1
-0.72 0 0.1
-0.71 0 0.1
-0.7 0 0.1
-0.69 0 0.1
-0.68 0 0.1
-0.67 0 0.1
-0.66 0 0.1
-0.65 0 0.1
-0.64 0 0.1
-0.63 0 0.1
-0.62 0 0.1
-0.61 0 0.1
-0.6 0 0.1
-0.59 0 0.1
-0.58 0 0.1
-0.57 0 0.1
-0.56 0 0.1
-0.55 0 0.1
-0.54 0 0.1
-0.53 0 0.1
-0.52 0 0.1
-0.51 0 0.1
-0.5 0 0.1
-0.49 0 0.1
-0.48 0 0.1
-0.47 0 0.1
-0.46 0 0.1
-0.45 0 0.1
-0.44 0 0.1
-0.43 0 0.1
-0.42 0 0.1
-0.41 0 0.1
-0.4 0 0.1
-0.39 0 0.1
-0.38 0 0.1
-0.37 0 0.1
-0.36 0 0.1
-0.35 0 0.1
-0.34 0 0.1
-0.33 0 0.1
-0.32 0 0.1
-0.31 0 0.1
-0.3 0 0.1
-0.29 0 0.1
-0.28 0 0.1
-0.27 0 0.1
-0.26 0 0.1
-0.25 0 0.1
-0.24 0 0.1
-0.23 0 0.1
-0.22 0 0.1
-0.21 0 0.1
-0.2 0 0.1
-0.19 0 0.1
-0.18 0 0.1
-0.17 0 0.1
-0.16 0 0.1
-0.15 0 0.1
-0.14 0 0.1
-0.13 0 0.1
-0.12 0 0.1
-0.11 0 0.1
-0.1 0 0.1
-0.09 0 0.1
-0.08 0 0.1
-0.07 0 0.1
-0.06 0 0.1
-0.05 0 0.1
-0.04 0 0.1
-0.03 0 0.1
-0.02 0 0.1
-0.01 0 0.1
0.00921362 0.00379763 0.1
0.0184561 0.00752451 0.1
0.0277268 0.0111804 0.1
0.0370253 0.0147652 0.1
0.0463511 0.0182786 0.1
0.0557034 0.0217203 0.1
0.0650819 0.0250903 0.1
0.074486 0.0283883 0.1
0.083915 0.0316141 0.1
0.0933685 0.0347675 0.1
0.102846 0.0378484 0.1
0.112347 0.0408565 0.1
0.12187 0.0437917 0.1
0.131416 0.0466538 0.1
0.140983 0.0494427 0.1
0.150572 0.0521581 0.1
0.160181 0.0547999 0.1
0.16981 0.0573681 0.1
0.179458 0.0598623 0.1
0.189125 0.0622825 0.1
0.198811 0.0646285 0.1
0.208514 0.0669001 0.1
0.218234 0.0690974 0.1
0.227971 0.07122 0.1
0.237724 0.073268 0.1
0.247493 0.0752411 0.1
0.257276 0.0771393 0.1
0.267073 0.0789625 0.1
0.276884 0.0807105 0.1
0.286708 0.0823832 0.1
0.296545 0.0839806 0.1
0.306394 0.0855025 0.1
0.316254 0.0869488 0.1
0.326125 0.0883196 0.1
0.336006 0.0896146 0.1
0.345896 0.0908339 0.1
0.355796 0.0919773 0.1
0.365704 0.0930447 0.1
0.375621 0.0940362 0.1
0.385544 0.0949517 0.1
0.395474 0.095791 0.1
0.40541 0.0965542 0.1
0.415352 0.0972412 0.1
0.425299 0.097852 0.1
0.43525 0.0983865 0.1
0.445205 0.0988447 0.1
0.455164 0.0992266 0.1
0.465125 0.0995321 0.1
0.475088 0.0997613 0.1
0.485052 0.0999141 0.1
0.495017 0.0999904 0.1
0.504983 0.0999904 0.1
0.514948 0.0999141 0.1
0.524912 0.0997613 0.1
0.534875 0.0995321 0.1
0.544836 0.0992266 0.1
0.554795 0.0988447 0.1
0.56475 0.0983865 0.1
0.574701 0.097852 0.1
0.584648 0.0972412 0.1
0.59459 0.0965542 0.1
0.604526 0.095791 0.1
0.614456 0.0949517 0.1
0.624379 0.0940362 0.1
0.634296 0.0930447 0.1
0.644204 0.0919773 0.1
0.654104 0.0908339 0.1
0.663994 0.0896146 0.1
0.673875 0.0883196 0.1
0.683746 0.0869488 0.1
0.693606 0.0855025 0.1
0.703455 0.0839806 0.1
0.713292 0.0823832 0.1
0.723116 0.0807105 0.1
0.732927 0.0789625 0.1
0.742724 0.0771393 0.1
0.752508 0.0752411 0.1
0.762276 0.073268 0.1
0.772029 0.07122 0.1
0.781766 0.0690974 0.1
0.791486 0.0669001 0.1
0.801189 0.0646285 0.1
0.810875 0.0622825 0.1
0.820542 0.0598623 0.1
0.83019 0.0573681 0.1
0.839819 0.0547999 0.1
0.849428 0.0521581 0.1
0.859017 0.0494427 0.1
0.868584 0.0466538 0.1
0.87813 0.0437917 0.1
0.887653 0.0408565 0.1
0.897154 0.0378484 0.1
0.906631 0.0347675 0.1
0.916085 0.0316141 0.1
0.925514 0.0283883 0.1
0.934918 0.0250903 0.1
0.944297 0.0217203 0.1
0.953649 0.0182786 0.1
0.962975 0.0147652 0.1
0.972273 0.0111804 0.1
0.981544 0.00752451 0.1
0.990786 0.00379763 0.1
1.01 0 0.1
1.02 0 0.1
1.03 0 0.1
1.04 0 0.1
1.05 0 0.1
1.06 0 0.1
1.07 0 0.1
1.08 0 0.1
1.09 0 0.1
1.1 0 0.1
1.11 0 0.1
1.12 0 0.1
1.13 0 0.1
1.14 0 0.1
1.15 0 0.1
1.16 0 0.1
1.17 0 0.1
1.18 0 0.1
1.19 0 0.1
1.2 0 0.1
1.21 0 0.1
1.22 0 0.1
1.23 0 0.1
1.24 0 0.1
1.25 0 0.1
1.26 0 0.1
1.27 0 0.1
1.28 0 0.1
1.29 0 0.1
1.3 0 0.1
1.31 0 0.1
1.32 0 0.1
1.33 0 0.1
1.34 0 0.1
1.35 0 0.1
1.36 0 0.1
1.37 0 0.1
1.38 0 0.1
1.39 0 0.1
1.4 0 0.1
1.41 0 0.1
1.42 0 0.1
1.43 0 0.1
1.44 0 0.1
1.45 0 0.1
1.46 0 0.1
1.47 0 0.1
1.48 0 0.1
1.49 0 0.1
1.5 0 0.1
1.51 0 0.1
1.52 0 0.1
1.53 0 0.1
1.54 0 0.1
1.55 0 0.1
1.56 0 0.1
1.57 0 0.1
1.58 0 0.1
1.59 0 0.1
1.6 0 0.1
1.61 0 0.1
1.62 0 0.1
1.63 0 0.1
1.64 0 0.1
1.65 0 0.1
1.66 0 0.1
1.67 0 0.1
1.68 0 0.1
1.69 0 0.1
1.7 0 0.1
1.71 0 0.1
1.72 0 0.1
1.73 0 0.1
1.74 0 0.1
1.75 0 0.1
1.76 0 0.1
1.77 0 0.1
1.78 0 0.1
1.79 0 0.1
1.8 0 0.1
1.81 0 0.1
1.82 0 0.1
1.83 0 0.1
1.84 0 0.1
1.85 0 0.1
1.86 0 0.1
1.87 0 0.1
1.88 0 0.1
[...]
CELL_DATA 7425
SCALARS rho float
LOOKUP_TABLE default
0.592082
0.805239
0.821049
0.828782
0.800615
0.820599
0.822045
0.8159
0.814912
0.740399
0.864139
0.810535
0.815688
0.828638
0.804767
0.818738
0.799882
0.815143
0.803647
0.768143
0.832484
0.82239
0.726679
0.829323
0.804053
0.707457
0.83239
0.849979
0.800393
0.808682
0.82053
0.723926
0.803795
0.656123
0.528903
0.82929
0.803657
0.815881
0.81164
0.829188
0.719652
0.70884
0.791258
0.693445
0.5924
0.749399
0.800776
0.815628
0.673612
0.717822
0.746173
0.805358
0.812681
0.80021
0.706188
0.698805
0.82431
0.800931
0.740279
0.703394
0.71481
0.807886
0.815118
0.800457
0.799015
0.81917
0.5891
0.774742
0.691978
0.808637
0.805055
0.803303
0.883885
0.821467
0.811183
0.814969
0.805259
0.800652
0.81512
0.757964
0.817623
0.807469
0.812123
0.789363
0.836808
0.802129
0.579116
0.831087
0.549606
0.849386
0.697173
0.731583
0.84687
0.803351
0.818967
0.760753
0.837112
0.788575
0.826957
0.80361
0.809701
0.738264
0.803438
0.829426
0.601316
0.81154
0.825652
0.710573
0.816699
0.800341
0.818289
0.785186
0.790477
0.812674
0.790997
0.786915
0.832435
0.803202
0.69431
0.655449
0.805252
0.778672
0.814884
0.790916
0.85974
0.840261
0.807938
0.805477
0.664274
0.513837
0.816189
0.659086
0.52427
0.869852
0.674644
0.800707
0.811429
0.725884
0.586732
0.728273
0.726763
0.810546
0.811518
0.703255
0.804018
0.780113
0.570037
0.79026
0.782917
0.829049
0.817918
0.695997
0.803962
0.744238
0.701746
0.803439
0.810933
0.831636
0.798848
0.659684
0.802987
0.694963
0.802149
0.830983
0.821916
0.802586
0.81498
0.78615
0.806545
0.801761
0.821198
0.805626
0.792887
0.800301
0.800769
0.742959
0.804764
0.76123
0.600748
0.694828
0.800798
0.794188
0.88031
0.832945
0.682266
0.824322
0.799822
0.828478
0.800957
0.815246
0.814591
0.803373
0.807215
0.701263
0.81671
0.820707
0.770984
0.798581
0.863002
0.808064
0.812618
0.813096
0.616721
0.840323
0.577793
0.54064
0.599614
0.611087
0.829179
0.879857
0.807747
0.798891
0.8422
0.81492
0.818258
0.822216
0.816888
0.641021
0.578496
0.815539
0.552937
0.599045
0.699081
0.813342
0.815809
0.81497
0.834281
0.814902
0.866218
0.705616
0.836196
0.717775
0.805449
0.8041
0.802357
0.716442
0.724075
0.622592
0.699196
0.864365
0.877776
0.807934
0.807931
0.800367
0.812412
0.720341
0.823039
0.801377
0.826994
0.795034
0.811749
0.720044
0.814794
0.825109
0.742805
0.53481
0.800807
0.736019
0.844349
0.816065
0.725118
0.817232
0.816555
0.850698
0.811319
0.805126
0.803407
0.82698
0.861542
0.806585
0.622263
0.84978
0.813249
0.805824
0.828807
0.838251
0.814858
0.822802
0.793956
0.816771
0.868701
0.850699
0.828368
0.837849
0.803105
0.818747
0.80329
0.759982
0.705688
0.585535
0.694492
0.803839
0.814828
0.81763
0.856456
0.780343
0.648688
0.828377
0.530328
0.775699
0.802021
0.649369
0.521869
0.642073
0.816888
0.815118
0.814918
0.81452
0.828018
0.774888
0.811725
0.802851
0.8149
0.841754
0.869287
0.83469
0.803297
0.695533
0.797227
0.835197
0.694259
0.799911
0.802377
0.865467
0.81869
0.596981
0.815234
0.743497
0.854001
0.734661
0.811944
0.907965
0.80105
0.796421
0.662059
0.638666
0.707962
0.782478
0.827829
0.816639
0.81551
0.88501
0.859871
0.800717
0.800349
0.826393
0.741838
0.802895
0.879963
0.801524
0.805931
0.801808
0.802754
0.814831
0.817379
0.817989
0.640919
0.831032
0.653386
0.809286
0.643991
0.804083
0.80251
0.841254
0.732477
0.816661
0.810176
0.818568
0.800525
0.802677
0.811635
0.703181
0.824827
0.814975
0.814794
0.800849
0.737144
0.564499
0.806641
0.812933
0.803335
0.814877
0.795486
0.530465
0.847224
0.815166
0.804021
0.787062
0.815142
0.805531
0.803936
0.817869
0.807734
0.823905
0.769774
0.813771
0.808051
0.567333
0.804265
0.643081
0.839598
0.639345
0.816377
0.878493
0.602786
0.818861
0.750864
0.804623
0.873906
0.542526
0.824489
0.82367
0.803656
0.827062
0.811858
0.824836
0.831856
0.826152
0.742592
0.828804
0.761748
0.81113
0.794646
0.794964
0.760341
0.805883
0.802201
0.816
0.755021
0.805448
0.608475
0.61813
0.694443
0.814689
0.845154
0.865573
0.831022
0.799788
0.814624
0.805695
0.819857
0.683251
0.801949
0.74454
0.825027
0.816433
0.806655
0.707444
0.729568
0.540451
0.609099
0.802302
0.614744
0.794148
0.765663
0.771171
0.725334
0.76419
0.769365
0.811277
0.816641
0.821044
0.813393
0.714666
0.613133
0.840066
0.808527
0.783793
0.811063
0.803178
0.837672
0.722947
0.85613
0.763943
0.732438
0.766514
0.813182
0.55162
0.799991
0.842648
0.814234
0.815594
0.811524
0.800384
0.782206
0.836629
0.803258
0.843986
0.722403
0.703694
0.801112
0.796497
0.823425
0.711859
0.848901
0.801643
0.817671
0.799866
0.779876
0.809466
0.598585
0.680188
0.635438
0.814716
0.804957
0.827635
0.750915
0.810836
0.816518
0.821852
0.800162
0.733148
0.798538
0.815513
0.803339
0.709066
0.81542
0.820357
0.841056
0.812699
0.826672
0.862945
0.858
0.746514
0.607269
0.838889
0.806674
0.844194
0.815989
0.82383
0.815363
0.81561
0.657168
0.806453
0.810758
0.814814
0.793176
0.811713
0.805864
0.862458
0.799859
0.81473
0.816436
0.872574
0.60153
0.815298
0.843884
0.883807
0.536969
0.818023
0.831
0.7965
0.81506
0.796282
0.868289
0.813425
0.832558
0.813953
0.62289
0.802718
0.804361
0.6963
0.853872
0.759504
0.802176
0.815748
0.814618
0.861598
0.795713
0.834608
0.835865
0.786114
0.826081
0.843749
0.800902
0.811647
0.808113
0.805538
0.816355
0.802805
0.846156
0.769637
0.810015
0.803488
0.816384
0.725852
0.814871
0.819894
0.754248
0.815415
0.81765
0.828758
0.826441
0.801788
0.80149
0.851252
0.767988
0.826391
0.845163
0.804759
0.515326
0.814832
0.829551
0.85312
0.814302
0.803246
0.809195
0.855789
0.780414
0.802767
0.802204
0.814908
0.731316
0.803579
0.830928
0.809288
0.795374
0.795221
0.844208
0.806829
0.846111
0.802139
0.825614
0.814583
0.804413
0.842679
0.8148
0.683955
0.820306
0.807331
0.814655
0.906463
0.801572
0.817284
0.8012
0.801262
0.817839
0.801356
0.803622
0.783693
0.747274
0.808205
0.814878
0.759749
0.793087
0.824396
0.813266
0.823674
0.807049
0.827101
0.875864
0.831872
0.585449
0.710896
0.8418
0.818874
0.845098
0.816448
0.850938
0.808503
0.813543
0.800452
0.839451
0.861708
0.853667
0.734202
0.815871
0.823539
0.743401
0.81831
0.77642
0.801008
0.735529
0.817707
0.832087
0.823838
0.86387
0.815958
0.815178
0.811934
0.816344
0.836791
0.812469
0.799809
0.810479
0.740193
0.813292
0.774332
0.833917
0.813941
0.641826
0.778312
0.812239
0.800285
0.82132
0.803611
0.816377
0.818886
0.805322
0.82088
0.804354
0.807066
0.604603
0.848001
0.82646
0.828012
0.816081
0.803382
0.704125
0.807759
0.908151
0.815339
0.802256
0.814714
0.782954
0.808489
0.815046
0.822734
0.814931
0.815118
0.817878
0.68913
0.779536
0.766609
0.814572
0.806103
0.80224
0.624903
0.806907
0.803712
0.711207
0.838367
0.818786
0.803053
0.808534
0.800367
0.818807
0.815146
0.815172
0.814871
0.71176
0.832778
0.800614
0.808647
0.844041
0.818753
0.817911
0.80121
0.753761
0.825123
0.789074
0.822864
0.789946
0.806914
0.822412
0.737967
0.818807
0.660097
0.872683
0.706827
0.845989
0.802462
0.875716
0.794482
0.802289
0.822139
0.837423
0.839256
0.826709
0.821323
0.816346
0.802653
0.804486
0.808859
0.730112
0.82811
0.800297
0.718248
0.831625
0.694311
0.801221
0.862303
0.805849
0.707332
0.798257
0.815873
0.700526
0.785697
0.820873
0.832872
0.808697
0.60812
0.732671
0.812708
0.802563
0.814907
0.801708
0.739088
0.81577
0.817386
0.814468
0.776776
0.803413
0.804753
0.804849
0.565036
0.814707
0.834903
0.586971
0.816867
0.817751
0.816428
0.819907
0.816163
0.825888
0.800317
0.795449
0.770875
0.823664
0.830435
0.825863
0.83631
0.76677
0.810826
0.728818
0.772827
0.809942
0.822529
0.815154
0.801155
0.860117
0.814907
0.80198
0.811447
0.817713
0.816885
0.837746
0.816243
0.814756
0.812218
0.815628
0.801403
0.822435
0.804027
0.824235
0.815323
0.58253
0.815364
0.835618
0.859877
0.839169
0.502755
0.818415
0.805787
0.506402
0.674503
0.652977
0.835344
0.809188
0.811894
0.814701
0.803288
0.818362
0.811743
0.54131
0.691806
0.818892
0.806845
0.817274
0.803683
0.810614
0.812828
0.821654
0.80047
0.698207
0.857791
0.803239
0.815017
0.815425
0.75935
0.497895
0.834076
0.814391
0.741342
0.80279
0.807508
0.600032
0.828516
0.816459
0.829009
0.820312
0.827223
0.804941
0.724178
0.646515
0.56669
0.826659
0.809771
0.783234
0.814915
0.781513
0.819455
0.873886
0.763893
0.823049
0.815276
0.827146
0.884106
0.816179
0.813697
0.80353
0.814109
0.69564
0.829485
0.800826
0.811437
0.802582
0.784787
0.855027
0.823448
0.841324
0.822964
0.757202
0.756943
0.804521
0.819599
0.80318
0.805455
0.802877
0.777462
0.816394
0.76319
0.822356
0.664878
0.815742
0.803221
0.734492
0.824233
0.819326
0.741763
0.801419
0.758955
0.883196
0.800895
0.814842
0.764426
0.801324
0.816037
0.804134
0.594223
0.821864
0.799923
0.803003
0.81627
0.826876
0.758901
0.806686
0.843097
0.828155
0.814809
0.836969
0.687915
0.702444
0.814908
0.745898
0.82364
0.772817
0.814831
0.802798
0.811619
0.753636
0.794552
0.766181
0.811644
0.803239
0.634188
0.779541
0.799454
0.850649
0.816125
0.829919
0.534585
0.825699
0.785753
0.859543
0.80113
0.818805
0.801494
0.787236
0.799901
0.826951
0.836642
0.822674
0.818677
0.703575
0.775543
0.816844
0.805587
0.811925
0.804087
0.701284
0.794162
0.804251
0.811827
0.828307
0.851953
0.833055
0.815321
0.800599
0.805207
0.802885
0.78043
0.615438
0.801946
0.734335
0.665033
0.824138
0.799941
0.777203
0.801063
0.755791
0.785811
0.81346
0.823269
0.804724
0.817624
0.818645
0.821669
0.815257
0.809714
0.714191
0.701781
0.643816
0.830532
0.870234
0.816414
0.842437
0.848742
0.864387
0.739114
0.817973
0.863713
0.811627
0.814882
0.817451
0.735271
0.814088
0.807895
0.807381
0.525419
0.814921
0.762444
0.81504
0.8141
0.803707
0.7016
0.815073
0.614374
0.825935
0.803236
0.823226
0.856014
0.803615
0.795734
0.822389
0.813371
0.806368
0.763461
0.520034
0.822333
0.803316
0.830234
0.827079
0.803765
0.807254
0.835472
0.723511
0.511511
0.886754
0.802047
0.817358
0.804517
0.707263
0.7998
0.801119
0.816771
0.73961
0.649444
0.883739
0.716578
0.837664
0.813828
0.834068
0.843668
0.793873
0.80494
0.815395
0.853518
0.740102
0.871287
0.815804
0.567439
0.803653
0.748218
0.853788
0.762332
0.804406
0.804129
0.800674
0.802099
0.810697
0.814902
0.857214
0.807128
0.802976
0.801452
0.801047
0.814243
0.81848
0.802755
0.814489
0.850135
0.803187
0.784905
0.802453
0.840952
0.72939
0.815459
0.815603
0.665491
0.715539
0.805853
0.824357
0.804842
0.520921
0.858096
0.814972
0.834298
0.805516
0.803453
0.801801
0.787804
0.590826
0.804578
0.817746
0.836796
0.822034
0.814918
0.799829
0.749439
0.801849
0.768034
0.788085
0.800457
0.791402
0.751099
0.801811
0.812462
0.812192
0.833178
0.850656
0.559697
0.842937
0.814853
0.821132
0.802933
0.823002
0.813084
0.895043
0.801422
0.869197
0.805957
0.761804
0.86278
0.802485
0.800434
0.825458
0.663364
0.648298
0.803561
0.804077
0.691231
0.657218
0.80009
0.825209
0.814968
0.823995
0.735492
0.81837
0.814751
0.827452
0.818351
0.812195
0.814874
0.756248
0.805016
0.817316
0.813338
0.678788
0.571262
0.814912
0.652843
0.723871
0.560237
0.842418
0.801177
0.537123
0.604676
0.82849
0.908383
0.819689
0.655318
0.815913
0.787878
0.802674
0.787031
0.821897
0.81159
0.788824
0.822448
0.802614
0.592573
0.81938
0.768388
0.817532
0.696505
0.823629
0.791134
0.815725
0.801207
0.665753
0.84433
0.807742
0.807788
0.504754
0.818435
0.801367
0.853862
0.708691
0.818679
0.596558
0.723654
0.802335
0.798022
0.736512
0.718624
0.713048
0.51766
0.609752
0.801187
0.528092
0.824007
0.537367
0.758802
0.676437
0.615534
0.550103
0.747182
0.803182
0.711744
0.822741
0.801661
0.803746
0.762776
0.890153
0.800219
0.825826
0.803671
0.81478
0.708208
0.808648
0.738564
0.823337
0.886551
0.834618
0.749672
0.824174
0.772101
0.880412
0.804388
0.760239
0.851592
0.778407
0.800116
0.80652
0.759828
0.747751
0.676617
0.805187
0.803133
0.8194
0.834638
0.614736
0.809129
0.545756
0.671281
0.625593
0.819731
0.822484
0.810785
0.804161
0.619018
0.873029
0.802806
0.803048
0.864267
0.814432
0.77312
0.814168
0.80255
0.819463
0.803229
0.719146
0.804237
0.662926
0.800098
0.805547
0.801944
0.642042
0.812789
0.811463
0.726024
0.818952
0.555511
0.581405
0.804356
0.698865
0.727861
0.576588
0.726644
0.815449
0.701495
0.773865
0.714429
0.813873
0.67301
0.763677
0.807142
0.812321
0.658927
0.802257
0.895582
0.797118
0.818405
0.593335
0.696442
0.802567
0.814914
0.815774
0.852443
0.814541
0.804522
0.803946
0.803503
0.716365
0.715617
0.619525
0.773302
0.544332
0.722085
0.8117
0.816121
0.807263
0.800445
0.574901
0.810821
0.803938
0.560484
0.551605
0.748313
0.803747
0.807645
0.554886
0.798941
0.574628
0.725161
0.611863
0.814397
0.803159
0.601407
0.612084
0.868571
0.810843
0.766963
0.720919
0.629164
0.658188
0.70493
0.817602
0.761331
0.765258
0.627653
0.755768
0.811036
0.817037
0.814438
0.817151
0.867611
0.756765
0.820431
0.803619
0.852107
0.814864
0.802937
0.814973
0.720206
0.814524
0.813597
0.816781
0.81279
0.817469
0.803411
0.81945
0.812053
0.811435
0.818807
0.800321
0.818152
0.820466
0.670281
0.820132
0.869101
0.819704
0.793345
0.648894
0.85938
0.820313
0.826234
0.800669
0.813208
0.757526
0.853425
0.577788
0.73078
0.810115
0.81733
0.804061
0.803522
0.833242
0.805931
0.806013
0.816954
0.782061
0.839632
0.842932
0.81654
0.667148
0.625593
0.817422
0.818191
0.79007
0.850545
0.848129
0.812065
0.815218
0.779328
0.815811
0.819369
0.815847
0.820298
0.814257
0.817479
0.851936
0.817617
0.816118
0.819126
0.819314
0.785523
0.815722
0.805161
0.805376
0.805637
0.8201
0.813455
0.78979
0.753676
0.81452
0.806497
0.810563
0.806603
0.858474
0.80428
0.815706
0.814633
0.806096
0.691586
0.804102
0.814687
0.816196
0.810592
0.814739
0.815145
0.814938
0.810414
0.865036
0.511918
0.814776
0.842631
0.814576
0.803301
0.808977
0.816705
0.840735
0.801538
0.802446
0.813692
0.693113
0.814801
0.809181
0.808532
0.81443
0.814809
0.814932
0.815221
0.521857
0.812554
0.720488
0.88633
0.822426
0.732303
0.683063
0.817043
0.804381
0.819754
0.649507
0.80226
0.815197
0.650917
0.800972
0.804456
0.816668
0.807403
0.857562
0.810079
0.610707
0.801712
0.775321
0.811511
0.889547
0.804578
0.815799
0.820222
0.833099
0.815253
0.823807
0.837408
0.63818
0.804029
0.658695
0.81555
0.815459
0.709484
0.815354
0.806324
0.710567
0.816336
0.706026
0.861845
0.784719
0.816051
0.814855
0.815258
0.671764
0.815473
0.636166
0.801083
0.792838
0.823676
0.816871
0.718692
0.766877
0.831276
0.814612
0.822301
0.823321
0.815284
0.826661
0.800549
0.557074
0.754489
0.760903
0.729904
0.838698
0.823611
0.835293
0.778035
0.802914
0.814957
0.814908
0.814906
0.775599
0.568494
0.803339
0.538524
0.809461
0.825519
0.800802
0.803929
0.814198
0.806298
0.784199
0.733253
0.81524
0.859853
0.814962
0.800338
0.73591
0.810593
0.789251
0.834605
0.516677
0.796312
0.807545
0.800002
0.696166
0.814738
0.812206
0.858842
0.573526
0.807625
0.803401
0.814653
0.620242
0.814986
0.803464
0.803558
0.803173
0.815081
0.815164
0.817696
0.814962
0.714848
0.804745
0.803333
0.814929
0.896566
0.815035
0.775573
0.842368
0.799394
0.803248
0.605241
0.814835
0.803489
0.826877
0.80256
0.866934
0.816113
0.854995
0.801447
0.822071
0.778675
0.563577
0.754968
0.795777
0.805569
0.814176
0.815574
0.560699
0.862438
0.859665
0.770444
0.758062
0.738137
0.813297
0.849824
0.814866
0.814554
0.8149
0.804462
0.725749
0.803668
0.80019
0.764179
0.825587
0.824377
0.862489
0.817263
0.814917
0.555812
0.809114
0.814878
0.801619
0.775417
0.818358
0.80321
0.814721
0.828171
0.798805
0.804407
0.801943
0.816536
0.840144
0.803446
0.800187
0.802669
0.765873
0.821334
0.571971
0.868976
0.803904
0.551213
0.804124
0.804389
0.820673
0.612577
0.610196
0.80248
0.804756
0.801862
0.861392
0.780468
0.816074
0.8031
0.867796
0.804912
0.804639
0.827305
0.817395
0.821291
0.822674
0.821753
0.86808
0.731223
0.852898
0.818739
0.656673
0.803392
0.80336
0.803819
0.822545
0.824839
0.804751
0.802056
0.801079
0.824056
0.803979
0.803842
0.800747
0.82572
0.804159
0.802498
0.806293
0.829089
0.801725
0.802449
0.825522
0.800571
0.817042
0.654323
0.827675
0.850652
0.805568
0.821047
0.803481
0.829983
0.838568
0.803548
0.822877
0.801338
0.808056
0.789897
0.802615
0.803956
0.806565
0.806627
0.805539
0.820028
0.816448
0.811564
0.83259
0.803277
0.802525
0.800944
0.789456
0.834882
0.803418
0.820781
0.816874
0.80774
0.805962
0.803058
0.839907
0.866702
0.800661
0.681483
0.80186
0.843148
0.818175
0.80627
0.804651
0.820451
0.845494
0.618179
0.830023
0.795987
0.852049
0.820215
0.812426
0.813966
0.809296
0.804145
0.813315
0.809158
0.595447
0.848898
0.795258
0.815925
0.855417
0.820759
0.764713
0.809328
0.816173
0.816993
0.803175
0.664654
0.81036
0.863881
0.803812
0.801467
0.777221
0.8718
0.801137
0.877617
0.807841
0.818715
0.822047
0.80342
0.804638
0.814492
0.817499
0.804602
0.815131
0.817824
0.881877
0.821461
0.809533
0.801293
0.829511
0.810738
0.840213
0.809632
0.807159
0.813283
0.818137
0.830934
0.81541
0.823818
0.833447
0.815313
0.704684
0.697004
0.814914
0.819278
0.804986
0.814933
0.52586
0.85558
0.80071
0.806436
0.815598
0.815256
0.804213
0.814312
0.801455
0.801996
0.809001
0.81594
0.759114
0.785955
0.824296
0.844143
0.835748
0.8013
0.806537
0.803506
0.813208
0.806471
0.800597
0.800779
0.801731
0.811993
0.798178
0.803865
0.836595
0.83258
0.733147
0.69311
0.807917
0.704554
0.800655
0.588061
0.80469
0.807608
0.804132
0.81968
0.835054
0.815686
0.814771
0.810549
0.804105
0.882058
0.817867
0.805967
0.773163
0.599066
0.810469
0.807731
0.770395
0.816128
0.815643
0.791921
0.801028
0.804274
0.643729
0.831388
0.803663
0.783318
0.780096
0.853479
0.810207
0.803988
0.803782
0.811173
0.811419
0.529046
0.802472
0.840533
0.815688
0.798964
0.594692
0.81544
0.815812
0.814898
0.834862
0.815675
0.804345
0.823287
0.806491
0.580172
0.809069
0.739472
0.799056
0.815429
0.723696
0.816605
0.847493
0.832366
0.667371
0.891332
0.786191
0.779221
0.797216
0.779861
0.809458
0.851532
0.809054
0.803279
0.815353
0.810582
0.783303
0.786523
0.815604
0.809447
0.835626
0.822593
0.836484
0.802809
0.800466
0.814949
0.857419
0.817766
0.819372
0.815179
0.610921
0.795929
0.825125
0.830256
0.866597
0.814546
0.819837
0.519161
0.811487
0.801547
0.814405
0.815921
0.848442
0.814928
0.81133
0.882002
0.765951
0.813125
0.815061
0.810713
0.805467
0.815952
0.658768
0.800808
0.850424
0.834275
0.811665
0.815073
0.815194
0.809789
0.703953
0.814036
0.801321
0.83962
0.819947
0.81278
0.832341
0.794295
0.81312
0.819301
0.809971
0.820757
0.747106
0.856327
0.820441
0.814929
0.814937
0.814601
0.817254
0.818658
0.814657
0.812388
0.84204
0.820081
0.801238
0.826011
0.828088
0.817175
0.81511
0.801387
0.802186
0.814942
0.820505
0.830172
0.814713
0.817975
0.800983
0.81159
0.814757
0.814674
0.802663
0.816358
0.815141
0.803579
0.814788
0.836717
0.800284
0.811091
0.822728
0.566074
0.815922
0.819662
0.816912
0.816564
0.823331
0.829928
0.817217
0.820322
0.703779
0.814955
0.80209
0.817246
0.820103
0.835859
0.822962
0.816562
0.830586
0.826251
0.812548
0.819452
0.820722
0.805788
0.815026
0.817233
0.820202
0.833274
0.814478
0.81732
0.802887
0.814864
0.814917
0.534571
0.633687
0.814625
0.822843
0.802645
0.823761
0.81752
0.842859
0.71033
0.815517
0.73304
0.818606
0.811989
0.815023
0.8304
0.815436
0.806082
0.814844
0.831064
0.840759
0.814632
0.721268
0.819968
0.817611
0.800882
0.803139
0.816958
0.856684
0.814532
0.815199
0.85054
0.829967
0.844053
0.583607
0.830299
0.815687
0.812542
0.818941
0.852143
0.819289
0.720382
0.800614
0.832493
0.800956
0.800749
0.806043
0.749522
0.815218
0.816026
0.728445
0.816023
0.828069
0.815119
0.815712
0.80034
0.819859
0.814906
0.824718
0.808925
0.809628
0.81651
0.694703
0.82055
0.815772
0.814901
0.644661
0.716299
0.603117
0.823995
0.546344
0.855499
0.729215
0.843786
0.814362
0.727322
0.822384
0.817429
0.744295
0.808265
0.819855
0.794547
0.818052
0.817476
0.817405
0.814901
0.809601
0.803829
0.739084
0.837472
0.82155
0.818148
0.800236
0.81605
0.803225
0.817612
0.815232
0.856221
0.819267
0.510915
0.814851
0.82027
0.820152
0.778689
0.816349
0.806935
0.819152
0.84685
0.600763
0.810217
0.800455
0.816959
0.819136
0.819196
0.814314
0.820089
0.815418
0.816169
0.80322
0.815852
0.847052
0.815601
0.792485
0.813235
0.626099
0.717101
0.814955
0.818542
0.80342
0.823676
0.734995
0.803233
0.80325
0.821643
0.699214
0.819125
0.800515
0.817055
0.866655
0.786044
0.823332
0.819491
0.823961
0.81576
0.770512
0.802698
0.815339
0.902639
0.827911
0.81801
0.832955
0.811444
0.870325
0.717406
0.692538
0.853814
0.802825