# vtk DataFile Version 1.0
unstructured grid
ascii
DATASET UNSTRUCTURED_GRID
points 7812 float
-1 0 0
-1 1 0
2 0 0
2 1 0
0 0 0
1 0 0
-1 1 0.1
-1 0 0.1
0 0 0.1
1 0 0.1
2 0 0.1
2 1 0.1
-0.99 0 0
-0.98 0 0
-0.97 0 0
-0.96 0 0
-0.95 0 0
-0.94 0 0
-0.93 0 0
-0.92 0 0
-0.91 0 0
-0.9 0 0
-0.89 0 0
-0.88 0 0
-0.87 0 0
-0.86 0 0
-0.85 0 0
-0.84 0 0
-0.83 0 0
-0.82 0 0
-0.81 0 0
-0.8 0 0
-0.79 0 0
-0.78 0 0
-0.77 0 0
-0.76 0 0
-0.75 0 0
-0.74 0 0
-0.73 0 0
-0.72 0 0
-0.71 0 0
-0.7 0 0
-0.69 0 0
-0.68 0 0
-0.67 0 0
-0.66 0 0
-0.65 0 0
-0.64 0 0
-0.63 0 0
-0.62 0 0
-0.61 0 0
-0.6 0 0
-0.59 0 0
-0.58 0 0
-0.57 0 0
-0.56 0 0
-0.55 0 0
-0.54 0 0
-0.53 0 0
-0.52 0 0
-0.51 0 0
-0.5 0 0
-0.49 0 0
-0.48 0 0
-0.47 0 0
-0.46 0 0
-0.45 0 0
-0.44 0 0
-0.43 0 0
-0.42 0 0
-0.41 0 0
-0.4 0 0
-0.39 0 0
-0.38 0 0
-0.37 0 0
-0.36 0 0
-0.35 0 0
-0.34 0 0
-0.33 0 0
-0.32 0 0
-0.31 0 0
-0.3 0 0
-0.29 0 0
-0.28 0 0
-0.27 0 0
-0.26 0 0
-0.25 0 0
-0.24 0 0
-0.23 0 0
-0.22 0 0
-0.21 0 0
-0.2 0 0
-0.19 0 0
-0.18 0 0
-0.17 0 0
-0.16 0 0
-0.15 0 0
-0.14 0 0
-0.13 0 0
-0.12 0 0
-0.11 0 0
-0.1 0 0
-0.09 0 0
-0.08 0 0
-0.07 0 0
-0.06 0 0
-0.05 0 0
-0.04 0 0
-0.03 0 0
-0.02 0 0
-0.01 0 0
1.01 0 0
1.02 0 0
1.03 0 0
1.04 0 0
1.05 0 0
1.06 0 0
1.07 0 0
1.08 0 0
1.09 0 0
1.1 0 0
1.11 0 0
1.12 0 0
1.13 0 0
1.14 0 0
1.15 0 0
1.16 0 0
1.17 0 0
1.18 0 0
1.19 0 0
1.2 0 0
1.21 0 0
1.22 0 0
1.23 0 0
1.24 0 0
1.25 0 0
1.26 0 0
1.27 0 0
1.28 0 0
1.29 0 0
1.3 0 0
1.31 0 0
1.32 0 0
1.33 0 0
1.34 0 0
1.35 0 0
1.36 0 0
1.37 0 0
1.38 0 0
1.39 0 0
1.4 0 0
1.41 0 0
1.42 0 0
1.43 0 0
1.44 0 0
1.45 0 0
1.46 0 0
1.47 0 0
1.48 0 0
1.49 0 0
1.5 0 0
1.51 0 0
1.52 0 0
1.53 0 0
1.54 0 0
1.55 0 0
1.56 0 0
1.57 0 0
1.58 0 0
1.59 0 0
1.6 0 0
1.61 0 0
1.62 0 0
1.63 0 0
1.64 0 0
1.65 0 0
1.66 0 0
1.67 0 0
1.68 0 0
1.69 0 0
1.7 0 0
1.71 0 0
1.72 0 0
1.73 0 0
1.74 0 0
1.75 0 0
1.76 0 0
1.77 0 0
1.78 0 0
1.79 0 0
1.8 0 0
1.81 0 0
1.82 0 0
1.83 0 0
1.84 0 0
1.85 0 0
1.86 0 0
1.87 0 0
1.88 0 0
1.89 0 0
1.9 0 0
1.91 0 0
1.92 0 0
1.93 0 0
1.94 0 0
1.95 0 0
1.96 0 0
1.97 0 0
1.98 0 0
1.99 0 0
2 0.010289 0
2 0.0215307 0
2 0.0338135 0
2 0.0472336 0
2 0.0618965 0
2 0.0779171 0
2 0.0954213 0
2 0.114546 0
2 0.135442 0
2 0.158274 0
2 0.183219 0
2 0.210474 0
2 0.240253 0
2 0.27279 0
2 0.308339 0
2 0.347181 0
2 0.389619 0
2 0.435987 0
2 0.486649 0
2 0.542002 0
2 0.602481 0
2 0.66856 0
2 0.740758 0
2 0.819642 0
2 0.90583 0
1.9 1 0
1.8 1 0
1.7 1 0
1.6 1 0
1.5 1 0
1.4 1 0
1.3 1 0
1.2 1 0
1.1 1 0
1 1 0
0.9 1 0
0.8 1 0
0.7 1 0
0.6 1 0
0.5 1 0
0.4 1 0
0.3 1 0
0.2 1 0
0.1 1 0
3.69793e-12 1 0
-0.1 1 0
-0.2 1 0
-0.3 1 0
-0.4 1 0
-0.5 1 0
-0.6 1 0
-0.7 1 0
-0.8 1 0
-0.9 1 0
-1 0.90583 0
-1 0.819642 0
-1 0.740758 0
-1 0.66856 0
-1 0.602481 0
-1 0.542002 0
-1 0.486649 0
-1 0.435987 0
-1 0.389619 0
-1 0.347181 0
-1 0.308339 0
-1 0.27279 0
-1 0.240253 0
-1 0.210474 0
-1 0.183219 0
-1 0.158274 0
-1 0.135442 0
-1 0.114546 0
-1 0.0954213 0
-1 0.0779171 0
-1 0.0618965 0
-1 0.0472336 0
-1 0.0338135 0
-1 0.0215307 0
-1 0.010289 0
0.00921362 0.00379763 0
0.0184561 0.00752451 0
0.0277268 0.0111804 0
0.0370253 0.0147652 0
0.0463511 0.0182786 0
0.0557034 0.0217203 0
0.0650819 0.0250903 0
0.074486 0.0283883 0
0.083915 0.0316141 0
0.0933685 0.0347675 0
0.102846 0.0378484 0
0.112347 0.0408565 0
0.12187 0.0437917 0
0.131416 0.0466538 0
0.140983 0.0494427 0
0.150572 0.0521581 0
0.160181 0.0547999 0
0.16981 0.0573681 0
0.179458 0.0598623 0
0.189125 0.0622825 0
0.198811 0.0646285 0
0.208514 0.0669001 0
0.218234 0.0690974 0
0.227971 0.07122 0
0.237724 0.073268 0
0.247493 0.0752411 0
0.257276 0.0771393 0
0.267073 0.0789625 0
0.276884 0.0807105 0
0.286708 0.0823832 0
0.296545 0.0839806 0
0.306394 0.0855025 0
0.316254 0.0869488 0
0.326125 0.0883196 0
0.336006 0.0896146 0
0.345896 0.0908339 0
0.355796 0.0919773 0
0.365704 0.0930447 0
0.375621 0.0940362 0
0.385544 0.0949517 0
0.395474 0.095791 0
0.40541 0.0965542 0
0.415352 0.0972412 0
0.425299 0.097852 0
0.43525 0.0983865 0
0.445205 0.0988447 0
0.455164 0.0992266 0
0.465125 0.0995321 0
0.475088 0.0997613 0
0.485052 0.0999141 0
0.495017 0.0999904 0
0.504983 0.0999904 0
0.514948 0.0999141 0
0.524912 0.0997613 0
0.534875 0.0995321 0
0.544836 0.0992266 0
0.554795 0.0988447 0
0.56475 0.0983865 0
0.574701 0.097852 0
0.584648 0.0972412 0
0.59459 0.0965542 0
0.604526 0.095791 0
0.614456 0.0949517 0
0.624379 0.0940362 0
0.634296 0.0930447 0
0.644204 0.0919773 0
0.654104 0.0908339 0
0.663994 0.0896146 0
0.673875 0.0883196 0
0.683746 0.0869488 0
0.693606 0.0855025 0
0.703455 0.0839806 0
0.713292 0.0823832 0
0.723116 0.0807105 0
0.732927 0.0789625 0
0.742724 0.0771393 0
0.752508 0.0752411 0
0.762276 0.073268 0
0.772029 0.07122 0
0.781766 0.0690974 0
0.791486 0.0669001 0
0.801189 0.0646285 0
0.810875 0.0622825 0
0.820542 0.0598623 0
0.83019 0.0573681 0
0.839819 0.0547999 0
0.849428 0.0521581 0
0.859017 0.0494427 0
0.868584 0.0466538 0
0.87813 0.0437917 0
0.887653 0.0408565 0
0.897154 0.0378484 0
0.906631 0.0347675 0
0.916085 0.0316141 0
0.925514 0.0283883 0
0.934918 0.0250903 0
0.944297 0.0217203 0
0.953649 0.0182786 0
0.962975 0.0147652 0
0.972273 0.0111804 0
0.981544 0.00752451 0
0.990786 0.00379763 0
-1 0.90583 0.1
-1 0.819642 0.1
-1 0.740758 0.1
-1 0.66856 0.1
-1 0.602481 0.1
-1 0.542002 0.1
-1 0.486649 0.1
-1 0.435987 0.1
-1 0.389619 0.1
-1 0.347181 0.1
-1 0.308339 0.1
-1 0.27279 0.1
-1 0.240253 0.1
-1 0.210474 0.1
-1 0.183219 0.1
-1 0.158274 0.1
-1 0.135442 0.1
-1 0.114546 0.1
-1 0.0954213 0.1
-1 0.0779171 0.1
-1 0.0618965 0.1
-1 0.0472336 0.1
-1 0.0338135 0.1
-1 0.0215307 0.1
-1 0.010289 0.1
-0.99 0 0.1
-0.98 0 0.1
-0.97 0 0.1
-0.96 0 0.1
-0.95 0 0.1
-0.94 0 0.1
-0.93 0 0.1
-0.92 0 0.1
-0.91 0 0.1
-0.9 0 0.1
-0.89 0 0.1
-0.88 0 0.1
-0.87 0 0.1
-0.86 0 0.1
-0.85 0 0.1
-0.84 0 0.1
-0.83 0 0.1
-0.82 0 0.1
-0.81 0 0.1
-0.8 0 0.1
-0.79 0 0.1
-0.78 0 0.1
-0.77 0 0.1
-0.76 0 0.1
-0.75 0 0.1
-0.74 0 0.1
-0.73 0 0.1
-0.72 0 0.1
-0.71 0 0.1
-0.7 0 0.1
-0.69 0 0.1
-0.68 0 0.1
-0.67 0 0.1
-0.66 0 0.1
-0.65 0 0.1
-0.64 0 0.1
-0.63 0 0.1
-0.62 0 0.1
-0.61 0 0.1
-0.6 0 0.1
-0.59 0 0.1
-0.58 0 0.1
-0.57 0 0.1
-0.56 0 0.1
-0.55 0 0.1
-0.54 0 0.1
-0.53 0 0.1
-0.52 0 0.1
-0.51 0 0.1
-0.5 0 0.1
-0.49 0 0.1
-0.48 0 0.1
-0.47 0 0.1
-0.46 0 0.1
-0.45 0 0.1
-0.44 0 0.1
-0.43 0 0.1
-0.42 0 0.1
-0.41 0 0.1
-0.4 0 0.1
-0.39 0 0.1
-0.38 0 0.1
-0.37 0 0.1
-0.36 0 0.1
-0.35 0 0.1
-0.34 0 0.1
-0.33 0 0.1
-0.32 0 0.1
-0.31 0 0.1
-0.3 0 0.1
-0.29 0 0.1
-0.28 0 0.1
-0.27 0 0.1
-0.26 0 0.1
-0.25 0 0.1
-0.24 0 0.1
-0.23 0 0.1
-0.22 0 0.1
-0.21 0 0.1
-0.2 0 0.1
-0.19 0 0.1
-0.18 0 0.1
-0.17 0 0.1
-0.16 0 0.1
-0.15 0 0.1
-0.14 0 0.1
-0.13 0 0.1
-0.12 0 0.1
-0.11 0 0.1
-0.1 0 0.1
-0.09 0 0.1
-0.08 0 0.1
-0.07 0 0.1
-0.06 0 0.1
-0.05 0 0.1
-0.04 0 0.1
-0.03 0 0.1
-0.02 0 0.1
-0.01 0 0.1
0.00921362 0.00379763 0.1
0.0184561 0.00752451 0.1
0.0277268 0.0111804 0.1
0.0370253 0.0147652 0.1
0.0463511 0.0182786 0.1
0.0557034 0.0217203 0.1
0.0650819 0.0250903 0.1
0.074486 0.0283883 0.1
0.083915 0.0316141 0.1
0.0933685 0.0347675 0.1
0.102846 0.0378484 0.1
0.112347 0.0408565 0.1
0.12187 0.0437917 0.1
0.131416 0.0466538 0.1
0.140983 0.0494427 0.1
0.150572 0.0521581 0.1
0.160181 0.0547999 0.1
0.16981 0.0573681 0.1
0.179458 0.0598623 0.1
0.189125 0.0622825 0.1
0.198811 0.0646285 0.1
0.208514 0.0669001 0.1
0.218234 0.0690974 0.1
0.227971 0.07122 0.1
0.237724 0.073268 0.1
0.247493 0.0752411 0.1
0.257276 0.0771393 0.1
0.267073 0.0789625 0.1
0.276884 0.0807105 0.1
0.286708 0.0823832 0.1
0.296545 0.0839806 0.1
0.306394 0.0855025 0.1
0.316254 0.0869488 0.1
0.326125 0.0883196 0.1
0.336006 0.0896146 0.1
0.345896 0.0908339 0.1
0.355796 0.0919773 0.1
0.365704 0.0930447 0.1
0.375621 0.0940362 0.1
0.385544 0.0949517 0.1
0.395474 0.095791 0.1
0.40541 0.0965542 0.1
0.415352 0.0972412 0.1
0.425299 0.097852 0.1
0.43525 0.0983865 0.1
0.445205 0.0988447 0.1
0.455164 0.0992266 0.1
0.465125 0.0995321 0.1
0.475088 0.0997613 0.1
0.485052 0.0999141 0.1
0.495017 0.0999904 0.1
0.504983 0.0999904 0.1
0.514948 0.0999141 0.1
0.524912 0.0997613 0.1
0.534875 0.0995321 0.1
0.544836 0.0992266 0.1
0.554795 0.0988447 0.1
0.56475 0.0983865 0.1
0.574701 0.097852 0.1
0.584648 0.0972412 0.1
0.59459 0.0965542 0.1
0.604526 0.095791 0.1
0.614456 0.0949517 0.1
0.624379 0.0940362 0.1
0.634296 0.0930447 0.1
0.644204 0.0919773 0.1
0.654104 0.0908339 0.1
0.663994 0.0896146 0.1
0.673875 0.0883196 0.1
0.683746 0.0869488 0.1
0.693606 0.0855025 0.1
0.703455 0.0839806 0.1
0.713292 0.0823832 0.1
0.723116 0.0807105 0.1
0.732927 0.0789625 0.1
0.742724 0.0771393 0.1
0.752508 0.0752411 0.1
0.762276 0.073268 0.1
0.772029 0.07122 0.1
0.781766 0.0690974 0.1
0.791486 0.0669001 0.1
0.801189 0.0646285 0.1
0.810875 0.0622825 0.1
0.820542 0.0598623 0.1
0.83019 0.0573681 0.1
0.839819 0.0547999 0.1
0.849428 0.0521581 0.1
0.859017 0.0494427 0.1
0.868584 0.0466538 0.1
0.87813 0.0437917 0.1
0.887653 0.0408565 0.1
0.897154 0.0378484 0.1
0.906631 0.0347675 0.1
0.916085 0.0316141 0.1
0.925514 0.0283883 0.1
0.934918 0.0250903 0.1
0.944297 0.0217203 0.1
0.953649 0.0182786 0.1
0.962975 0.0147652 0.1
0.972273 0.0111804 0.1
0.981544 0.00752451 0.1
0.990786 0.00379763 0.1
1.01 0 0.1
1.02 0 0.1
1.03 0 0.1
1.04 0 0.1
1.05 0 0.1
1.06 0 0.1
1.07 0 0.1
1.08 0 0.1
1.09 0 0.1
1.1 0 0.1
1.11 0 0.1
1.12 0 0.1
1.13 0 0.1
1.14 0 0.1
1.15 0 0.1
1.16 0 0.1
1.17 0 0.1
1.18 0 0.1
1.19 0 0.1
1.2 0 0.1
1.21 0 0.1
1.22 0 0.1
1.23 0 0.1
1.24 0 0.1
1.25 0 0.1
1.26 0 0.1
1.27 0 0.1
1.28 0 0.1
1.29 0 0.1
1.3 0 0.1
1.31 0 0.1
1.32 0 0.1
1.33 0 0.1
1.34 0 0.1
1.35 0 0.1
1.36 0 0.1
1.37 0 0.1
1.38 0 0.1
1.39 0 0.1
1.4 0 0.1
1.41 0 0.1
1.42 0 0.1
1.43 0 0.1
1.44 0 0.1
1.45 0 0.1
1.46 0 0.1
1.47 0 0.1
1.48 0 0.1
1.49 0 0.1
1.5 0 0.1
1.51 0 0.1
1.52 0 0.1
1.53 0 0.1
1.54 0 0.1
1.55 0 0.1
1.56 0 0.1
1.57 0 0.1
1.58 0 0.1
1.59 0 0.1
1.6 0 0.1
1.61 0 0.1
1.62 0 0.1
1.63 0 0.1
1.64 0 0.1
1.65 0 0.1
1.66 0 0.1
1.67 0 0.1
1.68 0 0.1
1.69 0 0.1
1.7 0 0.1
1.71 0 0.1
1.72 0 0.1
1.73 0 0.1
1.74 0 0.1
1.75 0 0.1
1.76 0 0.1
1.77 0 0.1
1.78 0 0.1
1.79 0 0.1
1.8 0 0.1
1.81 0 0.1
1.82 0 0.1
1.83 0 0.1
1.84 0 0.1
1.85 0 0.1
1.86 0 0.1
1.87 0 0.1
1.88 0 0.1
[...]
CELL_DATA 7425
SCALARS rho float
LOOKUP_TABLE default
0.587169
0.805033
0.819531
0.827501
0.799409
0.819129
0.820895
0.814103
0.81295
0.738622
0.86348
0.810028
0.813865
0.827358
0.803702
0.817125
0.798743
0.813233
0.803466
0.767245
0.831257
0.822042
0.724774
0.82803
0.803872
0.70301
0.831189
0.848253
0.800161
0.80793
0.819352
0.725493
0.803613
0.652095
0.519272
0.827996
0.803504
0.81408
0.811138
0.827991
0.71597
0.703189
0.789965
0.702158
0.586475
0.748207
0.79929
0.813799
0.661507
0.719272
0.746313
0.80515
0.812351
0.799066
0.70981
0.627877
0.822892
0.800084
0.738492
0.700902
0.70946
0.807655
0.813202
0.799371
0.79877
0.817583
0.58436
0.773268
0.704716
0.807848
0.804166
0.803201
0.883395
0.821114
0.810838
0.813009
0.805046
0.800436
0.813209
0.757755
0.815951
0.807235
0.810257
0.788668
0.835891
0.801082
0.574444
0.829941
0.542507
0.848467
0.706708
0.72973
0.845216
0.803175
0.817373
0.758197
0.836034
0.788012
0.825607
0.802464
0.80807
0.738654
0.803284
0.828223
0.597229
0.811065
0.824353
0.707444
0.814967
0.799155
0.816683
0.78453
0.78979
0.812426
0.789697
0.786309
0.831238
0.803104
0.700098
0.630356
0.805045
0.777252
0.812913
0.790398
0.858925
0.838826
0.807691
0.804256
0.66119
0.504084
0.814446
0.65505
0.515147
0.867667
0.661849
0.799503
0.811097
0.723537
0.582003
0.724795
0.723245
0.809593
0.809611
0.70731
0.803136
0.779599
0.56547
0.788491
0.78254
0.827748
0.816747
0.704226
0.802893
0.7443
0.705209
0.803273
0.810429
0.830391
0.797545
0.652079
0.802505
0.703434
0.801088
0.829724
0.820435
0.802373
0.813032
0.784799
0.806272
0.800636
0.819685
0.804464
0.791158
0.799118
0.79987
0.740099
0.803682
0.758702
0.59407
0.706494
0.799668
0.792688
0.879787
0.831827
0.615775
0.822905
0.798624
0.82731
0.799861
0.813374
0.812576
0.803191
0.806939
0.704586
0.814982
0.819233
0.770086
0.797124
0.861101
0.807761
0.811818
0.811135
0.612872
0.838878
0.573023
0.531794
0.595486
0.600528
0.82813
0.879321
0.807523
0.798649
0.841367
0.812937
0.816656
0.820743
0.815174
0.638016
0.549275
0.813695
0.545551
0.592527
0.703436
0.81167
0.814035
0.81301
0.833117
0.812878
0.864176
0.70997
0.835207
0.712614
0.805165
0.80392
0.801956
0.713899
0.720426
0.619515
0.705538
0.863606
0.875359
0.806212
0.807692
0.798844
0.811516
0.715815
0.821585
0.800177
0.825673
0.794617
0.80982
0.721416
0.812779
0.823714
0.739756
0.528512
0.799848
0.736425
0.843284
0.814315
0.726602
0.81555
0.814812
0.849937
0.809482
0.803854
0.803252
0.825631
0.860747
0.805423
0.619273
0.848872
0.811972
0.805599
0.827521
0.83732
0.812959
0.82141
0.793495
0.815044
0.866578
0.849931
0.827316
0.83672
0.802666
0.817134
0.80319
0.759703
0.701239
0.580896
0.700912
0.802323
0.81286
0.815959
0.854679
0.779646
0.645755
0.82706
0.520844
0.774267
0.800962
0.646415
0.495387
0.639113
0.815169
0.813205
0.812936
0.812694
0.826695
0.77442
0.811473
0.802664
0.812874
0.840694
0.867074
0.833538
0.80273
0.706116
0.795876
0.834269
0.691578
0.798733
0.802045
0.864772
0.817074
0.593057
0.813363
0.740477
0.852271
0.731977
0.810079
0.90765
0.799855
0.795626
0.658963
0.63558
0.711721
0.780567
0.826519
0.814906
0.813662
0.882386
0.858142
0.799523
0.799147
0.826023
0.739197
0.802519
0.879376
0.801378
0.804684
0.800686
0.802566
0.812938
0.815693
0.816345
0.636203
0.829966
0.645561
0.80845
0.639318
0.8026
0.802234
0.840245
0.728672
0.816342
0.808545
0.816954
0.799489
0.802494
0.811241
0.696753
0.824463
0.813028
0.8129
0.800678
0.736813
0.55996
0.806411
0.810992
0.803188
0.812863
0.794716
0.503225
0.845996
0.813286
0.803847
0.78571
0.813232
0.804661
0.80302
0.816211
0.807507
0.822486
0.768593
0.81264
0.807767
0.562686
0.803105
0.640123
0.838744
0.636241
0.814671
0.877889
0.593231
0.818069
0.748938
0.804411
0.873333
0.533745
0.823098
0.822236
0.803494
0.825716
0.81105
0.823435
0.830617
0.824814
0.739686
0.8275
0.76166
0.810199
0.794234
0.793612
0.758576
0.805597
0.802086
0.814442
0.752211
0.804693
0.604446
0.614235
0.689021
0.812782
0.844181
0.864825
0.829859
0.798569
0.812613
0.804876
0.818498
0.680508
0.800975
0.742934
0.824039
0.814772
0.805378
0.711795
0.72722
0.5337
0.605621
0.80128
0.611395
0.792567
0.765362
0.770032
0.727088
0.762445
0.767515
0.809409
0.814904
0.819527
0.811437
0.710479
0.602262
0.839014
0.806908
0.783138
0.809818
0.802557
0.83654
0.71815
0.855271
0.763679
0.728322
0.764499
0.811484
0.545031
0.798816
0.841599
0.813283
0.813757
0.809689
0.799154
0.780281
0.835686
0.803107
0.842957
0.721084
0.707464
0.80033
0.795137
0.821998
0.708713
0.847946
0.800411
0.816027
0.798718
0.779166
0.808249
0.594634
0.677436
0.632426
0.812906
0.803802
0.826335
0.749242
0.810593
0.814771
0.820371
0.798965
0.729323
0.79686
0.814281
0.803198
0.70319
0.813564
0.818886
0.840011
0.810751
0.825316
0.862283
0.857262
0.74392
0.603429
0.838018
0.805793
0.84337
0.8142
0.822899
0.813495
0.813775
0.634023
0.805173
0.809287
0.812794
0.79189
0.810578
0.804754
0.860505
0.798652
0.812708
0.814688
0.871911
0.597651
0.813432
0.842413
0.883311
0.530501
0.81638
0.829937
0.796139
0.814746
0.79494
0.867588
0.812184
0.831332
0.8127
0.619369
0.802394
0.804146
0.690855
0.85313
0.759767
0.801805
0.813951
0.812687
0.85969
0.795349
0.833599
0.834705
0.78428
0.825169
0.842346
0.799733
0.810482
0.806948
0.805314
0.814824
0.802632
0.845211
0.769247
0.809779
0.803161
0.815201
0.723139
0.812868
0.818332
0.752595
0.813559
0.816337
0.827558
0.825098
0.800712
0.800654
0.85049
0.767932
0.825123
0.844193
0.804556
0.505711
0.812873
0.828262
0.852378
0.812623
0.803149
0.808527
0.855037
0.780077
0.802584
0.80123
0.81291
0.727138
0.802717
0.829994
0.808005
0.79497
0.793501
0.843186
0.806606
0.845309
0.802021
0.824232
0.812741
0.804217
0.841843
0.812842
0.679458
0.818759
0.807099
0.812813
0.906141
0.800804
0.815878
0.800481
0.800397
0.816183
0.800502
0.80336
0.783729
0.747347
0.806487
0.812872
0.758015
0.791393
0.823005
0.813016
0.82224
0.806312
0.825756
0.875298
0.830633
0.574876
0.708807
0.840741
0.817269
0.844146
0.814741
0.850093
0.80733
0.81239
0.799346
0.838397
0.860923
0.852781
0.731529
0.814066
0.822161
0.743967
0.817095
0.775936
0.800222
0.733076
0.816045
0.830851
0.823464
0.861834
0.814194
0.813276
0.810166
0.814623
0.835782
0.8122
0.79866
0.810231
0.737555
0.811326
0.774178
0.832827
0.812758
0.638814
0.777635
0.811138
0.799178
0.819809
0.802472
0.814656
0.817281
0.804455
0.819381
0.804164
0.805844
0.597295
0.847032
0.825116
0.826689
0.814915
0.803222
0.701847
0.806476
0.907831
0.813569
0.801029
0.812865
0.782279
0.80725
0.813266
0.821271
0.814637
0.813206
0.816221
0.70185
0.777844
0.764583
0.81264
0.805314
0.801025
0.621349
0.805709
0.802631
0.708208
0.837186
0.817182
0.802194
0.807449
0.799401
0.817233
0.813924
0.813267
0.812856
0.709685
0.831684
0.800281
0.807405
0.842799
0.817614
0.816276
0.800177
0.75366
0.823822
0.78741
0.821419
0.789412
0.805632
0.820937
0.737523
0.817389
0.650608
0.872021
0.704339
0.844996
0.800794
0.875153
0.793703
0.801676
0.820656
0.836218
0.838404
0.825458
0.819812
0.814694
0.801122
0.804182
0.808241
0.725753
0.827231
0.800083
0.719666
0.830524
0.706067
0.8
0.860389
0.805581
0.701457
0.797844
0.814068
0.704993
0.785658
0.819369
0.831848
0.806949
0.573672
0.728643
0.812385
0.801324
0.812904
0.800669
0.737221
0.813997
0.8157
0.812471
0.775358
0.803265
0.804492
0.80357
0.560457
0.812692
0.834098
0.579838
0.815148
0.816086
0.81468
0.818345
0.814404
0.824525
0.799078
0.795121
0.771031
0.82289
0.829658
0.825098
0.834874
0.76535
0.808987
0.724422
0.772372
0.808799
0.821059
0.813266
0.800972
0.858283
0.812909
0.800327
0.809579
0.816079
0.815171
0.836619
0.814477
0.812788
0.811979
0.813801
0.800139
0.820981
0.803767
0.822815
0.813449
0.575564
0.813496
0.834452
0.858065
0.838177
0.490805
0.816792
0.80452
0.496608
0.669388
0.643258
0.834287
0.807968
0.811649
0.812781
0.803205
0.816733
0.810954
0.53459
0.686502
0.818232
0.806625
0.815598
0.803508
0.810236
0.810891
0.820224
0.799516
0.692296
0.855915
0.803151
0.814715
0.813606
0.757776
0.485744
0.832882
0.813539
0.741984
0.802702
0.8062
0.590962
0.827517
0.814766
0.827708
0.818766
0.825975
0.80473
0.71943
0.643562
0.562076
0.825303
0.808512
0.782975
0.812952
0.779791
0.817874
0.873309
0.762365
0.821595
0.813509
0.825824
0.883559
0.814425
0.811818
0.803263
0.813864
0.691732
0.828195
0.799878
0.810159
0.802207
0.784248
0.854153
0.822027
0.840476
0.821509
0.757593
0.7559
0.803307
0.818087
0.803064
0.805243
0.802586
0.775647
0.814667
0.761575
0.821143
0.662065
0.813955
0.802959
0.735718
0.823246
0.817963
0.739988
0.801164
0.757212
0.88064
0.800722
0.81282
0.762678
0.800082
0.814255
0.803948
0.58987
0.820932
0.798654
0.801338
0.814508
0.825599
0.757131
0.805519
0.841617
0.82693
0.814091
0.835826
0.700809
0.700145
0.812905
0.744157
0.822203
0.771365
0.812812
0.802518
0.810391
0.751954
0.794195
0.764326
0.809876
0.803143
0.631196
0.779013
0.799235
0.848998
0.81435
0.828637
0.526483
0.825332
0.785134
0.858728
0.80094
0.817976
0.800279
0.785779
0.798742
0.825698
0.835756
0.821755
0.817103
0.706981
0.773828
0.815346
0.805379
0.809958
0.803907
0.706866
0.792823
0.803463
0.810647
0.827169
0.851203
0.831839
0.813446
0.799425
0.804226
0.802022
0.779631
0.611612
0.800316
0.731289
0.661906
0.822791
0.79884
0.777271
0.799972
0.754157
0.785293
0.811436
0.822178
0.803333
0.815991
0.81734
0.820652
0.81337
0.808466
0.712147
0.69939
0.640901
0.829265
0.869561
0.815355
0.841342
0.847828
0.863731
0.735674
0.816572
0.863005
0.810181
0.81285
0.816181
0.732782
0.812407
0.806647
0.806185
0.517254
0.812944
0.761171
0.813137
0.813782
0.80354
0.705567
0.813178
0.61061
0.825019
0.802272
0.82223
0.855155
0.803429
0.795368
0.820916
0.811559
0.805701
0.762246
0.509829
0.82088
0.803082
0.828915
0.825747
0.802088
0.807022
0.834455
0.720818
0.5004
0.886257
0.800575
0.81567
0.80432
0.710489
0.798623
0.799997
0.815044
0.736064
0.646498
0.883244
0.714147
0.836536
0.811965
0.832875
0.842651
0.792166
0.804742
0.813575
0.852772
0.73831
0.870697
0.813996
0.562797
0.802449
0.748926
0.852903
0.760284
0.804215
0.803952
0.799622
0.801586
0.808858
0.812884
0.855542
0.805977
0.802866
0.801309
0.799996
0.812218
0.816854
0.802616
0.812461
0.849196
0.803097
0.783442
0.802236
0.83958
0.725007
0.813607
0.813805
0.63752
0.713094
0.805542
0.823007
0.803543
0.511707
0.85631
0.813192
0.832985
0.805303
0.803312
0.801336
0.786233
0.587167
0.804291
0.816081
0.835979
0.820547
0.812927
0.798149
0.746934
0.801565
0.765769
0.78753
0.799323
0.790958
0.751086
0.80083
0.811447
0.810349
0.832188
0.849056
0.553241
0.841891
0.81282
0.820843
0.801992
0.822655
0.811053
0.894609
0.800225
0.867084
0.805683
0.759758
0.862115
0.802276
0.800241
0.824143
0.660391
0.645277
0.803393
0.803853
0.705022
0.654294
0.799898
0.823834
0.813007
0.82257
0.732944
0.817172
0.812818
0.826115
0.81693
0.811938
0.81284
0.754573
0.803884
0.815658
0.811307
0.676212
0.566426
0.812877
0.649993
0.721917
0.555096
0.841384
0.800111
0.52694
0.600756
0.827503
0.908063
0.818127
0.652305
0.814137
0.786424
0.801707
0.786376
0.820636
0.810086
0.788277
0.821036
0.800993
0.587654
0.817805
0.766662
0.815909
0.700942
0.822203
0.789628
0.813928
0.800037
0.662862
0.843502
0.806539
0.806601
0.493544
0.816812
0.800371
0.852146
0.711352
0.817066
0.58391
0.71889
0.801392
0.796653
0.732721
0.715529
0.715993
0.506957
0.5895
0.799975
0.517494
0.822581
0.520191
0.757181
0.671243
0.599227
0.540572
0.745422
0.80308
0.7152
0.821278
0.800929
0.80293
0.761183
0.889673
0.799033
0.824464
0.803427
0.812765
0.70595
0.807556
0.736686
0.821892
0.886033
0.833559
0.747704
0.822771
0.770481
0.879896
0.804194
0.758655
0.850673
0.77685
0.799924
0.805277
0.758222
0.744597
0.66531
0.804982
0.803022
0.817889
0.833475
0.611472
0.807899
0.538078
0.668579
0.616278
0.8185
0.821023
0.808976
0.803973
0.615666
0.872452
0.802676
0.802944
0.863508
0.8124
0.772015
0.812137
0.802365
0.817882
0.803144
0.71703
0.803356
0.655304
0.798993
0.80408
0.801543
0.639153
0.811513
0.810292
0.725635
0.817785
0.549108
0.576682
0.804143
0.696469
0.725933
0.572082
0.723596
0.813599
0.707564
0.772967
0.716706
0.812791
0.670188
0.762097
0.806442
0.810586
0.654487
0.801944
0.895151
0.796694
0.816775
0.585134
0.693794
0.800919
0.81292
0.813987
0.851647
0.812621
0.80425
0.803724
0.803336
0.713783
0.717567
0.615608
0.771459
0.532737
0.723929
0.809898
0.814387
0.806115
0.799252
0.536027
0.809044
0.803755
0.553954
0.543291
0.746584
0.80357
0.806161
0.54931
0.798208
0.56957
0.720464
0.60776
0.813525
0.802244
0.597025
0.608274
0.867887
0.81003
0.765398
0.717838
0.621649
0.655314
0.709785
0.815991
0.759765
0.765501
0.623998
0.753858
0.809288
0.815344
0.812429
0.81545
0.865585
0.754676
0.818911
0.80333
0.851269
0.812833
0.802772
0.813054
0.722571
0.812928
0.811971
0.815163
0.811131
0.815871
0.803269
0.817904
0.810365
0.809717
0.817245
0.800111
0.816573
0.818931
0.667458
0.818587
0.868406
0.818146
0.792922
0.645896
0.858569
0.818767
0.824868
0.79953
0.811185
0.757504
0.852533
0.559263
0.726625
0.809857
0.815644
0.803871
0.803359
0.83203
0.80501
0.805193
0.81524
0.780703
0.838536
0.841931
0.815189
0.664301
0.612272
0.815743
0.816598
0.788289
0.849615
0.847245
0.810831
0.813607
0.777744
0.814064
0.81781
0.814088
0.818754
0.813077
0.8158
0.851029
0.815946
0.814479
0.817531
0.817744
0.784885
0.814096
0.804037
0.804112
0.804601
0.818546
0.811457
0.788334
0.753969
0.812644
0.806273
0.808754
0.806372
0.857759
0.803333
0.813971
0.812667
0.805177
0.564314
0.803884
0.81271
0.814998
0.810308
0.812753
0.813271
0.812994
0.810171
0.864382
0.501498
0.812783
0.841644
0.81262
0.802958
0.808406
0.814973
0.839661
0.800432
0.801198
0.812594
0.706034
0.812801
0.808202
0.807335
0.812523
0.812852
0.812995
0.813329
0.511763
0.81186
0.715755
0.885835
0.821033
0.733415
0.671297
0.815335
0.803493
0.818702
0.646475
0.801651
0.8133
0.647962
0.799838
0.80409
0.815413
0.806258
0.856725
0.809844
0.606906
0.800818
0.775171
0.811208
0.889065
0.803268
0.815507
0.819302
0.832189
0.813366
0.822374
0.836322
0.634949
0.80261
0.655761
0.813715
0.813615
0.71254
0.8135
0.804797
0.713132
0.814898
0.701238
0.86106
0.784076
0.814266
0.812857
0.813395
0.667865
0.813621
0.633275
0.800185
0.79236
0.822269
0.81515
0.716
0.766693
0.830026
0.81272
0.821281
0.821878
0.813404
0.825307
0.799485
0.552062
0.7549
0.759192
0.731425
0.837586
0.822332
0.834322
0.776012
0.802758
0.812992
0.812914
0.812917
0.774627
0.563786
0.8032
0.528484
0.808181
0.824253
0.799687
0.803755
0.812937
0.806008
0.782603
0.73218
0.813352
0.85913
0.813675
0.799276
0.736919
0.809586
0.788712
0.8337
0.503828
0.795972
0.805877
0.798859
0.689059
0.812805
0.810728
0.857042
0.569047
0.807328
0.803266
0.812788
0.612487
0.813051
0.803331
0.803399
0.803024
0.813162
0.813261
0.816074
0.813002
0.717868
0.804497
0.803198
0.81295
0.896155
0.813108
0.773969
0.841128
0.799176
0.803131
0.601315
0.812844
0.803355
0.825635
0.801961
0.866209
0.814799
0.853388
0.800325
0.820602
0.777868
0.558265
0.752682
0.794221
0.803908
0.813929
0.813767
0.555477
0.861768
0.857889
0.768451
0.757659
0.738512
0.812042
0.848388
0.812882
0.813688
0.812916
0.804269
0.726762
0.803496
0.799092
0.76421
0.824229
0.822963
0.861826
0.815613
0.812928
0.524449
0.808881
0.812887
0.800695
0.773953
0.81806
0.803108
0.81284
0.826852
0.798442
0.803572
0.801208
0.815141
0.839089
0.802356
0.799149
0.801476
0.76609
0.819827
0.567048
0.868362
0.803683
0.545711
0.803146
0.803107
0.819544
0.591772
0.606131
0.80154
0.803619
0.800833
0.860713
0.779916
0.814594
0.802932
0.865701
0.804708
0.804445
0.826289
0.81591
0.820074
0.821236
0.820284
0.867462
0.729247
0.852126
0.817156
0.653653
0.802528
0.803179
0.803632
0.821079
0.823465
0.803955
0.801072
0.800037
0.822634
0.803183
0.8036
0.799647
0.824342
0.803967
0.801985
0.806069
0.827825
0.800525
0.80151
0.82424
0.799571
0.815334
0.65125
0.826345
0.849816
0.804855
0.819527
0.803224
0.828706
0.837457
0.803393
0.821431
0.80052
0.806959
0.789544
0.802149
0.803144
0.806349
0.805885
0.804497
0.818497
0.814696
0.811226
0.831367
0.802164
0.802213
0.799888
0.788993
0.833747
0.803139
0.819255
0.815157
0.807092
0.805021
0.802945
0.83887
0.864712
0.799557
0.678926
0.801171
0.842113
0.816542
0.805108
0.804457
0.819673
0.84456
0.601582
0.828732
0.794468
0.85034
0.818681
0.811982
0.813256
0.808213
0.803949
0.812755
0.808741
0.591814
0.847949
0.794586
0.814126
0.854556
0.819229
0.763164
0.808617
0.814398
0.81541
0.802957
0.661672
0.809183
0.863125
0.802554
0.800693
0.775393
0.871195
0.80042
0.877048
0.80666
0.817112
0.820563
0.802206
0.803805
0.812546
0.815828
0.803452
0.813267
0.816689
0.881331
0.820674
0.809285
0.800119
0.82837
0.810468
0.838827
0.808789
0.806932
0.812097
0.816493
0.829872
0.813601
0.822487
0.832481
0.814141
0.699663
0.690759
0.812984
0.817691
0.803791
0.813064
0.514008
0.854845
0.799746
0.806216
0.813877
0.813424
0.803951
0.812419
0.800459
0.801192
0.808007
0.814692
0.756865
0.78462
0.822891
0.842654
0.834772
0.800241
0.80504
0.80335
0.812897
0.805685
0.799507
0.799776
0.800995
0.810872
0.797796
0.802731
0.835451
0.831296
0.729802
0.666014
0.807565
0.698555
0.799478
0.572168
0.804399
0.806915
0.803087
0.818109
0.833745
0.813864
0.812795
0.810252
0.803836
0.8815
0.81621
0.80478
0.772238
0.585857
0.810226
0.806603
0.769342
0.814355
0.813813
0.791455
0.800692
0.804022
0.624542
0.830407
0.803496
0.781466
0.779287
0.85268
0.809976
0.802864
0.802584
0.810179
0.811045
0.518647
0.80177
0.839451
0.813863
0.798558
0.588713
0.814506
0.814008
0.812884
0.833686
0.813855
0.803918
0.821839
0.805567
0.575759
0.808617
0.736501
0.798492
0.813571
0.722176
0.814865
0.845961
0.831581
0.664469
0.890885
0.78557
0.777389
0.796859
0.779507
0.808595
0.849934
0.807956
0.802856
0.813484
0.808803
0.782595
0.785909
0.813819
0.808296
0.83481
0.821219
0.835644
0.80125
0.799642
0.81298
0.856581
0.81641
0.818322
0.81328
0.607318
0.795509
0.823839
0.829306
0.86587
0.812537
0.818895
0.508678
0.809683
0.800576
0.812544
0.814701
0.847549
0.812984
0.811073
0.881478
0.764517
0.812529
0.81317
0.808965
0.805199
0.814163
0.655889
0.800487
0.849493
0.833476
0.810564
0.813502
0.8133
0.809552
0.698935
0.812437
0.80015
0.838526
0.818416
0.811568
0.831279
0.792683
0.811491
0.817755
0.808774
0.819231
0.74423
0.854708
0.818906
0.813743
0.812987
0.812635
0.815655
0.817096
0.812681
0.810727
0.841034
0.818535
0.800139
0.825247
0.826899
0.816002
0.814436
0.800349
0.801498
0.812977
0.818966
0.829369
0.812727
0.816396
0.799812
0.8099
0.812764
0.81273
0.80249
0.814599
0.81326
0.803229
0.812788
0.835611
0.800012
0.809372
0.82149
0.559944
0.814147
0.818105
0.815457
0.814945
0.82191
0.828775
0.815558
0.818776
0.701417
0.812988
0.801321
0.815552
0.818958
0.835027
0.821507
0.815499
0.829319
0.824885
0.810605
0.819164
0.81949
0.804169
0.813086
0.815539
0.819417
0.832063
0.812559
0.815633
0.80271
0.812861
0.81298
0.522576
0.627626
0.814328
0.821382
0.801717
0.822413
0.815842
0.841826
0.708099
0.813676
0.730438
0.817346
0.810253
0.81309
0.829301
0.813586
0.804847
0.812847
0.830035
0.839267
0.812726
0.719174
0.819227
0.815967
0.799906
0.803024
0.815244
0.855892
0.812576
0.813302
0.84966
0.828954
0.84323
0.573407
0.829057
0.813875
0.810834
0.817337
0.850479
0.817701
0.718378
0.799528
0.831713
0.799758
0.799716
0.805379
0.747814
0.813326
0.814278
0.725408
0.81429
0.827293
0.813246
0.813965
0.799208
0.818314
0.812912
0.823506
0.808686
0.808147
0.814908
0.705349
0.819013
0.814013
0.812896
0.639867
0.718726
0.599345
0.823227
0.52958
0.853785
0.727307
0.842758
0.812455
0.722704
0.821367
0.815818
0.742534
0.807644
0.81829
0.794397
0.816459
0.815797
0.815726
0.812913
0.807825
0.803655
0.737276
0.836101
0.820107
0.816544
0.799214
0.815387
0.801985
0.815941
0.813389
0.854579
0.817709
0.497011
0.813238
0.818726
0.818599
0.778038
0.815699
0.806711
0.818531
0.84532
0.596402
0.809084
0.799291
0.815253
0.817556
0.817626
0.812379
0.818536
0.813791
0.814515
0.803066
0.814212
0.846068
0.813866
0.791991
0.811422
0.622507
0.718723
0.81299
0.816929
0.802924
0.822241
0.735442
0.803147
0.803182
0.820143
0.625395
0.81753
0.799339
0.815347
0.864628
0.785475
0.821886
0.817911
0.822738
0.813949
0.76958
0.802418
0.813494
0.902284
0.827121
0.81636
0.832166
0.809536
0.868166
0.719366
0.687771
0.8523
0.802697
0.663196
0.850263
0.786034
0.83195