# vtk DataFile Version 1.0
unstructured grid
ascii
DATASET UNSTRUCTURED_GRID
points 7812 float
-1 0 0
-1 1 0
2 0 0
2 1 0
0 0 0
1 0 0
-1 1 0.1
-1 0 0.1
0 0 0.1
1 0 0.1
2 0 0.1
2 1 0.1
-0.99 0 0
-0.98 0 0
-0.97 0 0
-0.96 0 0
-0.95 0 0
-0.94 0 0
-0.93 0 0
-0.92 0 0
-0.91 0 0
-0.9 0 0
-0.89 0 0
-0.88 0 0
-0.87 0 0
-0.86 0 0
-0.85 0 0
-0.84 0 0
-0.83 0 0
-0.82 0 0
-0.81 0 0
-0.8 0 0
-0.79 0 0
-0.78 0 0
-0.77 0 0
-0.76 0 0
-0.75 0 0
-0.74 0 0
-0.73 0 0
-0.72 0 0
-0.71 0 0
-0.7 0 0
-0.69 0 0
-0.68 0 0
-0.67 0 0
-0.66 0 0
-0.65 0 0
-0.64 0 0
-0.63 0 0
-0.62 0 0
-0.61 0 0
-0.6 0 0
-0.59 0 0
-0.58 0 0
-0.57 0 0
-0.56 0 0
-0.55 0 0
-0.54 0 0
-0.53 0 0
-0.52 0 0
-0.51 0 0
-0.5 0 0
-0.49 0 0
-0.48 0 0
-0.47 0 0
-0.46 0 0
-0.45 0 0
-0.44 0 0
-0.43 0 0
-0.42 0 0
-0.41 0 0
-0.4 0 0
-0.39 0 0
-0.38 0 0
-0.37 0 0
-0.36 0 0
-0.35 0 0
-0.34 0 0
-0.33 0 0
-0.32 0 0
-0.31 0 0
-0.3 0 0
-0.29 0 0
-0.28 0 0
-0.27 0 0
-0.26 0 0
-0.25 0 0
-0.24 0 0
-0.23 0 0
-0.22 0 0
-0.21 0 0
-0.2 0 0
-0.19 0 0
-0.18 0 0
-0.17 0 0
-0.16 0 0
-0.15 0 0
-0.14 0 0
-0.13 0 0
-0.12 0 0
-0.11 0 0
-0.1 0 0
-0.09 0 0
-0.08 0 0
-0.07 0 0
-0.06 0 0
-0.05 0 0
-0.04 0 0
-0.03 0 0
-0.02 0 0
-0.01 0 0
1.01 0 0
1.02 0 0
1.03 0 0
1.04 0 0
1.05 0 0
1.06 0 0
1.07 0 0
1.08 0 0
1.09 0 0
1.1 0 0
1.11 0 0
1.12 0 0
1.13 0 0
1.14 0 0
1.15 0 0
1.16 0 0
1.17 0 0
1.18 0 0
1.19 0 0
1.2 0 0
1.21 0 0
1.22 0 0
1.23 0 0
1.24 0 0
1.25 0 0
1.26 0 0
1.27 0 0
1.28 0 0
1.29 0 0
1.3 0 0
1.31 0 0
1.32 0 0
1.33 0 0
1.34 0 0
1.35 0 0
1.36 0 0
1.37 0 0
1.38 0 0
1.39 0 0
1.4 0 0
1.41 0 0
1.42 0 0
1.43 0 0
1.44 0 0
1.45 0 0
1.46 0 0
1.47 0 0
1.48 0 0
1.49 0 0
1.5 0 0
1.51 0 0
1.52 0 0
1.53 0 0
1.54 0 0
1.55 0 0
1.56 0 0
1.57 0 0
1.58 0 0
1.59 0 0
1.6 0 0
1.61 0 0
1.62 0 0
1.63 0 0
1.64 0 0
1.65 0 0
1.66 0 0
1.67 0 0
1.68 0 0
1.69 0 0
1.7 0 0
1.71 0 0
1.72 0 0
1.73 0 0
1.74 0 0
1.75 0 0
1.76 0 0
1.77 0 0
1.78 0 0
1.79 0 0
1.8 0 0
1.81 0 0
1.82 0 0
1.83 0 0
1.84 0 0
1.85 0 0
1.86 0 0
1.87 0 0
1.88 0 0
1.89 0 0
1.9 0 0
1.91 0 0
1.92 0 0
1.93 0 0
1.94 0 0
1.95 0 0
1.96 0 0
1.97 0 0
1.98 0 0
1.99 0 0
2 0.010289 0
2 0.0215307 0
2 0.0338135 0
2 0.0472336 0
2 0.0618965 0
2 0.0779171 0
2 0.0954213 0
2 0.114546 0
2 0.135442 0
2 0.158274 0
2 0.183219 0
2 0.210474 0
2 0.240253 0
2 0.27279 0
2 0.308339 0
2 0.347181 0
2 0.389619 0
2 0.435987 0
2 0.486649 0
2 0.542002 0
2 0.602481 0
2 0.66856 0
2 0.740758 0
2 0.819642 0
2 0.90583 0
1.9 1 0
1.8 1 0
1.7 1 0
1.6 1 0
1.5 1 0
1.4 1 0
1.3 1 0
1.2 1 0
1.1 1 0
1 1 0
0.9 1 0
0.8 1 0
0.7 1 0
0.6 1 0
0.5 1 0
0.4 1 0
0.3 1 0
0.2 1 0
0.1 1 0
3.69793e-12 1 0
-0.1 1 0
-0.2 1 0
-0.3 1 0
-0.4 1 0
-0.5 1 0
-0.6 1 0
-0.7 1 0
-0.8 1 0
-0.9 1 0
-1 0.90583 0
-1 0.819642 0
-1 0.740758 0
-1 0.66856 0
-1 0.602481 0
-1 0.542002 0
-1 0.486649 0
-1 0.435987 0
-1 0.389619 0
-1 0.347181 0
-1 0.308339 0
-1 0.27279 0
-1 0.240253 0
-1 0.210474 0
-1 0.183219 0
-1 0.158274 0
-1 0.135442 0
-1 0.114546 0
-1 0.0954213 0
-1 0.0779171 0
-1 0.0618965 0
-1 0.0472336 0
-1 0.0338135 0
-1 0.0215307 0
-1 0.010289 0
0.00921362 0.00379763 0
0.0184561 0.00752451 0
0.0277268 0.0111804 0
0.0370253 0.0147652 0
0.0463511 0.0182786 0
0.0557034 0.0217203 0
0.0650819 0.0250903 0
0.074486 0.0283883 0
0.083915 0.0316141 0
0.0933685 0.0347675 0
0.102846 0.0378484 0
0.112347 0.0408565 0
0.12187 0.0437917 0
0.131416 0.0466538 0
0.140983 0.0494427 0
0.150572 0.0521581 0
0.160181 0.0547999 0
0.16981 0.0573681 0
0.179458 0.0598623 0
0.189125 0.0622825 0
0.198811 0.0646285 0
0.208514 0.0669001 0
0.218234 0.0690974 0
0.227971 0.07122 0
0.237724 0.073268 0
0.247493 0.0752411 0
0.257276 0.0771393 0
0.267073 0.0789625 0
0.276884 0.0807105 0
0.286708 0.0823832 0
0.296545 0.0839806 0
0.306394 0.0855025 0
0.316254 0.0869488 0
0.326125 0.0883196 0
0.336006 0.0896146 0
0.345896 0.0908339 0
0.355796 0.0919773 0
0.365704 0.0930447 0
0.375621 0.0940362 0
0.385544 0.0949517 0
0.395474 0.095791 0
0.40541 0.0965542 0
0.415352 0.0972412 0
0.425299 0.097852 0
0.43525 0.0983865 0
0.445205 0.0988447 0
0.455164 0.0992266 0
0.465125 0.0995321 0
0.475088 0.0997613 0
0.485052 0.0999141 0
0.495017 0.0999904 0
0.504983 0.0999904 0
0.514948 0.0999141 0
0.524912 0.0997613 0
0.534875 0.0995321 0
0.544836 0.0992266 0
0.554795 0.0988447 0
0.56475 0.0983865 0
0.574701 0.097852 0
0.584648 0.0972412 0
0.59459 0.0965542 0
0.604526 0.095791 0
0.614456 0.0949517 0
0.624379 0.0940362 0
0.634296 0.0930447 0
0.644204 0.0919773 0
0.654104 0.0908339 0
0.663994 0.0896146 0
0.673875 0.0883196 0
0.683746 0.0869488 0
0.693606 0.0855025 0
0.703455 0.0839806 0
0.713292 0.0823832 0
0.723116 0.0807105 0
0.732927 0.0789625 0
0.742724 0.0771393 0
0.752508 0.0752411 0
0.762276 0.073268 0
0.772029 0.07122 0
0.781766 0.0690974 0
0.791486 0.0669001 0
0.801189 0.0646285 0
0.810875 0.0622825 0
0.820542 0.0598623 0
0.83019 0.0573681 0
0.839819 0.0547999 0
0.849428 0.0521581 0
0.859017 0.0494427 0
0.868584 0.0466538 0
0.87813 0.0437917 0
0.887653 0.0408565 0
0.897154 0.0378484 0
0.906631 0.0347675 0
0.916085 0.0316141 0
0.925514 0.0283883 0
0.934918 0.0250903 0
0.944297 0.0217203 0
0.953649 0.0182786 0
0.962975 0.0147652 0
0.972273 0.0111804 0
0.981544 0.00752451 0
0.990786 0.00379763 0
-1 0.90583 0.1
-1 0.819642 0.1
-1 0.740758 0.1
-1 0.66856 0.1
-1 0.602481 0.1
-1 0.542002 0.1
-1 0.486649 0.1
-1 0.435987 0.1
-1 0.389619 0.1
-1 0.347181 0.1
-1 0.308339 0.1
-1 0.27279 0.1
-1 0.240253 0.1
-1 0.210474 0.1
-1 0.183219 0.1
-1 0.158274 0.1
-1 0.135442 0.1
-1 0.114546 0.1
-1 0.0954213 0.1
-1 0.0779171 0.1
-1 0.0618965 0.1
-1 0.0472336 0.1
-1 0.0338135 0.1
-1 0.0215307 0.1
-1 0.010289 0.1
-0.99 0 0.1
-0.98 0 0.1
-0.97 0 0.1
-0.96 0 0.1
-0.95 0 0.1
-0.94 0 0.1
-0.93 0 0.1
-0.92 0 0.1
-0.91 0 0.1
-0.9 0 0.1
-0.89 0 0.1
-0.88 0 0.1
-0.87 0 0.1
-0.86 0 0.1
-0.85 0 0.1
-0.84 0 0.1
-0.83 0 0.1
-0.82 0 0.1
-0.81 0 0.1
-0.8 0 0.1
-0.79 0 0.1
-0.78 0 0.1
-0.77 0 0.1
-0.76 0 0.1
-0.75 0 0.1
-0.74 0 0.1
-0.73 0 0.1
-0.72 0 0.1
-0.71 0 0.1
-0.7 0 0.1
-0.69 0 0.1
-0.68 0 0.1
-0.67 0 0.1
-0.66 0 0.1
-0.65 0 0.1
-0.64 0 0.1
-0.63 0 0.1
-0.62 0 0.1
-0.61 0 0.1
-0.6 0 0.1
-0.59 0 0.1
-0.58 0 0.1
-0.57 0 0.1
-0.56 0 0.1
-0.55 0 0.1
-0.54 0 0.1
-0.53 0 0.1
-0.52 0 0.1
-0.51 0 0.1
-0.5 0 0.1
-0.49 0 0.1
-0.48 0 0.1
-0.47 0 0.1
-0.46 0 0.1
-0.45 0 0.1
-0.44 0 0.1
-0.43 0 0.1
-0.42 0 0.1
-0.41 0 0.1
-0.4 0 0.1
-0.39 0 0.1
-0.38 0 0.1
-0.37 0 0.1
-0.36 0 0.1
-0.35 0 0.1
-0.34 0 0.1
-0.33 0 0.1
-0.32 0 0.1
-0.31 0 0.1
-0.3 0 0.1
-0.29 0 0.1
-0.28 0 0.1
-0.27 0 0.1
-0.26 0 0.1
-0.25 0 0.1
-0.24 0 0.1
-0.23 0 0.1
-0.22 0 0.1
-0.21 0 0.1
-0.2 0 0.1
-0.19 0 0.1
-0.18 0 0.1
-0.17 0 0.1
-0.16 0 0.1
-0.15 0 0.1
-0.14 0 0.1
-0.13 0 0.1
-0.12 0 0.1
-0.11 0 0.1
-0.1 0 0.1
-0.09 0 0.1
-0.08 0 0.1
-0.07 0 0.1
-0.06 0 0.1
-0.05 0 0.1
-0.04 0 0.1
-0.03 0 0.1
-0.02 0 0.1
-0.01 0 0.1
0.00921362 0.00379763 0.1
0.0184561 0.00752451 0.1
0.0277268 0.0111804 0.1
0.0370253 0.0147652 0.1
0.0463511 0.0182786 0.1
0.0557034 0.0217203 0.1
0.0650819 0.0250903 0.1
0.074486 0.0283883 0.1
0.083915 0.0316141 0.1
0.0933685 0.0347675 0.1
0.102846 0.0378484 0.1
0.112347 0.0408565 0.1
0.12187 0.0437917 0.1
0.131416 0.0466538 0.1
0.140983 0.0494427 0.1
0.150572 0.0521581 0.1
0.160181 0.0547999 0.1
0.16981 0.0573681 0.1
0.179458 0.0598623 0.1
0.189125 0.0622825 0.1
0.198811 0.0646285 0.1
0.208514 0.0669001 0.1
0.218234 0.0690974 0.1
0.227971 0.07122 0.1
0.237724 0.073268 0.1
0.247493 0.0752411 0.1
0.257276 0.0771393 0.1
0.267073 0.0789625 0.1
0.276884 0.0807105 0.1
0.286708 0.0823832 0.1
0.296545 0.0839806 0.1
0.306394 0.0855025 0.1
0.316254 0.0869488 0.1
0.326125 0.0883196 0.1
0.336006 0.0896146 0.1
0.345896 0.0908339 0.1
0.355796 0.0919773 0.1
0.365704 0.0930447 0.1
0.375621 0.0940362 0.1
0.385544 0.0949517 0.1
0.395474 0.095791 0.1
0.40541 0.0965542 0.1
0.415352 0.0972412 0.1
0.425299 0.097852 0.1
0.43525 0.0983865 0.1
0.445205 0.0988447 0.1
0.455164 0.0992266 0.1
0.465125 0.0995321 0.1
0.475088 0.0997613 0.1
0.485052 0.0999141 0.1
0.495017 0.0999904 0.1
0.504983 0.0999904 0.1
0.514948 0.0999141 0.1
0.524912 0.0997613 0.1
0.534875 0.0995321 0.1
0.544836 0.0992266 0.1
0.554795 0.0988447 0.1
0.56475 0.0983865 0.1
0.574701 0.097852 0.1
0.584648 0.0972412 0.1
0.59459 0.0965542 0.1
0.604526 0.095791 0.1
0.614456 0.0949517 0.1
0.624379 0.0940362 0.1
0.634296 0.0930447 0.1
0.644204 0.0919773 0.1
0.654104 0.0908339 0.1
0.663994 0.0896146 0.1
0.673875 0.0883196 0.1
0.683746 0.0869488 0.1
0.693606 0.0855025 0.1
0.703455 0.0839806 0.1
0.713292 0.0823832 0.1
0.723116 0.0807105 0.1
0.732927 0.0789625 0.1
0.742724 0.0771393 0.1
0.752508 0.0752411 0.1
0.762276 0.073268 0.1
0.772029 0.07122 0.1
0.781766 0.0690974 0.1
0.791486 0.0669001 0.1
0.801189 0.0646285 0.1
0.810875 0.0622825 0.1
0.820542 0.0598623 0.1
0.83019 0.0573681 0.1
0.839819 0.0547999 0.1
0.849428 0.0521581 0.1
0.859017 0.0494427 0.1
0.868584 0.0466538 0.1
0.87813 0.0437917 0.1
0.887653 0.0408565 0.1
0.897154 0.0378484 0.1
0.906631 0.0347675 0.1
0.916085 0.0316141 0.1
0.925514 0.0283883 0.1
0.934918 0.0250903 0.1
0.944297 0.0217203 0.1
0.953649 0.0182786 0.1
0.962975 0.0147652 0.1
0.972273 0.0111804 0.1
0.981544 0.00752451 0.1
0.990786 0.00379763 0.1
1.01 0 0.1
1.02 0 0.1
1.03 0 0.1
1.04 0 0.1
1.05 0 0.1
1.06 0 0.1
1.07 0 0.1
1.08 0 0.1
1.09 0 0.1
1.1 0 0.1
1.11 0 0.1
1.12 0 0.1
1.13 0 0.1
1.14 0 0.1
1.15 0 0.1
1.16 0 0.1
1.17 0 0.1
1.18 0 0.1
1.19 0 0.1
1.2 0 0.1
1.21 0 0.1
1.22 0 0.1
1.23 0 0.1
1.24 0 0.1
1.25 0 0.1
1.26 0 0.1
1.27 0 0.1
1.28 0 0.1
1.29 0 0.1
1.3 0 0.1
1.31 0 0.1
1.32 0 0.1
1.33 0 0.1
1.34 0 0.1
1.35 0 0.1
1.36 0 0.1
1.37 0 0.1
1.38 0 0.1
1.39 0 0.1
1.4 0 0.1
1.41 0 0.1
1.42 0 0.1
1.43 0 0.1
1.44 0 0.1
1.45 0 0.1
1.46 0 0.1
1.47 0 0.1
1.48 0 0.1
1.49 0 0.1
1.5 0 0.1
1.51 0 0.1
1.52 0 0.1
1.53 0 0.1
1.54 0 0.1
1.55 0 0.1
1.56 0 0.1
1.57 0 0.1
1.58 0 0.1
1.59 0 0.1
1.6 0 0.1
1.61 0 0.1
1.62 0 0.1
1.63 0 0.1
1.64 0 0.1
1.65 0 0.1
1.66 0 0.1
1.67 0 0.1
1.68 0 0.1
1.69 0 0.1
1.7 0 0.1
1.71 0 0.1
1.72 0 0.1
1.73 0 0.1
1.74 0 0.1
1.75 0 0.1
1.76 0 0.1
1.77 0 0.1
1.78 0 0.1
1.79 0 0.1
1.8 0 0.1
1.81 0 0.1
1.82 0 0.1
1.83 0 0.1
1.84 0 0.1
1.85 0 0.1
1.86 0 0.1
1.87 0 0.1
1.88 0 0.1
[...]
CELL_DATA 7425
SCALARS rho float
LOOKUP_TABLE default
0.587621
0.805056
0.819672
0.827618
0.799553
0.819265
0.820998
0.814274
0.813141
0.738784
0.863537
0.810076
0.81404
0.827475
0.803828
0.817277
0.798879
0.813418
0.803486
0.767338
0.831369
0.822084
0.724948
0.828148
0.803892
0.703434
0.831298
0.848459
0.800186
0.808004
0.819458
0.725334
0.803632
0.652467
0.520127
0.828115
0.803521
0.814252
0.811186
0.8281
0.716318
0.703784
0.790082
0.701356
0.587018
0.748332
0.799426
0.813974
0.662842
0.71913
0.746342
0.805172
0.812387
0.799202
0.709454
0.646961
0.823023
0.800182
0.738656
0.701132
0.709993
0.80768
0.813388
0.7995
0.798797
0.817732
0.584796
0.773402
0.70411
0.807927
0.804264
0.803212
0.883436
0.821157
0.810881
0.8132
0.805069
0.80046
0.813394
0.757827
0.816109
0.80726
0.810436
0.788789
0.835972
0.801205
0.574873
0.830044
0.54315
0.848549
0.70558
0.729899
0.845419
0.803194
0.817522
0.758436
0.836143
0.788071
0.825731
0.802602
0.808222
0.738631
0.803301
0.828332
0.597604
0.811111
0.824472
0.707735
0.815131
0.799296
0.816833
0.78461
0.789907
0.812454
0.789814
0.786372
0.831347
0.803114
0.69955
0.633345
0.805067
0.777381
0.813105
0.790452
0.858997
0.839013
0.807718
0.804366
0.661473
0.50495
0.814611
0.655423
0.515957
0.867923
0.663287
0.799647
0.811133
0.723753
0.582435
0.725154
0.723577
0.809697
0.809795
0.706942
0.803234
0.779669
0.565891
0.788654
0.782549
0.827867
0.816852
0.704543
0.803019
0.744311
0.70485
0.803291
0.810477
0.830505
0.797662
0.65281
0.802556
0.702635
0.801213
0.829839
0.820572
0.802395
0.813221
0.784921
0.806302
0.800771
0.819825
0.804605
0.791317
0.799259
0.799975
0.74039
0.803811
0.758939
0.594683
0.704887
0.799803
0.792825
0.879831
0.831928
0.625615
0.823036
0.798767
0.827467
0.799991
0.813555
0.812774
0.803211
0.806969
0.70421
0.815146
0.819369
0.770179
0.797256
0.861355
0.807794
0.811895
0.811326
0.613225
0.839067
0.573461
0.532581
0.595865
0.601503
0.828248
0.879367
0.807547
0.798675
0.84144
0.813131
0.816806
0.82088
0.815336
0.638294
0.551607
0.813872
0.54622
0.593125
0.703055
0.811827
0.814204
0.813201
0.833223
0.813077
0.864417
0.709489
0.835297
0.713127
0.805196
0.803939
0.801999
0.714134
0.720806
0.619796
0.704851
0.863673
0.875637
0.806374
0.807718
0.798983
0.811607
0.716284
0.821719
0.80032
0.825794
0.794661
0.810006
0.721343
0.812976
0.823843
0.740064
0.529085
0.79996
0.736374
0.843373
0.814481
0.726448
0.815709
0.814977
0.850003
0.809658
0.804006
0.803268
0.825755
0.860817
0.805565
0.619546
0.848953
0.812123
0.805623
0.827639
0.837403
0.813143
0.821538
0.793543
0.815208
0.866827
0.849998
0.827434
0.836823
0.802712
0.817285
0.803201
0.759777
0.701662
0.581321
0.700324
0.802462
0.813052
0.816116
0.854895
0.779718
0.646024
0.827181
0.521684
0.774397
0.801087
0.646686
0.497104
0.639386
0.815332
0.81339
0.813129
0.812869
0.826816
0.774483
0.811501
0.802685
0.813073
0.840789
0.86732
0.833643
0.80279
0.70501
0.795998
0.834352
0.691825
0.798873
0.802079
0.864832
0.817226
0.593417
0.813543
0.740782
0.85248
0.732226
0.810258
0.907674
0.799998
0.79576
0.659248
0.635862
0.711267
0.780743
0.826639
0.81507
0.81384
0.882675
0.858369
0.799666
0.799255
0.826069
0.739443
0.80256
0.879426
0.801395
0.804836
0.80082
0.802585
0.81312
0.815852
0.8165
0.636638
0.830086
0.646308
0.808538
0.639749
0.802736
0.802262
0.840324
0.729037
0.816377
0.808697
0.817106
0.799612
0.802513
0.811291
0.697407
0.824507
0.813218
0.813083
0.800697
0.736851
0.560379
0.806436
0.81118
0.803203
0.81306
0.794833
0.504971
0.846125
0.813467
0.803865
0.785832
0.813416
0.804755
0.803124
0.816367
0.807532
0.822617
0.768714
0.812741
0.807798
0.563115
0.803245
0.640396
0.838819
0.636524
0.814832
0.877941
0.594106
0.818138
0.749115
0.804434
0.873381
0.534525
0.823227
0.822368
0.803512
0.82584
0.811128
0.823564
0.83073
0.824937
0.739981
0.827619
0.761647
0.8103
0.794278
0.793734
0.758737
0.805627
0.802099
0.814587
0.752476
0.804772
0.604816
0.614592
0.689543
0.812967
0.844268
0.864891
0.829965
0.798714
0.81281
0.804963
0.818623
0.680761
0.801089
0.743102
0.824127
0.814929
0.805533
0.71125
0.727437
0.534311
0.605939
0.8014
0.6117
0.792712
0.765439
0.770149
0.726905
0.762604
0.767685
0.809589
0.815069
0.819668
0.811627
0.710878
0.603269
0.839109
0.807058
0.783206
0.809974
0.802624
0.836642
0.718634
0.855347
0.763726
0.728737
0.764685
0.811644
0.545629
0.798956
0.841694
0.813386
0.813933
0.809864
0.799301
0.780459
0.83577
0.803123
0.84305
0.72124
0.70713
0.800419
0.79526
0.82213
0.709005
0.848032
0.800559
0.816181
0.798855
0.77924
0.808401
0.594997
0.67769
0.632701
0.813079
0.803905
0.826454
0.749395
0.81062
0.814937
0.820508
0.799108
0.72969
0.797015
0.814438
0.803213
0.703788
0.813743
0.819022
0.840098
0.81094
0.825441
0.86234
0.857326
0.744162
0.60378
0.838095
0.805888
0.843442
0.814371
0.822991
0.813675
0.813951
0.636717
0.805325
0.809422
0.812992
0.792006
0.81068
0.804886
0.860755
0.798796
0.812907
0.814854
0.871969
0.598007
0.813611
0.842612
0.883353
0.53109
0.816534
0.830053
0.796178
0.814779
0.795062
0.867649
0.812296
0.831444
0.812857
0.61969
0.802428
0.80417
0.691381
0.853195
0.759741
0.801845
0.814123
0.812874
0.859933
0.795387
0.833689
0.83481
0.784449
0.825256
0.842538
0.799872
0.810629
0.807094
0.805339
0.814966
0.80265
0.845295
0.769334
0.809808
0.803195
0.815308
0.72339
0.813064
0.818478
0.752746
0.813738
0.816456
0.827717
0.825222
0.80084
0.800749
0.850557
0.767899
0.82528
0.84428
0.804578
0.506563
0.813064
0.82838
0.852443
0.812781
0.803159
0.808568
0.855103
0.780083
0.802604
0.801344
0.813106
0.727559
0.802814
0.830079
0.808156
0.795013
0.79366
0.843278
0.80663
0.845379
0.802034
0.824359
0.812918
0.804238
0.841917
0.813033
0.67988
0.818903
0.807124
0.81299
0.906166
0.800891
0.816007
0.800562
0.800496
0.816339
0.8006
0.803388
0.783727
0.747405
0.806648
0.813068
0.758173
0.791549
0.823134
0.813044
0.822372
0.806386
0.82588
0.875346
0.830746
0.575821
0.708998
0.840836
0.817419
0.844231
0.814903
0.850167
0.807476
0.812494
0.799477
0.838492
0.860992
0.85286
0.731777
0.814239
0.822288
0.743869
0.817254
0.776035
0.800312
0.733302
0.816201
0.830963
0.82351
0.862091
0.814362
0.81346
0.810334
0.814786
0.835872
0.81223
0.798797
0.810259
0.7378
0.811517
0.774155
0.832926
0.812911
0.639092
0.777705
0.811272
0.79931
0.81995
0.80261
0.814819
0.817431
0.80455
0.81952
0.804184
0.805995
0.597968
0.847119
0.825239
0.82681
0.815065
0.803239
0.702056
0.806623
0.907856
0.813738
0.801176
0.813042
0.782349
0.807403
0.813436
0.821406
0.814671
0.813391
0.816377
0.700689
0.777999
0.764769
0.812828
0.805396
0.801171
0.621673
0.805857
0.802758
0.708486
0.83731
0.817332
0.802291
0.807582
0.799514
0.81738
0.814035
0.813452
0.813053
0.709875
0.831783
0.800317
0.807559
0.842933
0.817762
0.81643
0.800299
0.753722
0.823941
0.787562
0.821553
0.789468
0.805787
0.821074
0.737574
0.817519
0.65155
0.872079
0.704568
0.845085
0.800949
0.8752
0.793824
0.801742
0.820793
0.836344
0.83847
0.825572
0.819953
0.814849
0.801262
0.804215
0.808301
0.72619
0.827295
0.800107
0.719524
0.830623
0.704334
0.800145
0.860631
0.80561
0.702071
0.797888
0.814241
0.70459
0.785663
0.819509
0.83194
0.807114
0.576788
0.729051
0.81242
0.801474
0.8131
0.800792
0.737392
0.814165
0.815859
0.812667
0.775486
0.803281
0.80452
0.803723
0.560879
0.81289
0.834162
0.580493
0.815311
0.816243
0.814846
0.818491
0.814571
0.82465
0.799226
0.795156
0.771013
0.822954
0.829719
0.82516
0.835052
0.765495
0.809163
0.724853
0.772429
0.808941
0.821195
0.813448
0.800992
0.858533
0.813104
0.800479
0.809758
0.816233
0.815334
0.836721
0.814645
0.81298
0.812006
0.813976
0.800289
0.821115
0.803794
0.822946
0.813629
0.576204
0.813676
0.834558
0.858307
0.838252
0.491823
0.816944
0.804634
0.497476
0.66987
0.644213
0.834382
0.808078
0.811676
0.812967
0.803213
0.816886
0.811029
0.535198
0.68701
0.818288
0.806649
0.815756
0.803526
0.810275
0.811079
0.820356
0.799628
0.692876
0.856155
0.80316
0.81475
0.81378
0.757919
0.486782
0.832991
0.813622
0.74188
0.802711
0.806347
0.591791
0.82761
0.814926
0.827827
0.81891
0.826134
0.804753
0.719909
0.643833
0.562502
0.825428
0.808667
0.782967
0.813143
0.779949
0.818022
0.873358
0.762503
0.82173
0.813677
0.825946
0.883605
0.814592
0.811999
0.803292
0.813891
0.692098
0.828313
0.799989
0.810314
0.802246
0.784304
0.854231
0.822158
0.84055
0.821644
0.757557
0.756008
0.803454
0.818228
0.803076
0.805266
0.802617
0.775813
0.814831
0.76174
0.821303
0.662325
0.814126
0.802988
0.735525
0.823334
0.818088
0.74015
0.801191
0.75737
0.880939
0.800741
0.813018
0.762838
0.800231
0.814425
0.803969
0.590269
0.821026
0.798768
0.801492
0.814676
0.825716
0.757311
0.805662
0.841813
0.827091
0.814156
0.83593
0.699628
0.700356
0.813101
0.744316
0.822336
0.771497
0.81301
0.802547
0.810502
0.752107
0.794233
0.764496
0.810043
0.803153
0.63147
0.779117
0.799259
0.849207
0.814519
0.828755
0.527205
0.825377
0.78523
0.8588
0.800961
0.818052
0.800424
0.785911
0.79888
0.825813
0.835834
0.821848
0.81725
0.706684
0.773985
0.815484
0.805402
0.810149
0.803926
0.70625
0.792944
0.803549
0.810795
0.827311
0.851269
0.831949
0.813627
0.799565
0.804338
0.802119
0.779714
0.611962
0.800467
0.731574
0.662194
0.822915
0.798971
0.777264
0.800102
0.754306
0.785347
0.811634
0.822316
0.80346
0.816145
0.817459
0.820743
0.813552
0.808579
0.712334
0.69961
0.641169
0.829381
0.869619
0.81545
0.841441
0.847909
0.863788
0.736021
0.8167
0.863067
0.810313
0.81305
0.816296
0.733012
0.812565
0.806801
0.806334
0.517986
0.813137
0.761302
0.813321
0.813817
0.803558
0.705212
0.813361
0.610955
0.825109
0.802383
0.822319
0.855231
0.803449
0.795407
0.821053
0.811732
0.805768
0.76237
0.510732
0.821015
0.803108
0.829079
0.825869
0.802244
0.807047
0.834546
0.721067
0.501347
0.886298
0.800709
0.815829
0.804341
0.710214
0.798764
0.800131
0.815208
0.736404
0.64677
0.883285
0.714371
0.836638
0.812144
0.832983
0.842742
0.792323
0.804764
0.81375
0.852837
0.738473
0.870748
0.814169
0.563225
0.802594
0.748846
0.852981
0.760473
0.804236
0.803971
0.799747
0.801641
0.809034
0.813082
0.855762
0.806118
0.802877
0.801325
0.800121
0.812416
0.817007
0.802631
0.812661
0.84928
0.803106
0.783575
0.802258
0.839767
0.725437
0.813785
0.813977
0.641338
0.713319
0.805576
0.823131
0.803696
0.512527
0.856539
0.813362
0.833161
0.805326
0.803327
0.801386
0.786376
0.587503
0.804322
0.816238
0.836042
0.820685
0.813121
0.798304
0.747188
0.801595
0.76598
0.787588
0.799458
0.791005
0.751136
0.800945
0.8116
0.810525
0.832277
0.849272
0.553823
0.841985
0.81302
0.820877
0.802099
0.822698
0.811252
0.894645
0.800333
0.86734
0.805713
0.759946
0.862172
0.802299
0.800262
0.824264
0.660666
0.645557
0.803411
0.803877
0.703876
0.654564
0.799919
0.823961
0.813198
0.822702
0.733209
0.81728
0.813006
0.826238
0.817061
0.811967
0.81304
0.754726
0.80402
0.815814
0.811506
0.67645
0.56687
0.813077
0.650255
0.722096
0.555586
0.841477
0.800237
0.527835
0.601116
0.827591
0.908088
0.818273
0.652584
0.814306
0.786556
0.801819
0.786496
0.820797
0.810224
0.788335
0.821167
0.801142
0.588107
0.817952
0.76682
0.816061
0.700473
0.822334
0.789765
0.8141
0.800177
0.663129
0.843575
0.806648
0.806749
0.494523
0.816964
0.800488
0.852364
0.71114
0.817217
0.58505
0.719361
0.801501
0.796777
0.733087
0.715817
0.715637
0.507894
0.591468
0.80012
0.518422
0.822713
0.52155
0.757329
0.671732
0.600797
0.541416
0.745583
0.803091
0.714756
0.821413
0.801011
0.80302
0.761328
0.889713
0.799175
0.824589
0.803453
0.812962
0.706157
0.807688
0.736858
0.822025
0.886076
0.833654
0.747884
0.8229
0.770629
0.879939
0.804215
0.758799
0.850755
0.776992
0.799945
0.805429
0.758368
0.744896
0.666554
0.805004
0.803034
0.81803
0.833581
0.611769
0.808051
0.538769
0.668828
0.61715
0.818661
0.821158
0.809148
0.803994
0.615972
0.872501
0.802689
0.802955
0.863574
0.8126
0.772128
0.812337
0.802384
0.81803
0.803153
0.717224
0.803454
0.656039
0.799124
0.804214
0.801585
0.639418
0.811629
0.810398
0.72569
0.817936
0.549687
0.577116
0.804166
0.69669
0.726109
0.572497
0.723881
0.813777
0.706853
0.77306
0.716484
0.812887
0.670449
0.76224
0.806511
0.81075
0.654899
0.801977
0.895186
0.796739
0.816928
0.585886
0.694038
0.801072
0.813115
0.814158
0.851717
0.812807
0.804279
0.803749
0.803354
0.714022
0.717423
0.615968
0.771628
0.533738
0.723681
0.810069
0.814551
0.806256
0.799395
0.53927
0.809212
0.803775
0.554546
0.544039
0.746741
0.803589
0.806297
0.549813
0.798288
0.570034
0.720928
0.608137
0.813617
0.802349
0.597426
0.608623
0.867946
0.810109
0.76554
0.718125
0.622352
0.655579
0.709194
0.816142
0.759907
0.765479
0.624332
0.754033
0.809453
0.815504
0.812626
0.815611
0.865853
0.754868
0.819052
0.803361
0.851343
0.813032
0.802789
0.81324
0.722251
0.813077
0.812123
0.815315
0.811287
0.816021
0.803285
0.818048
0.810524
0.809879
0.817391
0.800134
0.81672
0.819074
0.667719
0.818731
0.868466
0.818291
0.792967
0.64617
0.858641
0.818911
0.824993
0.799665
0.811384
0.757485
0.852612
0.560866
0.727028
0.809885
0.815803
0.803892
0.803376
0.832141
0.80515
0.80528
0.815402
0.780826
0.838635
0.842021
0.815313
0.664564
0.61356
0.815901
0.816747
0.788453
0.849698
0.847324
0.810987
0.813757
0.777888
0.81423
0.817956
0.814255
0.818898
0.813229
0.815958
0.85111
0.816103
0.814633
0.81768
0.817891
0.784952
0.814248
0.804172
0.804265
0.804722
0.818691
0.811652
0.788466
0.753898
0.812824
0.806298
0.808927
0.806398
0.857821
0.80344
0.814135
0.812858
0.805277
0.585944
0.803907
0.812903
0.815151
0.810339
0.812947
0.813452
0.813183
0.810198
0.864438
0.502416
0.812978
0.841733
0.81281
0.802994
0.80846
0.815137
0.839758
0.800564
0.801348
0.812692
0.704744
0.812997
0.808312
0.807484
0.812708
0.813042
0.813183
0.813511
0.512655
0.811903
0.716241
0.885876
0.821161
0.733245
0.672686
0.815497
0.803622
0.818827
0.646756
0.801717
0.813483
0.648235
0.799973
0.804128
0.815574
0.806361
0.856799
0.809869
0.607254
0.800921
0.775154
0.811242
0.889105
0.803386
0.815539
0.819395
0.832269
0.813548
0.822507
0.83642
0.635244
0.80274
0.656032
0.813891
0.813792
0.712249
0.813678
0.804937
0.712926
0.81503
0.701772
0.861129
0.784187
0.814436
0.813053
0.813574
0.668226
0.813799
0.633541
0.800289
0.79241
0.822399
0.815313
0.716296
0.766697
0.83014
0.812903
0.821371
0.822011
0.813585
0.825431
0.799611
0.552523
0.754852
0.759366
0.731201
0.837686
0.822495
0.834397
0.776199
0.802775
0.813183
0.813109
0.813112
0.774727
0.56422
0.803215
0.529363
0.808297
0.824417
0.79982
0.803774
0.813094
0.80604
0.782748
0.732298
0.813535
0.859193
0.813792
0.799402
0.736813
0.809742
0.788768
0.83378
0.504913
0.796008
0.806033
0.798995
0.689938
0.812993
0.810864
0.857283
0.56946
0.80736
0.803281
0.812967
0.613206
0.813238
0.803345
0.803416
0.80304
0.813348
0.813445
0.816226
0.813192
0.717469
0.804523
0.803212
0.813143
0.896188
0.813295
0.774115
0.841256
0.7992
0.803144
0.601676
0.813038
0.803369
0.825797
0.801995
0.866272
0.814919
0.853599
0.800459
0.820738
0.777952
0.55876
0.752893
0.794363
0.804062
0.813956
0.81394
0.555968
0.861826
0.85813
0.768634
0.7577
0.738549
0.812199
0.848558
0.813076
0.813773
0.81311
0.80429
0.726729
0.803515
0.799223
0.764162
0.824354
0.823094
0.861883
0.815768
0.813122
0.526785
0.808907
0.813082
0.800802
0.774086
0.818093
0.803119
0.813021
0.826973
0.798481
0.803663
0.80129
0.815269
0.839184
0.802485
0.799272
0.80162
0.766062
0.819967
0.5675
0.868415
0.803707
0.546213
0.803258
0.803223
0.819689
0.593821
0.606504
0.801648
0.803756
0.800954
0.860772
0.780025
0.81473
0.802951
0.865965
0.80473
0.804467
0.826379
0.816047
0.820234
0.821369
0.82042
0.867515
0.729427
0.852194
0.817304
0.653933
0.802625
0.803199
0.803652
0.821215
0.823591
0.80404
0.801187
0.80016
0.822766
0.80327
0.803625
0.799778
0.824469
0.803987
0.80204
0.806094
0.82794
0.800669
0.801618
0.824398
0.799688
0.815495
0.651535
0.826467
0.84989
0.804928
0.819668
0.803251
0.828823
0.837558
0.80341
0.821565
0.800614
0.807094
0.789581
0.802198
0.803233
0.806373
0.80596
0.804619
0.81864
0.814863
0.811262
0.831478
0.802297
0.802246
0.800013
0.789011
0.83385
0.803168
0.819397
0.81532
0.807155
0.805125
0.802957
0.838963
0.86497
0.799688
0.679161
0.801247
0.842206
0.816695
0.805251
0.804478
0.81974
0.844644
0.603194
0.828902
0.794607
0.850567
0.818824
0.812027
0.813319
0.808342
0.80397
0.812806
0.808783
0.592148
0.848033
0.794663
0.814298
0.854633
0.819371
0.763304
0.808685
0.814567
0.815558
0.802983
0.661948
0.809331
0.863191
0.802667
0.800781
0.775561
0.871247
0.800501
0.877097
0.806766
0.817262
0.820701
0.802352
0.803896
0.812735
0.815986
0.803591
0.813446
0.816836
0.881377
0.820727
0.809312
0.80026
0.828473
0.810498
0.839014
0.808874
0.806957
0.81225
0.816648
0.829967
0.813774
0.822609
0.83257
0.814292
0.700147
0.691579
0.813171
0.817839
0.803936
0.813244
0.515036
0.854909
0.799859
0.80624
0.81404
0.813599
0.803978
0.812602
0.800576
0.801283
0.808121
0.814805
0.757073
0.784741
0.823021
0.842863
0.834859
0.800367
0.805178
0.803367
0.812932
0.805767
0.799636
0.799894
0.801078
0.810972
0.797837
0.802867
0.835554
0.83147
0.730145
0.679813
0.807603
0.699154
0.799618
0.573575
0.804429
0.806983
0.80321
0.818256
0.833923
0.814038
0.812988
0.810284
0.803865
0.881548
0.816366
0.804926
0.772333
0.587054
0.810253
0.806742
0.76945
0.814524
0.813988
0.791504
0.800728
0.804049
0.62662
0.830495
0.803514
0.781637
0.779371
0.85275
0.810002
0.802999
0.802729
0.810317
0.811084
0.519555
0.801847
0.839549
0.814038
0.798602
0.589261
0.814604
0.81418
0.813081
0.833793
0.814029
0.803961
0.821973
0.805717
0.576167
0.808662
0.73678
0.798522
0.81375
0.722352
0.81503
0.846168
0.831642
0.664737
0.890922
0.785634
0.777557
0.796897
0.779544
0.808684
0.850152
0.808089
0.8029
0.813664
0.808972
0.782668
0.785973
0.813989
0.808439
0.834873
0.821345
0.835711
0.801393
0.799751
0.813172
0.856655
0.816534
0.818448
0.813464
0.607647
0.795554
0.823957
0.82939
0.865934
0.812733
0.818994
0.509595
0.809855
0.800689
0.812723
0.814857
0.847629
0.813173
0.811101
0.881522
0.764664
0.812582
0.813352
0.80913
0.805228
0.814334
0.656154
0.800522
0.849576
0.833538
0.810698
0.813648
0.813483
0.809578
0.699495
0.812586
0.80029
0.838625
0.818559
0.811723
0.831375
0.79283
0.811644
0.817899
0.808924
0.819373
0.7445
0.854923
0.819049
0.813895
0.813177
0.812826
0.815805
0.817242
0.812874
0.810883
0.841124
0.818679
0.80027
0.825308
0.827007
0.816153
0.814494
0.800471
0.801574
0.813168
0.819109
0.829435
0.812921
0.816543
0.799952
0.810059
0.812959
0.812919
0.802509
0.814766
0.813441
0.803267
0.812984
0.835711
0.80004
0.809534
0.821652
0.560507
0.814316
0.81825
0.815592
0.815097
0.822041
0.82888
0.815715
0.81892
0.701634
0.81318
0.801407
0.815712
0.819106
0.835093
0.821642
0.815594
0.829435
0.825011
0.810794
0.819196
0.819652
0.804319
0.813274
0.815699
0.819485
0.832173
0.812745
0.815793
0.802729
0.813057
0.813168
0.523616
0.628188
0.814361
0.821517
0.801824
0.822536
0.816
0.841907
0.708304
0.813853
0.73071
0.817461
0.810417
0.813278
0.8294
0.813764
0.804997
0.813042
0.830127
0.839478
0.81291
0.719366
0.819273
0.816121
0.800021
0.803036
0.815406
0.855961
0.812766
0.813485
0.849738
0.829045
0.843302
0.574319
0.829171
0.814048
0.810995
0.817487
0.850706
0.81785
0.718561
0.799657
0.831773
0.799901
0.799838
0.805446
0.74797
0.813509
0.814444
0.725692
0.814454
0.827354
0.813426
0.814131
0.799343
0.818458
0.813107
0.823667
0.808712
0.808283
0.815058
0.705697
0.819156
0.81418
0.813093
0.64031
0.718405
0.59969
0.82329
0.530905
0.854014
0.727481
0.842841
0.81264
0.723165
0.821458
0.815969
0.742695
0.807703
0.818437
0.794415
0.816608
0.815955
0.815885
0.813107
0.807993
0.803674
0.737441
0.836284
0.82024
0.816695
0.799335
0.815444
0.802135
0.816098
0.813566
0.854796
0.817854
0.498131
0.813389
0.81887
0.818744
0.778106
0.815754
0.806735
0.818583
0.845525
0.596801
0.809224
0.799429
0.815414
0.817704
0.817772
0.812567
0.818681
0.813944
0.814671
0.803082
0.814366
0.846156
0.81403
0.792014
0.811595
0.622835
0.718623
0.813181
0.81708
0.802976
0.822373
0.735473
0.803156
0.803189
0.820282
0.645983
0.817679
0.799479
0.815509
0.864886
0.785534
0.82202
0.818059
0.822899
0.814122
0.769676
0.802447
0.813671
0.902312
0.827185
0.816515
0.832227
0.80972
0.868438
0.719181
0.694125
0.852481
0.802711
0.676224
0.850438
0.786092
0.832016
0.72591
0.813713