# vtk DataFile Version 1.0
unstructured grid
ascii
DATASET UNSTRUCTURED_GRID
points 7812 float
-1 0 0
-1 1 0
2 0 0
2 1 0
0 0 0
1 0 0
-1 1 0.1
-1 0 0.1
0 0 0.1
1 0 0.1
2 0 0.1
2 1 0.1
-0.99 0 0
-0.98 0 0
-0.97 0 0
-0.96 0 0
-0.95 0 0
-0.94 0 0
-0.93 0 0
-0.92 0 0
-0.91 0 0
-0.9 0 0
-0.89 0 0
-0.88 0 0
-0.87 0 0
-0.86 0 0
-0.85 0 0
-0.84 0 0
-0.83 0 0
-0.82 0 0
-0.81 0 0
-0.8 0 0
-0.79 0 0
-0.78 0 0
-0.77 0 0
-0.76 0 0
-0.75 0 0
-0.74 0 0
-0.73 0 0
-0.72 0 0
-0.71 0 0
-0.7 0 0
-0.69 0 0
-0.68 0 0
-0.67 0 0
-0.66 0 0
-0.65 0 0
-0.64 0 0
-0.63 0 0
-0.62 0 0
-0.61 0 0
-0.6 0 0
-0.59 0 0
-0.58 0 0
-0.57 0 0
-0.56 0 0
-0.55 0 0
-0.54 0 0
-0.53 0 0
-0.52 0 0
-0.51 0 0
-0.5 0 0
-0.49 0 0
-0.48 0 0
-0.47 0 0
-0.46 0 0
-0.45 0 0
-0.44 0 0
-0.43 0 0
-0.42 0 0
-0.41 0 0
-0.4 0 0
-0.39 0 0
-0.38 0 0
-0.37 0 0
-0.36 0 0
-0.35 0 0
-0.34 0 0
-0.33 0 0
-0.32 0 0
-0.31 0 0
-0.3 0 0
-0.29 0 0
-0.28 0 0
-0.27 0 0
-0.26 0 0
-0.25 0 0
-0.24 0 0
-0.23 0 0
-0.22 0 0
-0.21 0 0
-0.2 0 0
-0.19 0 0
-0.18 0 0
-0.17 0 0
-0.16 0 0
-0.15 0 0
-0.14 0 0
-0.13 0 0
-0.12 0 0
-0.11 0 0
-0.1 0 0
-0.09 0 0
-0.08 0 0
-0.07 0 0
-0.06 0 0
-0.05 0 0
-0.04 0 0
-0.03 0 0
-0.02 0 0
-0.01 0 0
1.01 0 0
1.02 0 0
1.03 0 0
1.04 0 0
1.05 0 0
1.06 0 0
1.07 0 0
1.08 0 0
1.09 0 0
1.1 0 0
1.11 0 0
1.12 0 0
1.13 0 0
1.14 0 0
1.15 0 0
1.16 0 0
1.17 0 0
1.18 0 0
1.19 0 0
1.2 0 0
1.21 0 0
1.22 0 0
1.23 0 0
1.24 0 0
1.25 0 0
1.26 0 0
1.27 0 0
1.28 0 0
1.29 0 0
1.3 0 0
1.31 0 0
1.32 0 0
1.33 0 0
1.34 0 0
1.35 0 0
1.36 0 0
1.37 0 0
1.38 0 0
1.39 0 0
1.4 0 0
1.41 0 0
1.42 0 0
1.43 0 0
1.44 0 0
1.45 0 0
1.46 0 0
1.47 0 0
1.48 0 0
1.49 0 0
1.5 0 0
1.51 0 0
1.52 0 0
1.53 0 0
1.54 0 0
1.55 0 0
1.56 0 0
1.57 0 0
1.58 0 0
1.59 0 0
1.6 0 0
1.61 0 0
1.62 0 0
1.63 0 0
1.64 0 0
1.65 0 0
1.66 0 0
1.67 0 0
1.68 0 0
1.69 0 0
1.7 0 0
1.71 0 0
1.72 0 0
1.73 0 0
1.74 0 0
1.75 0 0
1.76 0 0
1.77 0 0
1.78 0 0
1.79 0 0
1.8 0 0
1.81 0 0
1.82 0 0
1.83 0 0
1.84 0 0
1.85 0 0
1.86 0 0
1.87 0 0
1.88 0 0
1.89 0 0
1.9 0 0
1.91 0 0
1.92 0 0
1.93 0 0
1.94 0 0
1.95 0 0
1.96 0 0
1.97 0 0
1.98 0 0
1.99 0 0
2 0.010289 0
2 0.0215307 0
2 0.0338135 0
2 0.0472336 0
2 0.0618965 0
2 0.0779171 0
2 0.0954213 0
2 0.114546 0
2 0.135442 0
2 0.158274 0
2 0.183219 0
2 0.210474 0
2 0.240253 0
2 0.27279 0
2 0.308339 0
2 0.347181 0
2 0.389619 0
2 0.435987 0
2 0.486649 0
2 0.542002 0
2 0.602481 0
2 0.66856 0
2 0.740758 0
2 0.819642 0
2 0.90583 0
1.9 1 0
1.8 1 0
1.7 1 0
1.6 1 0
1.5 1 0
1.4 1 0
1.3 1 0
1.2 1 0
1.1 1 0
1 1 0
0.9 1 0
0.8 1 0
0.7 1 0
0.6 1 0
0.5 1 0
0.4 1 0
0.3 1 0
0.2 1 0
0.1 1 0
3.69793e-12 1 0
-0.1 1 0
-0.2 1 0
-0.3 1 0
-0.4 1 0
-0.5 1 0
-0.6 1 0
-0.7 1 0
-0.8 1 0
-0.9 1 0
-1 0.90583 0
-1 0.819642 0
-1 0.740758 0
-1 0.66856 0
-1 0.602481 0
-1 0.542002 0
-1 0.486649 0
-1 0.435987 0
-1 0.389619 0
-1 0.347181 0
-1 0.308339 0
-1 0.27279 0
-1 0.240253 0
-1 0.210474 0
-1 0.183219 0
-1 0.158274 0
-1 0.135442 0
-1 0.114546 0
-1 0.0954213 0
-1 0.0779171 0
-1 0.0618965 0
-1 0.0472336 0
-1 0.0338135 0
-1 0.0215307 0
-1 0.010289 0
0.00921362 0.00379763 0
0.0184561 0.00752451 0
0.0277268 0.0111804 0
0.0370253 0.0147652 0
0.0463511 0.0182786 0
0.0557034 0.0217203 0
0.0650819 0.0250903 0
0.074486 0.0283883 0
0.083915 0.0316141 0
0.0933685 0.0347675 0
0.102846 0.0378484 0
0.112347 0.0408565 0
0.12187 0.0437917 0
0.131416 0.0466538 0
0.140983 0.0494427 0
0.150572 0.0521581 0
0.160181 0.0547999 0
0.16981 0.0573681 0
0.179458 0.0598623 0
0.189125 0.0622825 0
0.198811 0.0646285 0
0.208514 0.0669001 0
0.218234 0.0690974 0
0.227971 0.07122 0
0.237724 0.073268 0
0.247493 0.0752411 0
0.257276 0.0771393 0
0.267073 0.0789625 0
0.276884 0.0807105 0
0.286708 0.0823832 0
0.296545 0.0839806 0
0.306394 0.0855025 0
0.316254 0.0869488 0
0.326125 0.0883196 0
0.336006 0.0896146 0
0.345896 0.0908339 0
0.355796 0.0919773 0
0.365704 0.0930447 0
0.375621 0.0940362 0
0.385544 0.0949517 0
0.395474 0.095791 0
0.40541 0.0965542 0
0.415352 0.0972412 0
0.425299 0.097852 0
0.43525 0.0983865 0
0.445205 0.0988447 0
0.455164 0.0992266 0
0.465125 0.0995321 0
0.475088 0.0997613 0
0.485052 0.0999141 0
0.495017 0.0999904 0
0.504983 0.0999904 0
0.514948 0.0999141 0
0.524912 0.0997613 0
0.534875 0.0995321 0
0.544836 0.0992266 0
0.554795 0.0988447 0
0.56475 0.0983865 0
0.574701 0.097852 0
0.584648 0.0972412 0
0.59459 0.0965542 0
0.604526 0.095791 0
0.614456 0.0949517 0
0.624379 0.0940362 0
0.634296 0.0930447 0
0.644204 0.0919773 0
0.654104 0.0908339 0
0.663994 0.0896146 0
0.673875 0.0883196 0
0.683746 0.0869488 0
0.693606 0.0855025 0
0.703455 0.0839806 0
0.713292 0.0823832 0
0.723116 0.0807105 0
0.732927 0.0789625 0
0.742724 0.0771393 0
0.752508 0.0752411 0
0.762276 0.073268 0
0.772029 0.07122 0
0.781766 0.0690974 0
0.791486 0.0669001 0
0.801189 0.0646285 0
0.810875 0.0622825 0
0.820542 0.0598623 0
0.83019 0.0573681 0
0.839819 0.0547999 0
0.849428 0.0521581 0
0.859017 0.0494427 0
0.868584 0.0466538 0
0.87813 0.0437917 0
0.887653 0.0408565 0
0.897154 0.0378484 0
0.906631 0.0347675 0
0.916085 0.0316141 0
0.925514 0.0283883 0
0.934918 0.0250903 0
0.944297 0.0217203 0
0.953649 0.0182786 0
0.962975 0.0147652 0
0.972273 0.0111804 0
0.981544 0.00752451 0
0.990786 0.00379763 0
-1 0.90583 0.1
-1 0.819642 0.1
-1 0.740758 0.1
-1 0.66856 0.1
-1 0.602481 0.1
-1 0.542002 0.1
-1 0.486649 0.1
-1 0.435987 0.1
-1 0.389619 0.1
-1 0.347181 0.1
-1 0.308339 0.1
-1 0.27279 0.1
-1 0.240253 0.1
-1 0.210474 0.1
-1 0.183219 0.1
-1 0.158274 0.1
-1 0.135442 0.1
-1 0.114546 0.1
-1 0.0954213 0.1
-1 0.0779171 0.1
-1 0.0618965 0.1
-1 0.0472336 0.1
-1 0.0338135 0.1
-1 0.0215307 0.1
-1 0.010289 0.1
-0.99 0 0.1
-0.98 0 0.1
-0.97 0 0.1
-0.96 0 0.1
-0.95 0 0.1
-0.94 0 0.1
-0.93 0 0.1
-0.92 0 0.1
-0.91 0 0.1
-0.9 0 0.1
-0.89 0 0.1
-0.88 0 0.1
-0.87 0 0.1
-0.86 0 0.1
-0.85 0 0.1
-0.84 0 0.1
-0.83 0 0.1
-0.82 0 0.1
-0.81 0 0.1
-0.8 0 0.1
-0.79 0 0.1
-0.78 0 0.1
-0.77 0 0.1
-0.76 0 0.1
-0.75 0 0.1
-0.74 0 0.1
-0.73 0 0.1
-0.72 0 0.1
-0.71 0 0.1
-0.7 0 0.1
-0.69 0 0.1
-0.68 0 0.1
-0.67 0 0.1
-0.66 0 0.1
-0.65 0 0.1
-0.64 0 0.1
-0.63 0 0.1
-0.62 0 0.1
-0.61 0 0.1
-0.6 0 0.1
-0.59 0 0.1
-0.58 0 0.1
-0.57 0 0.1
-0.56 0 0.1
-0.55 0 0.1
-0.54 0 0.1
-0.53 0 0.1
-0.52 0 0.1
-0.51 0 0.1
-0.5 0 0.1
-0.49 0 0.1
-0.48 0 0.1
-0.47 0 0.1
-0.46 0 0.1
-0.45 0 0.1
-0.44 0 0.1
-0.43 0 0.1
-0.42 0 0.1
-0.41 0 0.1
-0.4 0 0.1
-0.39 0 0.1
-0.38 0 0.1
-0.37 0 0.1
-0.36 0 0.1
-0.35 0 0.1
-0.34 0 0.1
-0.33 0 0.1
-0.32 0 0.1
-0.31 0 0.1
-0.3 0 0.1
-0.29 0 0.1
-0.28 0 0.1
-0.27 0 0.1
-0.26 0 0.1
-0.25 0 0.1
-0.24 0 0.1
-0.23 0 0.1
-0.22 0 0.1
-0.21 0 0.1
-0.2 0 0.1
-0.19 0 0.1
-0.18 0 0.1
-0.17 0 0.1
-0.16 0 0.1
-0.15 0 0.1
-0.14 0 0.1
-0.13 0 0.1
-0.12 0 0.1
-0.11 0 0.1
-0.1 0 0.1
-0.09 0 0.1
-0.08 0 0.1
-0.07 0 0.1
-0.06 0 0.1
-0.05 0 0.1
-0.04 0 0.1
-0.03 0 0.1
-0.02 0 0.1
-0.01 0 0.1
0.00921362 0.00379763 0.1
0.0184561 0.00752451 0.1
0.0277268 0.0111804 0.1
0.0370253 0.0147652 0.1
0.0463511 0.0182786 0.1
0.0557034 0.0217203 0.1
0.0650819 0.0250903 0.1
0.074486 0.0283883 0.1
0.083915 0.0316141 0.1
0.0933685 0.0347675 0.1
0.102846 0.0378484 0.1
0.112347 0.0408565 0.1
0.12187 0.0437917 0.1
0.131416 0.0466538 0.1
0.140983 0.0494427 0.1
0.150572 0.0521581 0.1
0.160181 0.0547999 0.1
0.16981 0.0573681 0.1
0.179458 0.0598623 0.1
0.189125 0.0622825 0.1
0.198811 0.0646285 0.1
0.208514 0.0669001 0.1
0.218234 0.0690974 0.1
0.227971 0.07122 0.1
0.237724 0.073268 0.1
0.247493 0.0752411 0.1
0.257276 0.0771393 0.1
0.267073 0.0789625 0.1
0.276884 0.0807105 0.1
0.286708 0.0823832 0.1
0.296545 0.0839806 0.1
0.306394 0.0855025 0.1
0.316254 0.0869488 0.1
0.326125 0.0883196 0.1
0.336006 0.0896146 0.1
0.345896 0.0908339 0.1
0.355796 0.0919773 0.1
0.365704 0.0930447 0.1
0.375621 0.0940362 0.1
0.385544 0.0949517 0.1
0.395474 0.095791 0.1
0.40541 0.0965542 0.1
0.415352 0.0972412 0.1
0.425299 0.097852 0.1
0.43525 0.0983865 0.1
0.445205 0.0988447 0.1
0.455164 0.0992266 0.1
0.465125 0.0995321 0.1
0.475088 0.0997613 0.1
0.485052 0.0999141 0.1
0.495017 0.0999904 0.1
0.504983 0.0999904 0.1
0.514948 0.0999141 0.1
0.524912 0.0997613 0.1
0.534875 0.0995321 0.1
0.544836 0.0992266 0.1
0.554795 0.0988447 0.1
0.56475 0.0983865 0.1
0.574701 0.097852 0.1
0.584648 0.0972412 0.1
0.59459 0.0965542 0.1
0.604526 0.095791 0.1
0.614456 0.0949517 0.1
0.624379 0.0940362 0.1
0.634296 0.0930447 0.1
0.644204 0.0919773 0.1
0.654104 0.0908339 0.1
0.663994 0.0896146 0.1
0.673875 0.0883196 0.1
0.683746 0.0869488 0.1
0.693606 0.0855025 0.1
0.703455 0.0839806 0.1
0.713292 0.0823832 0.1
0.723116 0.0807105 0.1
0.732927 0.0789625 0.1
0.742724 0.0771393 0.1
0.752508 0.0752411 0.1
0.762276 0.073268 0.1
0.772029 0.07122 0.1
0.781766 0.0690974 0.1
0.791486 0.0669001 0.1
0.801189 0.0646285 0.1
0.810875 0.0622825 0.1
0.820542 0.0598623 0.1
0.83019 0.0573681 0.1
0.839819 0.0547999 0.1
0.849428 0.0521581 0.1
0.859017 0.0494427 0.1
0.868584 0.0466538 0.1
0.87813 0.0437917 0.1
0.887653 0.0408565 0.1
0.897154 0.0378484 0.1
0.906631 0.0347675 0.1
0.916085 0.0316141 0.1
0.925514 0.0283883 0.1
0.934918 0.0250903 0.1
0.944297 0.0217203 0.1
0.953649 0.0182786 0.1
0.962975 0.0147652 0.1
0.972273 0.0111804 0.1
0.981544 0.00752451 0.1
0.990786 0.00379763 0.1
1.01 0 0.1
1.02 0 0.1
1.03 0 0.1
1.04 0 0.1
1.05 0 0.1
1.06 0 0.1
1.07 0 0.1
1.08 0 0.1
1.09 0 0.1
1.1 0 0.1
1.11 0 0.1
1.12 0 0.1
1.13 0 0.1
1.14 0 0.1
1.15 0 0.1
1.16 0 0.1
1.17 0 0.1
1.18 0 0.1
1.19 0 0.1
1.2 0 0.1
1.21 0 0.1
1.22 0 0.1
1.23 0 0.1
1.24 0 0.1
1.25 0 0.1
1.26 0 0.1
1.27 0 0.1
1.28 0 0.1
1.29 0 0.1
1.3 0 0.1
1.31 0 0.1
1.32 0 0.1
1.33 0 0.1
1.34 0 0.1
1.35 0 0.1
1.36 0 0.1
1.37 0 0.1
1.38 0 0.1
1.39 0 0.1
1.4 0 0.1
1.41 0 0.1
1.42 0 0.1
1.43 0 0.1
1.44 0 0.1
1.45 0 0.1
1.46 0 0.1
1.47 0 0.1
1.48 0 0.1
1.49 0 0.1
1.5 0 0.1
1.51 0 0.1
1.52 0 0.1
1.53 0 0.1
1.54 0 0.1
1.55 0 0.1
1.56 0 0.1
1.57 0 0.1
1.58 0 0.1
1.59 0 0.1
1.6 0 0.1
1.61 0 0.1
1.62 0 0.1
1.63 0 0.1
1.64 0 0.1
1.65 0 0.1
1.66 0 0.1
1.67 0 0.1
1.68 0 0.1
1.69 0 0.1
1.7 0 0.1
1.71 0 0.1
1.72 0 0.1
1.73 0 0.1
1.74 0 0.1
1.75 0 0.1
1.76 0 0.1
1.77 0 0.1
1.78 0 0.1
1.79 0 0.1
1.8 0 0.1
1.81 0 0.1
1.82 0 0.1
1.83 0 0.1
1.84 0 0.1
1.85 0 0.1
1.86 0 0.1
1.87 0 0.1
1.88 0 0.1
[...]
CELL_DATA 7425
SCALARS rho float
LOOKUP_TABLE default
0.587319
0.805042
0.819576
0.827539
0.799458
0.819173
0.820928
0.814159
0.813014
0.738674
0.863498
0.810047
0.813922
0.827395
0.803746
0.817174
0.798788
0.813294
0.803474
0.767281
0.831292
0.822059
0.72483
0.828068
0.80388
0.703153
0.831224
0.848324
0.800172
0.807957
0.819386
0.725445
0.80362
0.652218
0.519558
0.828034
0.803511
0.814136
0.811156
0.828026
0.716086
0.703401
0.790003
0.701896
0.586656
0.748255
0.799334
0.813856
0.661982
0.719227
0.746327
0.805159
0.812366
0.799112
0.709697
0.634697
0.822934
0.800117
0.738545
0.700977
0.709644
0.807665
0.813264
0.799415
0.798781
0.817631
0.584505
0.773311
0.704535
0.807877
0.804201
0.803205
0.883407
0.821131
0.810856
0.813073
0.805055
0.800446
0.81327
0.757785
0.816002
0.807245
0.810316
0.788713
0.835917
0.801124
0.574586
0.829974
0.542722
0.848493
0.706322
0.729785
0.845286
0.803182
0.817421
0.758276
0.836073
0.788035
0.825647
0.802512
0.808119
0.73865
0.803291
0.828257
0.597353
0.811083
0.824391
0.707541
0.815021
0.799202
0.816732
0.78456
0.789834
0.812438
0.789735
0.786333
0.831273
0.803107
0.699917
0.63142
0.805054
0.777294
0.812978
0.790419
0.858947
0.838891
0.807702
0.804291
0.661283
0.504374
0.8145
0.655174
0.515418
0.867755
0.662362
0.799552
0.811112
0.723608
0.582146
0.724924
0.723356
0.809631
0.809672
0.707194
0.80317
0.779625
0.565609
0.788544
0.782546
0.827786
0.81678
0.704328
0.802937
0.744307
0.705091
0.803281
0.810448
0.830427
0.797582
0.652328
0.802523
0.703172
0.801131
0.829761
0.820479
0.80238
0.813095
0.784838
0.806285
0.800682
0.81973
0.804513
0.791209
0.799165
0.799905
0.740203
0.803727
0.75878
0.594275
0.705948
0.799714
0.792732
0.879801
0.831859
0.619385
0.822947
0.798672
0.827365
0.799905
0.813434
0.812643
0.803198
0.806951
0.704461
0.815036
0.819277
0.770122
0.797166
0.861189
0.807774
0.811846
0.811199
0.612989
0.838944
0.573168
0.532057
0.595611
0.600859
0.828173
0.879335
0.807533
0.79866
0.84139
0.813002
0.816704
0.820787
0.815227
0.638108
0.550068
0.813754
0.545774
0.592727
0.703311
0.811721
0.814091
0.813074
0.833151
0.812945
0.864258
0.709813
0.83524
0.712791
0.805178
0.803927
0.801971
0.713976
0.720563
0.619607
0.705307
0.863627
0.875453
0.806265
0.807703
0.798888
0.811549
0.715982
0.821628
0.800226
0.825712
0.794635
0.809882
0.721397
0.812845
0.823756
0.739866
0.528703
0.799886
0.736411
0.843316
0.814369
0.726555
0.815602
0.814866
0.849957
0.80954
0.803907
0.803258
0.825671
0.860769
0.805472
0.619362
0.848897
0.812024
0.805609
0.827559
0.837346
0.81302
0.821451
0.793514
0.815097
0.866663
0.849952
0.827358
0.836753
0.802683
0.817183
0.803194
0.759733
0.701381
0.581037
0.700719
0.802367
0.812924
0.81601
0.854753
0.779674
0.645844
0.827099
0.521125
0.774309
0.801005
0.646504
0.495959
0.639203
0.815222
0.813266
0.813001
0.812752
0.826733
0.774444
0.811485
0.802672
0.812942
0.840724
0.867158
0.833572
0.802751
0.705743
0.795915
0.834295
0.691659
0.79878
0.802057
0.86479
0.817123
0.593176
0.813422
0.740586
0.852343
0.732059
0.810138
0.907656
0.799904
0.795675
0.659057
0.635673
0.711572
0.780624
0.826557
0.81496
0.813721
0.882483
0.858221
0.799572
0.799182
0.826041
0.739278
0.802536
0.879391
0.801385
0.804737
0.800732
0.802573
0.812998
0.815745
0.816395
0.636348
0.83001
0.645815
0.808484
0.639462
0.802644
0.802244
0.840274
0.728795
0.816356
0.808595
0.817003
0.79953
0.8025
0.811261
0.696981
0.82448
0.813092
0.81296
0.800686
0.736832
0.560099
0.806421
0.811055
0.803193
0.81293
0.794758
0.503807
0.846042
0.813346
0.803854
0.785749
0.813293
0.804694
0.803056
0.816262
0.807518
0.822528
0.768638
0.812672
0.807779
0.562828
0.803153
0.640213
0.838767
0.636334
0.814724
0.877905
0.593527
0.818095
0.748996
0.80442
0.873347
0.534006
0.82314
0.822278
0.803502
0.825756
0.811078
0.823477
0.830653
0.824853
0.739791
0.827538
0.76166
0.810236
0.794252
0.793651
0.758628
0.805609
0.802091
0.814489
0.752299
0.804721
0.604568
0.614353
0.689198
0.812843
0.844209
0.864845
0.829893
0.798618
0.812679
0.804907
0.818538
0.680591
0.801014
0.742997
0.824066
0.814823
0.805432
0.711613
0.727291
0.533903
0.605726
0.801321
0.611495
0.792614
0.765392
0.770076
0.727031
0.762496
0.76757
0.809468
0.814958
0.819572
0.811501
0.710613
0.602604
0.839044
0.806956
0.783165
0.809873
0.802581
0.836572
0.718319
0.855295
0.763698
0.728468
0.764559
0.811536
0.545231
0.798862
0.841629
0.81332
0.813815
0.809747
0.799204
0.780339
0.835712
0.803113
0.842986
0.721145
0.707358
0.80036
0.795177
0.822041
0.708809
0.847973
0.800462
0.816077
0.798764
0.779195
0.808302
0.594753
0.677519
0.632516
0.812963
0.803835
0.826373
0.749292
0.810604
0.814826
0.820415
0.799013
0.729447
0.79691
0.814336
0.803203
0.703399
0.813623
0.81893
0.840042
0.810814
0.825356
0.862301
0.857282
0.744
0.603545
0.838043
0.805827
0.843393
0.814256
0.822933
0.813554
0.813833
0.634982
0.805226
0.809331
0.812861
0.791927
0.81061
0.8048
0.860592
0.7987
0.812775
0.814742
0.871929
0.597768
0.813491
0.842483
0.883323
0.530697
0.81643
0.829979
0.796154
0.81476
0.794979
0.867607
0.81222
0.831367
0.812755
0.619475
0.802406
0.804155
0.691034
0.85315
0.759763
0.801822
0.814008
0.812749
0.859774
0.795364
0.833627
0.834738
0.784335
0.825201
0.842413
0.79978
0.810533
0.806999
0.805324
0.81487
0.802638
0.845237
0.76928
0.809792
0.803173
0.815235
0.723221
0.812934
0.818379
0.752644
0.813618
0.816375
0.827614
0.825138
0.800756
0.800686
0.850511
0.767924
0.825177
0.844221
0.804565
0.505996
0.812937
0.8283
0.852398
0.812675
0.803153
0.808543
0.855058
0.780083
0.802592
0.801269
0.812976
0.727286
0.802751
0.830025
0.808057
0.794987
0.793552
0.843215
0.806616
0.845331
0.802026
0.824273
0.812799
0.804225
0.841866
0.812906
0.679599
0.818806
0.807109
0.812871
0.906148
0.800833
0.815919
0.800509
0.800431
0.816234
0.800535
0.803371
0.783732
0.747372
0.806539
0.812938
0.758066
0.791444
0.823047
0.813028
0.822282
0.806339
0.825796
0.875313
0.830669
0.575195
0.708869
0.840771
0.817318
0.844173
0.814794
0.850116
0.807381
0.812423
0.79939
0.838427
0.860944
0.852806
0.731611
0.814123
0.822202
0.743938
0.817151
0.775973
0.800252
0.73315
0.816096
0.830887
0.823482
0.861922
0.814249
0.813337
0.810221
0.814676
0.83581
0.812212
0.798705
0.810243
0.737635
0.81139
0.774173
0.832858
0.812812
0.638905
0.777663
0.811186
0.799222
0.819855
0.80252
0.814709
0.81733
0.804489
0.819426
0.804172
0.805896
0.597521
0.84706
0.825155
0.826727
0.814968
0.803229
0.701915
0.806526
0.907838
0.813625
0.801079
0.812924
0.782306
0.807303
0.813322
0.821314
0.814651
0.813267
0.816271
0.701466
0.777894
0.764644
0.812703
0.805344
0.801075
0.621456
0.80576
0.802675
0.708299
0.837231
0.81723
0.802228
0.807496
0.799439
0.81728
0.81396
0.813329
0.812922
0.709747
0.831715
0.800295
0.807459
0.842847
0.817667
0.816326
0.800218
0.753686
0.82386
0.787459
0.821462
0.789434
0.805686
0.820981
0.737546
0.81743
0.650933
0.872039
0.704414
0.845024
0.800844
0.875167
0.793748
0.801699
0.8207
0.836263
0.838428
0.825494
0.819858
0.814744
0.801167
0.804195
0.808264
0.725905
0.827255
0.800093
0.719621
0.830555
0.705478
0.800049
0.860472
0.805592
0.701676
0.797862
0.814125
0.704864
0.785663
0.819414
0.831877
0.807003
0.574755
0.728787
0.812399
0.801376
0.81297
0.800711
0.737277
0.814052
0.815752
0.812537
0.775399
0.803271
0.804503
0.803623
0.560597
0.812759
0.834122
0.580057
0.815201
0.816137
0.814734
0.818392
0.814459
0.824565
0.799128
0.795135
0.771029
0.822914
0.829681
0.825121
0.834936
0.765404
0.809045
0.724569
0.772394
0.808849
0.821102
0.813327
0.80098
0.85837
0.812974
0.800376
0.809638
0.816129
0.815224
0.836651
0.814532
0.812852
0.81199
0.813858
0.80019
0.821024
0.803777
0.822857
0.813509
0.575778
0.813555
0.834485
0.858149
0.838204
0.491147
0.816841
0.804556
0.496898
0.66955
0.643586
0.834317
0.808003
0.811661
0.812843
0.803208
0.816782
0.810982
0.534793
0.686674
0.818253
0.806635
0.81565
0.803515
0.810251
0.810954
0.820266
0.799553
0.692494
0.855998
0.803154
0.814729
0.813663
0.757822
0.486093
0.832917
0.813569
0.741953
0.802706
0.806251
0.591242
0.827551
0.814818
0.827746
0.818812
0.826031
0.804739
0.719598
0.643651
0.562218
0.825343
0.808566
0.782976
0.813016
0.779842
0.817922
0.873324
0.762409
0.821638
0.813564
0.825863
0.883573
0.81448
0.811878
0.803275
0.813875
0.691854
0.828233
0.799916
0.810213
0.802221
0.78427
0.854177
0.822069
0.840499
0.821552
0.757585
0.755942
0.803358
0.818132
0.803068
0.805253
0.802599
0.775701
0.814721
0.761636
0.821199
0.66215
0.814011
0.802971
0.735656
0.823274
0.818003
0.740041
0.801176
0.757263
0.880741
0.800729
0.812887
0.76273
0.800133
0.814311
0.803957
0.590002
0.820966
0.79869
0.801388
0.814563
0.825637
0.757197
0.805569
0.841686
0.826987
0.814115
0.835859
0.70042
0.700214
0.812971
0.744209
0.822246
0.771408
0.812879
0.802528
0.810426
0.752003
0.79421
0.764381
0.809931
0.803147
0.631286
0.779052
0.799245
0.84907
0.814406
0.828675
0.526724
0.82535
0.785169
0.858751
0.800948
0.818004
0.800329
0.785822
0.798788
0.825735
0.835781
0.821789
0.81715
0.706886
0.773879
0.81539
0.805388
0.810022
0.803915
0.706663
0.792861
0.803494
0.810699
0.82722
0.851224
0.831874
0.813506
0.799472
0.804265
0.802056
0.779663
0.611728
0.800365
0.731384
0.662001
0.822831
0.798884
0.777272
0.800016
0.754205
0.785315
0.811503
0.822228
0.803374
0.816041
0.817378
0.820681
0.813431
0.808502
0.712207
0.699462
0.640989
0.829302
0.869579
0.815385
0.841378
0.847854
0.863749
0.735797
0.816613
0.863024
0.810223
0.812917
0.816218
0.732858
0.812459
0.806701
0.806237
0.517498
0.813009
0.76122
0.813198
0.813796
0.803547
0.705452
0.813239
0.610724
0.825052
0.802311
0.822258
0.855179
0.803436
0.795383
0.82096
0.811616
0.805725
0.762293
0.510131
0.820923
0.803093
0.828972
0.825786
0.802138
0.807032
0.834483
0.7209
0.500718
0.886269
0.800618
0.815722
0.804329
0.710402
0.79867
0.800042
0.815098
0.736178
0.646588
0.883256
0.71422
0.836568
0.812024
0.832909
0.84268
0.792217
0.804751
0.813633
0.852792
0.738363
0.870713
0.814053
0.562939
0.802499
0.748903
0.852927
0.760346
0.804223
0.80396
0.799664
0.801605
0.808916
0.812951
0.855619
0.806026
0.802869
0.801316
0.800038
0.812285
0.816904
0.802621
0.812529
0.849222
0.8031
0.783485
0.802243
0.839646
0.725154
0.813666
0.813862
0.638888
0.713168
0.805556
0.823046
0.803596
0.511981
0.856389
0.813248
0.833047
0.805312
0.803318
0.801353
0.786279
0.587278
0.804304
0.816132
0.836002
0.820591
0.812992
0.798199
0.747025
0.801578
0.765838
0.787553
0.799368
0.790976
0.751108
0.80087
0.811502
0.810407
0.832216
0.849132
0.553435
0.84192
0.812887
0.820857
0.802029
0.822672
0.81112
0.89462
0.80026
0.867172
0.805695
0.759819
0.862133
0.802286
0.80025
0.824182
0.660481
0.645369
0.8034
0.803862
0.704637
0.654383
0.799907
0.823875
0.813071
0.822612
0.733041
0.817207
0.812881
0.826154
0.816972
0.81195
0.812908
0.754622
0.803931
0.815708
0.811374
0.67629
0.566573
0.812945
0.650079
0.721975
0.555259
0.841413
0.800154
0.52724
0.600875
0.827531
0.90807
0.818174
0.652397
0.814193
0.786466
0.801746
0.786421
0.820693
0.81013
0.7883
0.821078
0.801041
0.587804
0.817853
0.766713
0.815958
0.700786
0.822245
0.789672
0.813985
0.800084
0.66295
0.843525
0.806574
0.806653
0.493871
0.816861
0.800411
0.852221
0.711286
0.817115
0.584297
0.719052
0.80143
0.796693
0.732845
0.715624
0.715877
0.507271
0.590179
0.800024
0.517805
0.822624
0.520647
0.757229
0.671407
0.599767
0.540855
0.745474
0.803085
0.715052
0.821321
0.800957
0.802962
0.76123
0.889685
0.799081
0.824504
0.803437
0.812831
0.706018
0.807603
0.736742
0.821935
0.886046
0.833589
0.747763
0.822813
0.770529
0.879909
0.804202
0.758701
0.850699
0.776896
0.799933
0.80533
0.758269
0.744697
0.665753
0.804991
0.803026
0.817934
0.833509
0.61157
0.807952
0.538309
0.668661
0.616575
0.818557
0.821067
0.809033
0.803982
0.615767
0.872467
0.802681
0.802948
0.863528
0.812468
0.772057
0.812205
0.802372
0.81793
0.803147
0.717093
0.803391
0.655555
0.799037
0.804123
0.801557
0.63924
0.81155
0.810326
0.72566
0.817839
0.549301
0.576826
0.804152
0.696541
0.72599
0.572219
0.72369
0.813658
0.707325
0.773002
0.716638
0.812821
0.670273
0.762143
0.806467
0.810639
0.654624
0.801955
0.895161
0.796712
0.816825
0.585387
0.693874
0.800969
0.812985
0.814043
0.851669
0.812683
0.804262
0.803734
0.803343
0.713862
0.717525
0.615727
0.771514
0.533073
0.72385
0.809954
0.814441
0.806165
0.7993
0.53713
0.809099
0.803763
0.554151
0.543542
0.746635
0.803578
0.806204
0.549477
0.798239
0.569724
0.720623
0.607885
0.813559
0.802281
0.597158
0.608389
0.867905
0.810058
0.765444
0.717933
0.621887
0.655401
0.709587
0.81604
0.759811
0.765498
0.624108
0.753915
0.809342
0.815396
0.812495
0.815503
0.865678
0.754739
0.818956
0.803343
0.851292
0.8129
0.802778
0.813116
0.722466
0.812976
0.81202
0.815212
0.811182
0.81592
0.803275
0.817951
0.810417
0.809769
0.817292
0.80012
0.81662
0.818977
0.667544
0.818633
0.868424
0.818193
0.79294
0.645986
0.858592
0.818813
0.824908
0.799576
0.811252
0.757502
0.852558
0.559807
0.726762
0.809868
0.815696
0.80388
0.803366
0.832065
0.80506
0.805224
0.815293
0.780742
0.838568
0.841959
0.815229
0.664388
0.612714
0.815794
0.816646
0.788342
0.849641
0.84727
0.810886
0.813655
0.777791
0.814118
0.817857
0.814143
0.8188
0.813131
0.815852
0.851055
0.815997
0.814529
0.817579
0.817792
0.784911
0.814145
0.804084
0.804165
0.804644
0.818593
0.811522
0.788377
0.753949
0.812703
0.806283
0.808811
0.806383
0.857778
0.803371
0.814025
0.812731
0.805212
0.57182
0.803893
0.812775
0.815052
0.81032
0.812818
0.813331
0.813057
0.810183
0.864399
0.501805
0.812849
0.841672
0.812683
0.802971
0.808426
0.815027
0.839692
0.800477
0.801249
0.812625
0.705601
0.812867
0.808241
0.807387
0.812584
0.812916
0.813058
0.813389
0.512062
0.811877
0.715927
0.885847
0.821074
0.733361
0.671797
0.815388
0.803541
0.818747
0.646567
0.801674
0.813361
0.648051
0.799884
0.804104
0.815469
0.806291
0.856748
0.809854
0.607021
0.800853
0.775168
0.811222
0.889077
0.803305
0.81552
0.819336
0.832214
0.813426
0.822417
0.836353
0.635046
0.802652
0.65585
0.813773
0.813673
0.712449
0.813559
0.804842
0.713069
0.81494
0.701432
0.861082
0.784118
0.814322
0.812923
0.813454
0.667985
0.81368
0.633362
0.800221
0.79238
0.822311
0.815204
0.71611
0.766699
0.830063
0.812781
0.821309
0.821921
0.813464
0.825347
0.799528
0.552215
0.754888
0.759255
0.731352
0.837618
0.822389
0.83435
0.776073
0.802765
0.813056
0.812979
0.812983
0.774664
0.56393
0.803206
0.528779
0.808218
0.82431
0.799732
0.803763
0.812992
0.806021
0.78265
0.732226
0.813413
0.85915
0.813713
0.799318
0.736888
0.809643
0.788734
0.833725
0.504192
0.795986
0.805928
0.798905
0.689382
0.812868
0.810772
0.857126
0.569184
0.80734
0.803272
0.812847
0.61273
0.813113
0.803336
0.803406
0.80303
0.813224
0.813322
0.816123
0.813065
0.717736
0.804507
0.803203
0.813015
0.896165
0.81317
0.774016
0.841174
0.799185
0.803136
0.601434
0.812909
0.80336
0.825692
0.801975
0.866228
0.814837
0.853462
0.80037
0.820646
0.7779
0.558429
0.752751
0.794267
0.803958
0.81394
0.813824
0.55564
0.861786
0.857973
0.768511
0.757677
0.73853
0.812097
0.848448
0.812947
0.813719
0.812981
0.804277
0.726756
0.803504
0.799136
0.764197
0.824269
0.823005
0.861844
0.815664
0.812993
0.525235
0.808892
0.812953
0.800732
0.773996
0.818073
0.803112
0.8129
0.82689
0.798458
0.803604
0.801236
0.815182
0.839119
0.802401
0.79919
0.801526
0.766084
0.819873
0.567198
0.868378
0.803692
0.545878
0.803185
0.803144
0.819596
0.592479
0.606254
0.801577
0.803666
0.800875
0.860731
0.779957
0.814637
0.80294
0.865792
0.804717
0.804454
0.826317
0.815954
0.82013
0.821278
0.820328
0.867478
0.729305
0.852147
0.817204
0.653745
0.802562
0.803187
0.80364
0.821123
0.823505
0.803985
0.801112
0.800079
0.822676
0.803214
0.80361
0.799691
0.824383
0.803975
0.802005
0.806079
0.827862
0.800574
0.801547
0.824295
0.79961
0.815387
0.651344
0.826384
0.849839
0.804881
0.819572
0.803234
0.828743
0.837489
0.803399
0.821474
0.800552
0.807007
0.78956
0.802166
0.803176
0.806359
0.805912
0.80454
0.818543
0.814751
0.81124
0.831402
0.80221
0.802225
0.79993
0.789002
0.83378
0.80315
0.819301
0.815211
0.807115
0.805058
0.80295
0.838899
0.864801
0.799601
0.679003
0.801197
0.842143
0.816592
0.805158
0.804465
0.819698
0.844586
0.602137
0.828792
0.794513
0.850419
0.818727
0.812
0.81328
0.808258
0.803957
0.812775
0.808757
0.591924
0.847975
0.794616
0.814183
0.85458
0.819275
0.763209
0.808642
0.814453
0.815458
0.802969
0.661763
0.809235
0.863146
0.80259
0.800723
0.775447
0.871211
0.800447
0.877063
0.806694
0.817161
0.820608
0.802256
0.803837
0.812609
0.815879
0.8035
0.813326
0.816742
0.881345
0.820694
0.809297
0.800167
0.828403
0.810481
0.838893
0.80882
0.806943
0.812151
0.816544
0.829902
0.813658
0.822526
0.832514
0.814194
0.699827
0.691059
0.813046
0.817739
0.803841
0.813123
0.514353
0.854865
0.799785
0.806226
0.813931
0.813482
0.803961
0.81248
0.800499
0.801224
0.808048
0.814728
0.756933
0.784659
0.822933
0.842727
0.834804
0.800284
0.805084
0.803356
0.812911
0.805714
0.799551
0.799816
0.801024
0.810904
0.797813
0.802778
0.835483
0.831357
0.729925
0.670915
0.80758
0.698762
0.799525
0.572646
0.804411
0.80694
0.80313
0.818157
0.833808
0.813921
0.81286
0.810265
0.803848
0.881515
0.816261
0.804831
0.772274
0.586264
0.810237
0.806652
0.769382
0.814411
0.813871
0.791474
0.800707
0.804032
0.625272
0.830435
0.803503
0.781522
0.779319
0.852702
0.809987
0.802911
0.802634
0.810228
0.811061
0.518951
0.801797
0.839482
0.813921
0.798576
0.588896
0.814541
0.814064
0.81295
0.83372
0.813912
0.803934
0.821883
0.805621
0.575894
0.808634
0.736593
0.798505
0.81363
0.722244
0.814919
0.846034
0.831603
0.664557
0.890896
0.785595
0.777443
0.796875
0.779523
0.808627
0.85001
0.808003
0.802872
0.813544
0.808858
0.782623
0.785933
0.813875
0.808346
0.834833
0.821259
0.835669
0.801296
0.799681
0.813044
0.856604
0.816449
0.818367
0.813341
0.607427
0.795527
0.823877
0.829333
0.86589
0.812603
0.818931
0.508985
0.80974
0.800615
0.812604
0.814756
0.847574
0.813047
0.811085
0.881491
0.764571
0.812549
0.81323
0.809019
0.805211
0.814219
0.655976
0.800501
0.849519
0.833499
0.810612
0.813549
0.813361
0.809562
0.699139
0.812485
0.800198
0.838557
0.818462
0.811623
0.831309
0.79273
0.811541
0.817802
0.808826
0.819276
0.744319
0.854783
0.818952
0.813797
0.813051
0.812699
0.815704
0.817143
0.812746
0.810777
0.841062
0.818582
0.800184
0.82527
0.826933
0.816056
0.814458
0.800391
0.801524
0.813041
0.819012
0.829394
0.812792
0.816443
0.79986
0.809952
0.81283
0.812793
0.802498
0.814654
0.81332
0.803245
0.812854
0.835642
0.800024
0.809424
0.821547
0.560131
0.814202
0.818152
0.815501
0.814994
0.821952
0.828808
0.815609
0.818823
0.701488
0.813052
0.801351
0.815604
0.819011
0.835051
0.82155
0.815529
0.829356
0.824926
0.810668
0.819177
0.819547
0.804217
0.813149
0.815592
0.819442
0.832098
0.81262
0.815685
0.802717
0.812927
0.813043
0.522925
0.627815
0.814341
0.821425
0.801754
0.822452
0.815893
0.841855
0.708166
0.813734
0.730538
0.817383
0.810307
0.813153
0.829332
0.813645
0.804899
0.812912
0.830064
0.839341
0.812787
0.719237
0.819245
0.816017
0.799945
0.803028
0.815297
0.855913
0.81264
0.813363
0.849684
0.828983
0.843252
0.573715
0.829093
0.813932
0.810886
0.817386
0.850558
0.817749
0.718438
0.799571
0.831735
0.799806
0.799757
0.805404
0.747864
0.813387
0.814333
0.725502
0.814343
0.827315
0.813306
0.814019
0.799253
0.818361
0.812977
0.823563
0.808697
0.808191
0.814956
0.705458
0.819059
0.814067
0.812962
0.640015
0.718621
0.599459
0.823251
0.530025
0.853865
0.727363
0.842788
0.812517
0.722864
0.821396
0.815867
0.742586
0.807666
0.818338
0.794406
0.816507
0.815849
0.815778
0.812978
0.807879
0.803662
0.73733
0.836165
0.82015
0.816593
0.799254
0.815409
0.802037
0.815992
0.813448
0.854656
0.817756
0.497387
0.813287
0.818772
0.818645
0.778065
0.81572
0.806721
0.818551
0.845391
0.596534
0.809133
0.799337
0.815306
0.817604
0.817673
0.812441
0.818583
0.813841
0.814566
0.803072
0.814262
0.846095
0.81392
0.792002
0.811479
0.622615
0.718695
0.813054
0.816978
0.802942
0.822283
0.735458
0.80315
0.803184
0.820188
0.63263
0.817578
0.799386
0.8154
0.864717
0.785498
0.821929
0.817959
0.822794
0.814006
0.769617
0.802428
0.813553
0.902292
0.827145
0.816411
0.832189
0.809597
0.868259
0.71931
0.690059
0.852364