# vtk DataFile Version 1.0
unstructured grid
ascii
DATASET UNSTRUCTURED_GRID
points 7812 float
-1 0 0
-1 1 0
2 0 0
2 1 0
0 0 0
1 0 0
-1 1 0.1
-1 0 0.1
0 0 0.1
1 0 0.1
2 0 0.1
2 1 0.1
-0.99 0 0
-0.98 0 0
-0.97 0 0
-0.96 0 0
-0.95 0 0
-0.94 0 0
-0.93 0 0
-0.92 0 0
-0.91 0 0
-0.9 0 0
-0.89 0 0
-0.88 0 0
-0.87 0 0
-0.86 0 0
-0.85 0 0
-0.84 0 0
-0.83 0 0
-0.82 0 0
-0.81 0 0
-0.8 0 0
-0.79 0 0
-0.78 0 0
-0.77 0 0
-0.76 0 0
-0.75 0 0
-0.74 0 0
-0.73 0 0
-0.72 0 0
-0.71 0 0
-0.7 0 0
-0.69 0 0
-0.68 0 0
-0.67 0 0
-0.66 0 0
-0.65 0 0
-0.64 0 0
-0.63 0 0
-0.62 0 0
-0.61 0 0
-0.6 0 0
-0.59 0 0
-0.58 0 0
-0.57 0 0
-0.56 0 0
-0.55 0 0
-0.54 0 0
-0.53 0 0
-0.52 0 0
-0.51 0 0
-0.5 0 0
-0.49 0 0
-0.48 0 0
-0.47 0 0
-0.46 0 0
-0.45 0 0
-0.44 0 0
-0.43 0 0
-0.42 0 0
-0.41 0 0
-0.4 0 0
-0.39 0 0
-0.38 0 0
-0.37 0 0
-0.36 0 0
-0.35 0 0
-0.34 0 0
-0.33 0 0
-0.32 0 0
-0.31 0 0
-0.3 0 0
-0.29 0 0
-0.28 0 0
-0.27 0 0
-0.26 0 0
-0.25 0 0
-0.24 0 0
-0.23 0 0
-0.22 0 0
-0.21 0 0
-0.2 0 0
-0.19 0 0
-0.18 0 0
-0.17 0 0
-0.16 0 0
-0.15 0 0
-0.14 0 0
-0.13 0 0
-0.12 0 0
-0.11 0 0
-0.1 0 0
-0.09 0 0
-0.08 0 0
-0.07 0 0
-0.06 0 0
-0.05 0 0
-0.04 0 0
-0.03 0 0
-0.02 0 0
-0.01 0 0
1.01 0 0
1.02 0 0
1.03 0 0
1.04 0 0
1.05 0 0
1.06 0 0
1.07 0 0
1.08 0 0
1.09 0 0
1.1 0 0
1.11 0 0
1.12 0 0
1.13 0 0
1.14 0 0
1.15 0 0
1.16 0 0
1.17 0 0
1.18 0 0
1.19 0 0
1.2 0 0
1.21 0 0
1.22 0 0
1.23 0 0
1.24 0 0
1.25 0 0
1.26 0 0
1.27 0 0
1.28 0 0
1.29 0 0
1.3 0 0
1.31 0 0
1.32 0 0
1.33 0 0
1.34 0 0
1.35 0 0
1.36 0 0
1.37 0 0
1.38 0 0
1.39 0 0
1.4 0 0
1.41 0 0
1.42 0 0
1.43 0 0
1.44 0 0
1.45 0 0
1.46 0 0
1.47 0 0
1.48 0 0
1.49 0 0
1.5 0 0
1.51 0 0
1.52 0 0
1.53 0 0
1.54 0 0
1.55 0 0
1.56 0 0
1.57 0 0
1.58 0 0
1.59 0 0
1.6 0 0
1.61 0 0
1.62 0 0
1.63 0 0
1.64 0 0
1.65 0 0
1.66 0 0
1.67 0 0
1.68 0 0
1.69 0 0
1.7 0 0
1.71 0 0
1.72 0 0
1.73 0 0
1.74 0 0
1.75 0 0
1.76 0 0
1.77 0 0
1.78 0 0
1.79 0 0
1.8 0 0
1.81 0 0
1.82 0 0
1.83 0 0
1.84 0 0
1.85 0 0
1.86 0 0
1.87 0 0
1.88 0 0
1.89 0 0
1.9 0 0
1.91 0 0
1.92 0 0
1.93 0 0
1.94 0 0
1.95 0 0
1.96 0 0
1.97 0 0
1.98 0 0
1.99 0 0
2 0.010289 0
2 0.0215307 0
2 0.0338135 0
2 0.0472336 0
2 0.0618965 0
2 0.0779171 0
2 0.0954213 0
2 0.114546 0
2 0.135442 0
2 0.158274 0
2 0.183219 0
2 0.210474 0
2 0.240253 0
2 0.27279 0
2 0.308339 0
2 0.347181 0
2 0.389619 0
2 0.435987 0
2 0.486649 0
2 0.542002 0
2 0.602481 0
2 0.66856 0
2 0.740758 0
2 0.819642 0
2 0.90583 0
1.9 1 0
1.8 1 0
1.7 1 0
1.6 1 0
1.5 1 0
1.4 1 0
1.3 1 0
1.2 1 0
1.1 1 0
1 1 0
0.9 1 0
0.8 1 0
0.7 1 0
0.6 1 0
0.5 1 0
0.4 1 0
0.3 1 0
0.2 1 0
0.1 1 0
3.69793e-12 1 0
-0.1 1 0
-0.2 1 0
-0.3 1 0
-0.4 1 0
-0.5 1 0
-0.6 1 0
-0.7 1 0
-0.8 1 0
-0.9 1 0
-1 0.90583 0
-1 0.819642 0
-1 0.740758 0
-1 0.66856 0
-1 0.602481 0
-1 0.542002 0
-1 0.486649 0
-1 0.435987 0
-1 0.389619 0
-1 0.347181 0
-1 0.308339 0
-1 0.27279 0
-1 0.240253 0
-1 0.210474 0
-1 0.183219 0
-1 0.158274 0
-1 0.135442 0
-1 0.114546 0
-1 0.0954213 0
-1 0.0779171 0
-1 0.0618965 0
-1 0.0472336 0
-1 0.0338135 0
-1 0.0215307 0
-1 0.010289 0
0.00921362 0.00379763 0
0.0184561 0.00752451 0
0.0277268 0.0111804 0
0.0370253 0.0147652 0
0.0463511 0.0182786 0
0.0557034 0.0217203 0
0.0650819 0.0250903 0
0.074486 0.0283883 0
0.083915 0.0316141 0
0.0933685 0.0347675 0
0.102846 0.0378484 0
0.112347 0.0408565 0
0.12187 0.0437917 0
0.131416 0.0466538 0
0.140983 0.0494427 0
0.150572 0.0521581 0
0.160181 0.0547999 0
0.16981 0.0573681 0
0.179458 0.0598623 0
0.189125 0.0622825 0
0.198811 0.0646285 0
0.208514 0.0669001 0
0.218234 0.0690974 0
0.227971 0.07122 0
0.237724 0.073268 0
0.247493 0.0752411 0
0.257276 0.0771393 0
0.267073 0.0789625 0
0.276884 0.0807105 0
0.286708 0.0823832 0
0.296545 0.0839806 0
0.306394 0.0855025 0
0.316254 0.0869488 0
0.326125 0.0883196 0
0.336006 0.0896146 0
0.345896 0.0908339 0
0.355796 0.0919773 0
0.365704 0.0930447 0
0.375621 0.0940362 0
0.385544 0.0949517 0
0.395474 0.095791 0
0.40541 0.0965542 0
0.415352 0.0972412 0
0.425299 0.097852 0
0.43525 0.0983865 0
0.445205 0.0988447 0
0.455164 0.0992266 0
0.465125 0.0995321 0
0.475088 0.0997613 0
0.485052 0.0999141 0
0.495017 0.0999904 0
0.504983 0.0999904 0
0.514948 0.0999141 0
0.524912 0.0997613 0
0.534875 0.0995321 0
0.544836 0.0992266 0
0.554795 0.0988447 0
0.56475 0.0983865 0
0.574701 0.097852 0
0.584648 0.0972412 0
0.59459 0.0965542 0
0.604526 0.095791 0
0.614456 0.0949517 0
0.624379 0.0940362 0
0.634296 0.0930447 0
0.644204 0.0919773 0
0.654104 0.0908339 0
0.663994 0.0896146 0
0.673875 0.0883196 0
0.683746 0.0869488 0
0.693606 0.0855025 0
0.703455 0.0839806 0
0.713292 0.0823832 0
0.723116 0.0807105 0
0.732927 0.0789625 0
0.742724 0.0771393 0
0.752508 0.0752411 0
0.762276 0.073268 0
0.772029 0.07122 0
0.781766 0.0690974 0
0.791486 0.0669001 0
0.801189 0.0646285 0
0.810875 0.0622825 0
0.820542 0.0598623 0
0.83019 0.0573681 0
0.839819 0.0547999 0
0.849428 0.0521581 0
0.859017 0.0494427 0
0.868584 0.0466538 0
0.87813 0.0437917 0
0.887653 0.0408565 0
0.897154 0.0378484 0
0.906631 0.0347675 0
0.916085 0.0316141 0
0.925514 0.0283883 0
0.934918 0.0250903 0
0.944297 0.0217203 0
0.953649 0.0182786 0
0.962975 0.0147652 0
0.972273 0.0111804 0
0.981544 0.00752451 0
0.990786 0.00379763 0
-1 0.90583 0.1
-1 0.819642 0.1
-1 0.740758 0.1
-1 0.66856 0.1
-1 0.602481 0.1
-1 0.542002 0.1
-1 0.486649 0.1
-1 0.435987 0.1
-1 0.389619 0.1
-1 0.347181 0.1
-1 0.308339 0.1
-1 0.27279 0.1
-1 0.240253 0.1
-1 0.210474 0.1
-1 0.183219 0.1
-1 0.158274 0.1
-1 0.135442 0.1
-1 0.114546 0.1
-1 0.0954213 0.1
-1 0.0779171 0.1
-1 0.0618965 0.1
-1 0.0472336 0.1
-1 0.0338135 0.1
-1 0.0215307 0.1
-1 0.010289 0.1
-0.99 0 0.1
-0.98 0 0.1
-0.97 0 0.1
-0.96 0 0.1
-0.95 0 0.1
-0.94 0 0.1
-0.93 0 0.1
-0.92 0 0.1
-0.91 0 0.1
-0.9 0 0.1
-0.89 0 0.1
-0.88 0 0.1
-0.87 0 0.1
-0.86 0 0.1
-0.85 0 0.1
-0.84 0 0.1
-0.83 0 0.1
-0.82 0 0.1
-0.81 0 0.1
-0.8 0 0.1
-0.79 0 0.1
-0.78 0 0.1
-0.77 0 0.1
-0.76 0 0.1
-0.75 0 0.1
-0.74 0 0.1
-0.73 0 0.1
-0.72 0 0.1
-0.71 0 0.1
-0.7 0 0.1
-0.69 0 0.1
-0.68 0 0.1
-0.67 0 0.1
-0.66 0 0.1
-0.65 0 0.1
-0.64 0 0.1
-0.63 0 0.1
-0.62 0 0.1
-0.61 0 0.1
-0.6 0 0.1
-0.59 0 0.1
-0.58 0 0.1
-0.57 0 0.1
-0.56 0 0.1
-0.55 0 0.1
-0.54 0 0.1
-0.53 0 0.1
-0.52 0 0.1
-0.51 0 0.1
-0.5 0 0.1
-0.49 0 0.1
-0.48 0 0.1
-0.47 0 0.1
-0.46 0 0.1
-0.45 0 0.1
-0.44 0 0.1
-0.43 0 0.1
-0.42 0 0.1
-0.41 0 0.1
-0.4 0 0.1
-0.39 0 0.1
-0.38 0 0.1
-0.37 0 0.1
-0.36 0 0.1
-0.35 0 0.1
-0.34 0 0.1
-0.33 0 0.1
-0.32 0 0.1
-0.31 0 0.1
-0.3 0 0.1
-0.29 0 0.1
-0.28 0 0.1
-0.27 0 0.1
-0.26 0 0.1
-0.25 0 0.1
-0.24 0 0.1
-0.23 0 0.1
-0.22 0 0.1
-0.21 0 0.1
-0.2 0 0.1
-0.19 0 0.1
-0.18 0 0.1
-0.17 0 0.1
-0.16 0 0.1
-0.15 0 0.1
-0.14 0 0.1
-0.13 0 0.1
-0.12 0 0.1
-0.11 0 0.1
-0.1 0 0.1
-0.09 0 0.1
-0.08 0 0.1
-0.07 0 0.1
-0.06 0 0.1
-0.05 0 0.1
-0.04 0 0.1
-0.03 0 0.1
-0.02 0 0.1
-0.01 0 0.1
0.00921362 0.00379763 0.1
0.0184561 0.00752451 0.1
0.0277268 0.0111804 0.1
0.0370253 0.0147652 0.1
0.0463511 0.0182786 0.1
0.0557034 0.0217203 0.1
0.0650819 0.0250903 0.1
0.074486 0.0283883 0.1
0.083915 0.0316141 0.1
0.0933685 0.0347675 0.1
0.102846 0.0378484 0.1
0.112347 0.0408565 0.1
0.12187 0.0437917 0.1
0.131416 0.0466538 0.1
0.140983 0.0494427 0.1
0.150572 0.0521581 0.1
0.160181 0.0547999 0.1
0.16981 0.0573681 0.1
0.179458 0.0598623 0.1
0.189125 0.0622825 0.1
0.198811 0.0646285 0.1
0.208514 0.0669001 0.1
0.218234 0.0690974 0.1
0.227971 0.07122 0.1
0.237724 0.073268 0.1
0.247493 0.0752411 0.1
0.257276 0.0771393 0.1
0.267073 0.0789625 0.1
0.276884 0.0807105 0.1
0.286708 0.0823832 0.1
0.296545 0.0839806 0.1
0.306394 0.0855025 0.1
0.316254 0.0869488 0.1
0.326125 0.0883196 0.1
0.336006 0.0896146 0.1
0.345896 0.0908339 0.1
0.355796 0.0919773 0.1
0.365704 0.0930447 0.1
0.375621 0.0940362 0.1
0.385544 0.0949517 0.1
0.395474 0.095791 0.1
0.40541 0.0965542 0.1
0.415352 0.0972412 0.1
0.425299 0.097852 0.1
0.43525 0.0983865 0.1
0.445205 0.0988447 0.1
0.455164 0.0992266 0.1
0.465125 0.0995321 0.1
0.475088 0.0997613 0.1
0.485052 0.0999141 0.1
0.495017 0.0999904 0.1
0.504983 0.0999904 0.1
0.514948 0.0999141 0.1
0.524912 0.0997613 0.1
0.534875 0.0995321 0.1
0.544836 0.0992266 0.1
0.554795 0.0988447 0.1
0.56475 0.0983865 0.1
0.574701 0.097852 0.1
0.584648 0.0972412 0.1
0.59459 0.0965542 0.1
0.604526 0.095791 0.1
0.614456 0.0949517 0.1
0.624379 0.0940362 0.1
0.634296 0.0930447 0.1
0.644204 0.0919773 0.1
0.654104 0.0908339 0.1
0.663994 0.0896146 0.1
0.673875 0.0883196 0.1
0.683746 0.0869488 0.1
0.693606 0.0855025 0.1
0.703455 0.0839806 0.1
0.713292 0.0823832 0.1
0.723116 0.0807105 0.1
0.732927 0.0789625 0.1
0.742724 0.0771393 0.1
0.752508 0.0752411 0.1
0.762276 0.073268 0.1
0.772029 0.07122 0.1
0.781766 0.0690974 0.1
0.791486 0.0669001 0.1
0.801189 0.0646285 0.1
0.810875 0.0622825 0.1
0.820542 0.0598623 0.1
0.83019 0.0573681 0.1
0.839819 0.0547999 0.1
0.849428 0.0521581 0.1
0.859017 0.0494427 0.1
0.868584 0.0466538 0.1
0.87813 0.0437917 0.1
0.887653 0.0408565 0.1
0.897154 0.0378484 0.1
0.906631 0.0347675 0.1
0.916085 0.0316141 0.1
0.925514 0.0283883 0.1
0.934918 0.0250903 0.1
0.944297 0.0217203 0.1
0.953649 0.0182786 0.1
0.962975 0.0147652 0.1
0.972273 0.0111804 0.1
0.981544 0.00752451 0.1
0.990786 0.00379763 0.1
1.01 0 0.1
1.02 0 0.1
1.03 0 0.1
1.04 0 0.1
1.05 0 0.1
1.06 0 0.1
1.07 0 0.1
1.08 0 0.1
1.09 0 0.1
1.1 0 0.1
1.11 0 0.1
1.12 0 0.1
1.13 0 0.1
1.14 0 0.1
1.15 0 0.1
1.16 0 0.1
1.17 0 0.1
1.18 0 0.1
1.19 0 0.1
1.2 0 0.1
1.21 0 0.1
1.22 0 0.1
1.23 0 0.1
1.24 0 0.1
1.25 0 0.1
1.26 0 0.1
1.27 0 0.1
1.28 0 0.1
1.29 0 0.1
1.3 0 0.1
1.31 0 0.1
1.32 0 0.1
1.33 0 0.1
1.34 0 0.1
1.35 0 0.1
1.36 0 0.1
1.37 0 0.1
1.38 0 0.1
1.39 0 0.1
1.4 0 0.1
1.41 0 0.1
1.42 0 0.1
1.43 0 0.1
1.44 0 0.1
1.45 0 0.1
1.46 0 0.1
1.47 0 0.1
1.48 0 0.1
1.49 0 0.1
1.5 0 0.1
1.51 0 0.1
1.52 0 0.1
1.53 0 0.1
1.54 0 0.1
1.55 0 0.1
1.56 0 0.1
1.57 0 0.1
1.58 0 0.1
1.59 0 0.1
1.6 0 0.1
1.61 0 0.1
1.62 0 0.1
1.63 0 0.1
1.64 0 0.1
1.65 0 0.1
1.66 0 0.1
1.67 0 0.1
1.68 0 0.1
1.69 0 0.1
1.7 0 0.1
1.71 0 0.1
1.72 0 0.1
1.73 0 0.1
1.74 0 0.1
1.75 0 0.1
1.76 0 0.1
1.77 0 0.1
1.78 0 0.1
1.79 0 0.1
1.8 0 0.1
1.81 0 0.1
1.82 0 0.1
1.83 0 0.1
1.84 0 0.1
1.85 0 0.1
1.86 0 0.1
1.87 0 0.1
1.88 0 0.1
[...]
CELL_DATA 7425
SCALARS rho float
LOOKUP_TABLE default
0.605736
0.805721
0.825364
0.832205
0.801974
0.824703
0.824943
0.821424
0.821243
0.745094
0.865539
0.811187
0.821338
0.832061
0.806023
0.823439
0.801044
0.821217
0.804078
0.770216
0.835731
0.822747
0.731753
0.832797
0.804485
0.718199
0.835542
0.851683
0.800914
0.809529
0.823513
0.722584
0.804229
0.667096
0.563717
0.832767
0.80403
0.821425
0.812249
0.832304
0.728689
0.719923
0.794531
0.681388
0.609301
0.75221
0.804602
0.821308
0.692811
0.717407
0.746686
0.805828
0.813044
0.801423
0.701462
0.664295
0.828234
0.801815
0.745002
0.710025
0.72644
0.808355
0.821217
0.801609
0.799575
0.82376
0.60247
0.778532
0.665623
0.809508
0.806085
0.803547
0.884782
0.821843
0.811491
0.821285
0.805743
0.801148
0.821196
0.758366
0.82258
0.807952
0.81794
0.790305
0.838992
0.803339
0.592257
0.834034
0.571683
0.85162
0.684033
0.736502
0.848535
0.803758
0.823588
0.766929
0.837689
0.789791
0.830631
0.804961
0.81433
0.738879
0.803813
0.832568
0.613119
0.812152
0.829125
0.718637
0.821926
0.80164
0.822958
0.78654
0.7912
0.813079
0.794292
0.788233
0.83557
0.803434
0.687852
0.683322
0.805721
0.782309
0.821255
0.791972
0.861647
0.841666
0.808458
0.808516
0.672732
0.549253
0.82146
0.669996
0.55683
0.871677
0.693408
0.802071
0.811825
0.73202
0.600328
0.735584
0.735331
0.81154
0.817534
0.698124
0.805053
0.781408
0.582494
0.794813
0.783225
0.832551
0.820854
0.683798
0.805215
0.745035
0.699098
0.803837
0.811561
0.834943
0.802118
0.677912
0.803659
0.682451
0.803369
0.834338
0.826083
0.802967
0.821236
0.789585
0.807037
0.803068
0.825493
0.806984
0.797381
0.801594
0.801696
0.749215
0.806025
0.767353
0.619611
0.677543
0.802055
0.79799
0.881305
0.835801
0.677331
0.828245
0.801069
0.829616
0.802175
0.82113
0.821181
0.803792
0.807691
0.698896
0.821916
0.824836
0.773023
0.802285
0.864281
0.808634
0.813416
0.819405
0.627501
0.841693
0.591187
0.571194
0.611525
0.63959
0.829923
0.880897
0.808237
0.799447
0.84412
0.821353
0.822906
0.826351
0.822028
0.649198
0.655749
0.821285
0.575714
0.617427
0.694328
0.818234
0.821222
0.821286
0.837305
0.821542
0.867975
0.700286
0.8367
0.729012
0.805956
0.804532
0.802912
0.723126
0.731623
0.631416
0.688649
0.8661
0.87968
0.812939
0.808441
0.804312
0.813312
0.729647
0.827105
0.802795
0.830562
0.795893
0.817882
0.719316
0.82139
0.82895
0.749482
0.554073
0.801819
0.736717
0.844759
0.821366
0.723961
0.822229
0.821832
0.85241
0.816974
0.806722
0.803778
0.830653
0.863388
0.807973
0.63083
0.851977
0.814871
0.806331
0.832255
0.840489
0.820874
0.826612
0.794859
0.821974
0.870488
0.852427
0.829114
0.840763
0.803745
0.823447
0.803535
0.760364
0.716489
0.599031
0.686717
0.807828
0.821186
0.822585
0.858104
0.781872
0.656819
0.831933
0.565376
0.779386
0.803235
0.657563
0.663325
0.65017
0.822055
0.821207
0.821349
0.820171
0.831601
0.776156
0.812153
0.803284
0.821549
0.844442
0.87121
0.837672
0.804048
0.681851
0.800625
0.837415
0.701413
0.80114
0.802865
0.866999
0.823406
0.607808
0.821115
0.750106
0.855635
0.741464
0.817753
0.908327
0.80243
0.797403
0.670571
0.6474
0.703505
0.787292
0.831359
0.821866
0.821274
0.887022
0.860892
0.802074
0.803365
0.826649
0.748451
0.803504
0.881164
0.801886
0.807473
0.803114
0.803123
0.820817
0.822395
0.822822
0.653891
0.831759
0.672456
0.809792
0.656808
0.807957
0.802952
0.841646
0.741328
0.81694
0.814807
0.82327
0.801611
0.803034
0.811931
0.716631
0.825109
0.821229
0.820782
0.801265
0.738531
0.577047
0.807121
0.819141
0.803691
0.821463
0.796656
0.661505
0.8478
0.82109
0.804438
0.790501
0.821211
0.806534
0.805005
0.822762
0.808223
0.827832
0.772429
0.816562
0.808604
0.580169
0.805661
0.651173
0.841583
0.648127
0.821476
0.879748
0.629685
0.819549
0.755862
0.805083
0.875051
0.573262
0.828308
0.827658
0.804047
0.830722
0.81268
0.828699
0.835142
0.829779
0.748952
0.832316
0.761909
0.812091
0.795521
0.798365
0.764887
0.806448
0.802495
0.820422
0.761727
0.806348
0.619874
0.629046
0.707263
0.820738
0.847554
0.867273
0.834026
0.801074
0.821199
0.806649
0.823502
0.690611
0.803057
0.748138
0.827408
0.821323
0.808254
0.702191
0.735689
0.561357
0.619079
0.803477
0.624372
0.798181
0.766594
0.773733
0.723896
0.768664
0.774051
0.817093
0.821889
0.825354
0.81968
0.724722
0.641926
0.84272
0.813063
0.785199
0.812561
0.803969
0.840596
0.733199
0.858178
0.765113
0.741282
0.771579
0.818193
0.571548
0.801222
0.845299
0.815154
0.821308
0.817176
0.801758
0.787054
0.838902
0.803617
0.846574
0.724811
0.699813
0.801938
0.799913
0.827382
0.719953
0.85125
0.803108
0.822502
0.801038
0.781436
0.810901
0.60947
0.687577
0.643936
0.820292
0.807833
0.831126
0.755302
0.811281
0.821812
0.826016
0.801463
0.742017
0.803024
0.816972
0.803676
0.72138
0.821227
0.824464
0.841451
0.818941
0.830369
0.864354
0.859658
0.752979
0.618224
0.840924
0.807668
0.846088
0.821478
0.824517
0.82123
0.821313
0.684716
0.808094
0.814715
0.821433
0.796427
0.814515
0.80715
0.863996
0.801144
0.821359
0.821735
0.874011
0.612199
0.821153
0.845189
0.884723
0.556525
0.822852
0.831692
0.797267
0.815362
0.799652
0.869841
0.816563
0.835801
0.815455
0.632941
0.803233
0.804852
0.709108
0.855521
0.759698
0.802786
0.821271
0.820793
0.863136
0.796498
0.837097
0.838884
0.790776
0.826716
0.844868
0.802227
0.812999
0.809498
0.806044
0.820671
0.803163
0.84847
0.770567
0.810262
0.804055
0.819352
0.732828
0.821404
0.824386
0.758576
0.82122
0.821095
0.829897
0.830087
0.803021
0.802417
0.852961
0.768253
0.827883
0.847556
0.805203
0.551009
0.821143
0.833012
0.85477
0.819244
0.803485
0.809577
0.85749
0.780725
0.803192
0.803328
0.821419
0.740291
0.804593
0.83146
0.810933
0.796221
0.799749
0.846773
0.807299
0.847943
0.802439
0.829407
0.820314
0.804877
0.844608
0.821105
0.695471
0.824733
0.807798
0.820386
0.906847
0.802427
0.821088
0.801964
0.802204
0.822723
0.802295
0.804136
0.783986
0.747613
0.813202
0.821427
0.764232
0.797466
0.828214
0.813685
0.82766
0.807905
0.830758
0.876983
0.835156
0.618629
0.716498
0.844485
0.823543
0.84743
0.821551
0.852933
0.809884
0.816397
0.801639
0.842112
0.863524
0.855797
0.740987
0.821432
0.8273
0.743162
0.819664
0.777411
0.801831
0.741835
0.822619
0.835363
0.824144
0.865513
0.821324
0.821208
0.817256
0.821513
0.839285
0.812948
0.800971
0.810918
0.746836
0.819626
0.774711
0.836681
0.8153
0.650028
0.779822
0.813421
0.801449
0.825606
0.804975
0.821548
0.823554
0.80633
0.825108
0.804793
0.808569
0.625082
0.850396
0.83011
0.831596
0.817353
0.803768
0.710234
0.809489
0.908527
0.820725
0.803741
0.82048
0.784412
0.810011
0.820481
0.826832
0.815391
0.821195
0.822771
0.670283
0.783811
0.771688
0.820746
0.807026
0.803719
0.634998
0.808405
0.804971
0.719002
0.838917
0.823451
0.804063
0.809796
0.801336
0.823338
0.818236
0.821214
0.82147
0.717318
0.83555
0.801255
0.810134
0.84464
0.819926
0.822698
0.80236
0.754448
0.828601
0.793301
0.826885
0.791045
0.808511
0.826555
0.739509
0.822678
0.680876
0.874116
0.71344
0.848461
0.807041
0.876841
0.795176
0.803036
0.826317
0.837962
0.839566
0.830012
0.825604
0.821197
0.806678
0.805032
0.809596
0.739481
0.828487
0.800794
0.717985
0.834419
0.675099
0.802646
0.863878
0.806398
0.718994
0.79898
0.821433
0.695375
0.786033
0.825126
0.835401
0.813849
0.666654
0.741321
0.8131
0.804074
0.821441
0.802887
0.744003
0.821179
0.822402
0.820968
0.78042
0.803772
0.805292
0.806451
0.57769
0.8213
0.835283
0.606434
0.822034
0.822675
0.821726
0.824397
0.821509
0.829608
0.801704
0.79619
0.771207
0.824229
0.830866
0.826379
0.837903
0.769969
0.816485
0.73859
0.774133
0.811244
0.826656
0.821112
0.801594
0.861411
0.821417
0.806476
0.817264
0.822495
0.822026
0.840656
0.821625
0.82111
0.812659
0.821295
0.802913
0.826493
0.804555
0.828171
0.82122
0.601861
0.821231
0.838659
0.861196
0.839526
0.629044
0.823157
0.808959
0.544343
0.687519
0.674783
0.837995
0.812236
0.812313
0.820813
0.803491
0.82313
0.812543
0.562077
0.70459
0.819466
0.807354
0.822241
0.8041
0.811188
0.819014
0.825608
0.801436
0.711543
0.859386
0.803454
0.815482
0.821052
0.763459
0.632544
0.837209
0.815206
0.741083
0.803013
0.809248
0.626023
0.828975
0.821499
0.832512
0.82474
0.8287
0.805429
0.734312
0.654705
0.579427
0.830358
0.811329
0.783548
0.821243
0.785861
0.824025
0.875045
0.767865
0.827113
0.820647
0.830717
0.885184
0.8215
0.8196
0.804059
0.814515
0.705634
0.832947
0.801829
0.813045
0.803136
0.785937
0.857121
0.827382
0.843291
0.827032
0.75726
0.759415
0.805995
0.823868
0.803453
0.805927
0.803439
0.782029
0.821591
0.766818
0.823609
0.672508
0.821214
0.803744
0.733648
0.82661
0.822981
0.746445
0.801791
0.763457
0.885072
0.801313
0.821469
0.768911
0.802785
0.821495
0.804569
0.606724
0.8226
0.803096
0.807581
0.821633
0.830272
0.76286
0.808059
0.844466
0.829472
0.815508
0.839928
0.668667
0.708618
0.821442
0.750477
0.827638
0.776562
0.821442
0.803277
0.814702
0.758034
0.795352
0.770891
0.816969
0.803464
0.64263
0.780502
0.799967
0.852143
0.821549
0.833352
0.562052
0.825972
0.786912
0.861451
0.801579
0.819508
0.802948
0.790914
0.801102
0.830255
0.838722
0.823394
0.823209
0.700668
0.779885
0.821022
0.806055
0.818254
0.804506
0.693858
0.797532
0.805192
0.813148
0.828979
0.853625
0.836265
0.821217
0.801906
0.806342
0.8039
0.782204
0.626215
0.806338
0.741864
0.673604
0.827778
0.801047
0.777573
0.802282
0.760059
0.786905
0.820088
0.823938
0.808278
0.822405
0.822069
0.824129
0.821211
0.81285
0.719664
0.708184
0.651905
0.833916
0.871702
0.819005
0.842899
0.850955
0.86578
0.746585
0.821762
0.865286
0.8155
0.821562
0.820737
0.741644
0.819038
0.809427
0.808818
0.552181
0.821325
0.76533
0.821072
0.814447
0.804105
0.697857
0.821069
0.624957
0.826591
0.804354
0.825629
0.85806
0.804049
0.796526
0.826526
0.818934
0.807182
0.766227
0.559588
0.826387
0.803813
0.831739
0.83069
0.808423
0.80776
0.837991
0.730454
0.614172
0.88768
0.805842
0.822386
0.804959
0.703776
0.801004
0.80239
0.821972
0.747862
0.657449
0.884648
0.722983
0.840573
0.819655
0.837198
0.846213
0.798313
0.805404
0.821023
0.855181
0.744837
0.872484
0.821383
0.580495
0.805102
0.748184
0.855919
0.767491
0.804841
0.804548
0.801803
0.80274
0.81635
0.821509
0.85821
0.808492
0.803222
0.80181
0.80221
0.820888
0.823237
0.803046
0.821146
0.852435
0.803394
0.788608
0.802823
0.842069
0.739121
0.821242
0.821124
0.685628
0.721995
0.806383
0.828018
0.806494
0.553593
0.859633
0.820404
0.83554
0.806001
0.803794
0.802359
0.791772
0.601247
0.805107
0.82267
0.837084
0.826226
0.821391
0.804362
0.754973
0.802281
0.773586
0.789236
0.801689
0.792396
0.751292
0.802924
0.813673
0.817895
0.835592
0.851949
0.578231
0.84558
0.821541
0.821461
0.804027
0.82333
0.819747
0.895771
0.804413
0.870909
0.806462
0.766971
0.8642
0.802953
0.800893
0.828991
0.671363
0.656459
0.803962
0.804573
0.668793
0.665123
0.800548
0.82897
0.821295
0.827951
0.740918
0.821406
0.820934
0.831081
0.822225
0.812637
0.821564
0.760618
0.806371
0.822204
0.820004
0.685761
0.585014
0.821603
0.660634
0.729081
0.574962
0.845019
0.802369
0.576515
0.615387
0.830873
0.908762
0.824178
0.663433
0.821336
0.791553
0.803795
0.78803
0.823325
0.815702
0.789949
0.826333
0.806986
0.606306
0.823921
0.7728
0.822267
0.692306
0.827583
0.79494
0.821245
0.802557
0.673538
0.846245
0.810733
0.809217
0.582194
0.823178
0.80248
0.855374
0.706452
0.823382
0.632609
0.734107
0.803426
0.801467
0.745207
0.726514
0.709832
0.583307
0.652624
0.802598
0.574367
0.827963
0.637694
0.763031
0.689575
0.652496
0.583673
0.751796
0.803436
0.707873
0.82684
0.802489
0.804716
0.766917
0.891023
0.801519
0.829545
0.804173
0.821378
0.714252
0.809883
0.743514
0.827365
0.88754
0.83728
0.754764
0.828042
0.776242
0.881388
0.804853
0.76437
0.853826
0.782378
0.800575
0.808031
0.764009
0.755181
0.69501
0.805651
0.803411
0.823666
0.83766
0.624152
0.810606
0.570784
0.6786
0.649754
0.821035
0.826568
0.816292
0.804596
0.628633
0.874184
0.803081
0.803276
0.866001
0.82111
0.775603
0.820836
0.802888
0.824028
0.803421
0.724782
0.805267
0.681001
0.801232
0.809385
0.80245
0.65003
0.816038
0.814366
0.727269
0.820117
0.574419
0.594875
0.804817
0.70529
0.73299
0.588822
0.734313
0.821222
0.693004
0.775879
0.711604
0.816535
0.680613
0.767777
0.80798
0.817494
0.670827
0.80271
0.896303
0.797882
0.823178
0.616705
0.70349
0.807053
0.821403
0.821247
0.854278
0.820652
0.805041
0.804417
0.803903
0.723129
0.713647
0.630488
0.777943
0.592501
0.720307
0.817193
0.821346
0.808599
0.80178
0.665608
0.816172
0.804368
0.579766
0.579231
0.752856
0.804165
0.811594
0.571224
0.799435
0.589215
0.735458
0.623469
0.814898
0.804231
0.613991
0.622896
0.87007
0.811694
0.771014
0.728741
0.648941
0.666004
0.698543
0.82228
0.765408
0.765457
0.637961
0.760685
0.816242
0.822085
0.820996
0.822234
0.868954
0.762062
0.824745
0.804159
0.85408
0.821542
0.803297
0.821088
0.718033
0.81909
0.818283
0.821482
0.817613
0.822089
0.803757
0.823863
0.816996
0.81651
0.823283
0.80081
0.822697
0.824847
0.677894
0.824551
0.870638
0.824171
0.794265
0.657254
0.861274
0.82474
0.829968
0.801923
0.819832
0.757616
0.855577
0.630874
0.740189
0.810567
0.822351
0.8045
0.803913
0.836435
0.80711
0.806959
0.822096
0.785534
0.842435
0.845421
0.820114
0.67484
0.65627
0.822408
0.822795
0.794659
0.852817
0.850243
0.813508
0.819864
0.783353
0.821098
0.823837
0.821192
0.824717
0.815583
0.822465
0.854134
0.822572
0.820902
0.823754
0.82383
0.78695
0.820442
0.806485
0.80694
0.806823
0.824556
0.819956
0.793466
0.75374
0.820421
0.806991
0.816065
0.807114
0.860057
0.805379
0.820934
0.82098
0.807139
0.660667
0.804593
0.821087
0.81746
0.811111
0.821183
0.821033
0.821174
0.810894
0.866433
0.563252
0.821258
0.845073
0.820871
0.803869
0.809692
0.821931
0.843469
0.8028
0.803959
0.816392
0.670932
0.821319
0.810247
0.809911
0.820478
0.821111
0.821134
0.821203
0.56194
0.81295
0.730387
0.887247
0.826235
0.731441
0.695765
0.822159
0.805085
0.820702
0.6577
0.80301
0.821205
0.658941
0.802248
0.805074
0.818074
0.81025
0.859541
0.810538
0.621515
0.802723
0.77566
0.811946
0.890423
0.807877
0.816152
0.820993
0.835252
0.821209
0.827787
0.84017
0.647321
0.807667
0.666627
0.821255
0.821205
0.705916
0.821146
0.810413
0.708044
0.820252
0.713599
0.863658
0.785411
0.821523
0.821361
0.821098
0.68217
0.82126
0.644217
0.802049
0.793771
0.827553
0.822044
0.723535
0.767249
0.834601
0.82059
0.824772
0.827342
0.821211
0.830353
0.801681
0.571381
0.754736
0.764741
0.728827
0.841558
0.825003
0.835661
0.783079
0.803294
0.821298
0.821395
0.821367
0.777785
0.581733
0.803683
0.578694
0.8127
0.826874
0.802048
0.80434
0.8157
0.806805
0.788232
0.735723
0.821197
0.861469
0.818274
0.801443
0.735435
0.811542
0.790429
0.836741
0.636868
0.797057
0.812279
0.801187
0.696356
0.820921
0.816223
0.860096
0.585782
0.808196
0.803732
0.820498
0.641346
0.82118
0.803791
0.803938
0.803537
0.821194
0.821202
0.822427
0.82128
0.711702
0.805271
0.803662
0.821342
0.897227
0.821186
0.779661
0.84291
0.799904
0.803525
0.616059
0.821312
0.803821
0.828218
0.802974
0.868563
0.819539
0.855953
0.802735
0.826185
0.780454
0.579138
0.760698
0.799754
0.810213
0.814563
0.821141
0.57569
0.863873
0.860914
0.775437
0.759403
0.738253
0.814807
0.850552
0.821306
0.815381
0.821336
0.804907
0.725293
0.804074
0.801326
0.764383
0.829286
0.828289
0.863902
0.822113
0.821379
0.664746
0.809579
0.821349
0.802656
0.779178
0.818689
0.803464
0.820643
0.83174
0.799518
0.805393
0.802794
0.820279
0.842814
0.804726
0.801232
0.804094
0.766275
0.825599
0.585979
0.870248
0.804393
0.567088
0.805261
0.807603
0.82177
0.654803
0.621664
0.803568
0.806113
0.803036
0.862864
0.781207
0.820163
0.803502
0.869369
0.805382
0.805103
0.829781
0.821526
0.822557
0.826669
0.825865
0.869369
0.736451
0.854654
0.823311
0.664808
0.80441
0.803783
0.80425
0.826654
0.828593
0.8057
0.803184
0.802231
0.827998
0.804932
0.804348
0.801952
0.829495
0.804619
0.80317
0.806774
0.83245
0.803136
0.803534
0.827026
0.801613
0.822156
0.662602
0.83128
0.852615
0.806438
0.825369
0.803985
0.833404
0.84142
0.80392
0.826908
0.802228
0.809328
0.79062
0.803254
0.80492
0.807053
0.807501
0.806752
0.824384
0.821759
0.8121
0.835821
0.804592
0.803009
0.802108
0.789775
0.837806
0.803938
0.825125
0.822028
0.808525
0.807034
0.803318
0.842511
0.868216
0.801866
0.688402
0.802658
0.845755
0.822961
0.807662
0.805116
0.821086
0.847767
0.654838
0.831351
0.799853
0.853547
0.824589
0.813014
0.814686
0.810489
0.804609
0.813943
0.809781
0.606131
0.851228
0.795731
0.821458
0.857468
0.825118
0.768737
0.810136
0.821594
0.821542
0.803502
0.672676
0.811742
0.865604
0.806956
0.802322
0.781816
0.873052
0.801893
0.878758
0.810769
0.823371
0.826225
0.804875
0.805617
0.820734
0.822451
0.805996
0.820975
0.819007
0.88295
0.821854
0.809992
0.802646
0.832428
0.811185
0.841404
0.810544
0.80766
0.814652
0.822968
0.833582
0.820987
0.827398
0.833978
0.816597
0.716448
0.69856
0.821082
0.823874
0.806425
0.820804
0.613858
0.857222
0.801721
0.806911
0.820755
0.820944
0.804745
0.820288
0.802571
0.802921
0.8101
0.819128
0.76473
0.789356
0.828173
0.845357
0.836238
0.80249
0.810513
0.803883
0.813601
0.807378
0.801778
0.801849
0.802565
0.81475
0.798917
0.805209
0.839561
0.833823
0.740328
0.671517
0.808379
0.717553
0.801968
0.632364
0.805256
0.808423
0.805347
0.824206
0.836253
0.821332
0.821168
0.811084
0.804623
0.883169
0.82276
0.807406
0.775239
0.63562
0.810955
0.809057
0.772764
0.821536
0.821325
0.792928
0.801668
0.804797
0.675363
0.833765
0.804066
0.787988
0.781897
0.855326
0.810665
0.805304
0.805208
0.812506
0.81198
0.576865
0.803319
0.843292
0.821346
0.799686
0.611742
0.816313
0.821372
0.82149
0.837935
0.821306
0.805008
0.827325
0.807462
0.592386
0.809709
0.746774
0.799431
0.821243
0.726433
0.821862
0.848772
0.832684
0.675184
0.8921
0.787515
0.783834
0.797829
0.780746
0.810395
0.852788
0.810283
0.803916
0.821223
0.815936
0.784861
0.787869
0.821067
0.810761
0.83591
0.826331
0.836836
0.806939
0.801858
0.821317
0.859399
0.821378
0.820349
0.821194
0.62123
0.796767
0.828541
0.832524
0.868232
0.821113
0.820643
0.5862
0.816984
0.802638
0.820222
0.817377
0.850586
0.821165
0.811757
0.883006
0.769169
0.81377
0.821038
0.81592
0.805962
0.82144
0.666654
0.801441
0.852696
0.834633
0.812856
0.81954
0.821183
0.81024
0.711775
0.818608
0.802665
0.842422
0.824299
0.814208
0.835
0.798429
0.817813
0.823713
0.811394
0.825099
0.754081
0.857313
0.82482
0.816246
0.821205
0.820948
0.821875
0.823133
0.821056
0.817216
0.844544
0.824499
0.802482
0.82652
0.831169
0.818424
0.815777
0.802555
0.803006
0.821288
0.824903
0.830641
0.821158
0.822521
0.802309
0.816535
0.82124
0.820911
0.803073
0.821707
0.821066
0.804082
0.821307
0.839547
0.800713
0.816167
0.82398
0.583809
0.821342
0.824129
0.820905
0.821265
0.827265
0.832893
0.822108
0.824746
0.710091
0.821308
0.802985
0.822298
0.821249
0.836202
0.827028
0.819165
0.833966
0.829984
0.818758
0.819768
0.822015
0.810254
0.821244
0.822286
0.820854
0.836463
0.820589
0.82234
0.803256
0.8214
0.821119
0.596858
0.650012
0.814988
0.826933
0.80372
0.827406
0.822502
0.843245
0.716289
0.821252
0.738512
0.821863
0.817163
0.821204
0.833175
0.821212
0.807621
0.821351
0.833601
0.842017
0.820679
0.726833
0.82033
0.82244
0.801927
0.803408
0.8221
0.858516
0.820829
0.821206
0.85265
0.832441
0.845946
0.615917
0.833586
0.821286
0.817596
0.823607
0.853382
0.823888
0.725728
0.801785
0.832883
0.802334
0.801858
0.806866
0.754001
0.821201
0.821319
0.73605
0.821247
0.828539
0.821008
0.820998
0.801552
0.824277
0.821393
0.825907
0.809394
0.813602
0.821137
0.681069
0.824937
0.821115
0.82144
0.657785
0.713553
0.613919
0.824551
0.628917
0.856788
0.734283
0.844165
0.82041
0.737306
0.824845
0.822109
0.748938
0.809031
0.824358
0.794897
0.822657
0.822462
0.822391
0.821364
0.814919
0.804247
0.743856
0.838667
0.825554
0.822799
0.801268
0.816693
0.804759
0.822567
0.820971
0.857205
0.823735
0.651456
0.819498
0.824688
0.824606
0.780144
0.816971
0.807422
0.819701
0.848166
0.613284
0.811486
0.801729
0.822066
0.823699
0.823712
0.820505
0.824545
0.820143
0.821022
0.803596
0.82064
0.849495
0.820828
0.79288
0.818802
0.636298
0.71597
0.821297
0.823242
0.804116
0.82767
0.734955
0.803446
0.803413
0.825887
0.666296
0.823752
0.801824
0.822169
0.86823
0.78724
0.827361
0.824053
0.825198
0.821354
0.772625
0.80317
0.82109
0.903129
0.828406
0.822872
0.833257
0.817462
0.871931
0.715287
0.674678
0.854579
0.803145
0.669183
0.852473