# vtk DataFile Version 1.0
unstructured grid
ascii
DATASET UNSTRUCTURED_GRID
points 7812 float
-1 0 0
-1 1 0
2 0 0
2 1 0
0 0 0
1 0 0
-1 1 0.1
-1 0 0.1
0 0 0.1
1 0 0.1
2 0 0.1
2 1 0.1
-0.99 0 0
-0.98 0 0
-0.97 0 0
-0.96 0 0
-0.95 0 0
-0.94 0 0
-0.93 0 0
-0.92 0 0
-0.91 0 0
-0.9 0 0
-0.89 0 0
-0.88 0 0
-0.87 0 0
-0.86 0 0
-0.85 0 0
-0.84 0 0
-0.83 0 0
-0.82 0 0
-0.81 0 0
-0.8 0 0
-0.79 0 0
-0.78 0 0
-0.77 0 0
-0.76 0 0
-0.75 0 0
-0.74 0 0
-0.73 0 0
-0.72 0 0
-0.71 0 0
-0.7 0 0
-0.69 0 0
-0.68 0 0
-0.67 0 0
-0.66 0 0
-0.65 0 0
-0.64 0 0
-0.63 0 0
-0.62 0 0
-0.61 0 0
-0.6 0 0
-0.59 0 0
-0.58 0 0
-0.57 0 0
-0.56 0 0
-0.55 0 0
-0.54 0 0
-0.53 0 0
-0.52 0 0
-0.51 0 0
-0.5 0 0
-0.49 0 0
-0.48 0 0
-0.47 0 0
-0.46 0 0
-0.45 0 0
-0.44 0 0
-0.43 0 0
-0.42 0 0
-0.41 0 0
-0.4 0 0
-0.39 0 0
-0.38 0 0
-0.37 0 0
-0.36 0 0
-0.35 0 0
-0.34 0 0
-0.33 0 0
-0.32 0 0
-0.31 0 0
-0.3 0 0
-0.29 0 0
-0.28 0 0
-0.27 0 0
-0.26 0 0
-0.25 0 0
-0.24 0 0
-0.23 0 0
-0.22 0 0
-0.21 0 0
-0.2 0 0
-0.19 0 0
-0.18 0 0
-0.17 0 0
-0.16 0 0
-0.15 0 0
-0.14 0 0
-0.13 0 0
-0.12 0 0
-0.11 0 0
-0.1 0 0
-0.09 0 0
-0.08 0 0
-0.07 0 0
-0.06 0 0
-0.05 0 0
-0.04 0 0
-0.03 0 0
-0.02 0 0
-0.01 0 0
1.01 0 0
1.02 0 0
1.03 0 0
1.04 0 0
1.05 0 0
1.06 0 0
1.07 0 0
1.08 0 0
1.09 0 0
1.1 0 0
1.11 0 0
1.12 0 0
1.13 0 0
1.14 0 0
1.15 0 0
1.16 0 0
1.17 0 0
1.18 0 0
1.19 0 0
1.2 0 0
1.21 0 0
1.22 0 0
1.23 0 0
1.24 0 0
1.25 0 0
1.26 0 0
1.27 0 0
1.28 0 0
1.29 0 0
1.3 0 0
1.31 0 0
1.32 0 0
1.33 0 0
1.34 0 0
1.35 0 0
1.36 0 0
1.37 0 0
1.38 0 0
1.39 0 0
1.4 0 0
1.41 0 0
1.42 0 0
1.43 0 0
1.44 0 0
1.45 0 0
1.46 0 0
1.47 0 0
1.48 0 0
1.49 0 0
1.5 0 0
1.51 0 0
1.52 0 0
1.53 0 0
1.54 0 0
1.55 0 0
1.56 0 0
1.57 0 0
1.58 0 0
1.59 0 0
1.6 0 0
1.61 0 0
1.62 0 0
1.63 0 0
1.64 0 0
1.65 0 0
1.66 0 0
1.67 0 0
1.68 0 0
1.69 0 0
1.7 0 0
1.71 0 0
1.72 0 0
1.73 0 0
1.74 0 0
1.75 0 0
1.76 0 0
1.77 0 0
1.78 0 0
1.79 0 0
1.8 0 0
1.81 0 0
1.82 0 0
1.83 0 0
1.84 0 0
1.85 0 0
1.86 0 0
1.87 0 0
1.88 0 0
1.89 0 0
1.9 0 0
1.91 0 0
1.92 0 0
1.93 0 0
1.94 0 0
1.95 0 0
1.96 0 0
1.97 0 0
1.98 0 0
1.99 0 0
2 0.010289 0
2 0.0215307 0
2 0.0338135 0
2 0.0472336 0
2 0.0618965 0
2 0.0779171 0
2 0.0954213 0
2 0.114546 0
2 0.135442 0
2 0.158274 0
2 0.183219 0
2 0.210474 0
2 0.240253 0
2 0.27279 0
2 0.308339 0
2 0.347181 0
2 0.389619 0
2 0.435987 0
2 0.486649 0
2 0.542002 0
2 0.602481 0
2 0.66856 0
2 0.740758 0
2 0.819642 0
2 0.90583 0
1.9 1 0
1.8 1 0
1.7 1 0
1.6 1 0
1.5 1 0
1.4 1 0
1.3 1 0
1.2 1 0
1.1 1 0
1 1 0
0.9 1 0
0.8 1 0
0.7 1 0
0.6 1 0
0.5 1 0
0.4 1 0
0.3 1 0
0.2 1 0
0.1 1 0
3.69793e-12 1 0
-0.1 1 0
-0.2 1 0
-0.3 1 0
-0.4 1 0
-0.5 1 0
-0.6 1 0
-0.7 1 0
-0.8 1 0
-0.9 1 0
-1 0.90583 0
-1 0.819642 0
-1 0.740758 0
-1 0.66856 0
-1 0.602481 0
-1 0.542002 0
-1 0.486649 0
-1 0.435987 0
-1 0.389619 0
-1 0.347181 0
-1 0.308339 0
-1 0.27279 0
-1 0.240253 0
-1 0.210474 0
-1 0.183219 0
-1 0.158274 0
-1 0.135442 0
-1 0.114546 0
-1 0.0954213 0
-1 0.0779171 0
-1 0.0618965 0
-1 0.0472336 0
-1 0.0338135 0
-1 0.0215307 0
-1 0.010289 0
0.00921362 0.00379763 0
0.0184561 0.00752451 0
0.0277268 0.0111804 0
0.0370253 0.0147652 0
0.0463511 0.0182786 0
0.0557034 0.0217203 0
0.0650819 0.0250903 0
0.074486 0.0283883 0
0.083915 0.0316141 0
0.0933685 0.0347675 0
0.102846 0.0378484 0
0.112347 0.0408565 0
0.12187 0.0437917 0
0.131416 0.0466538 0
0.140983 0.0494427 0
0.150572 0.0521581 0
0.160181 0.0547999 0
0.16981 0.0573681 0
0.179458 0.0598623 0
0.189125 0.0622825 0
0.198811 0.0646285 0
0.208514 0.0669001 0
0.218234 0.0690974 0
0.227971 0.07122 0
0.237724 0.073268 0
0.247493 0.0752411 0
0.257276 0.0771393 0
0.267073 0.0789625 0
0.276884 0.0807105 0
0.286708 0.0823832 0
0.296545 0.0839806 0
0.306394 0.0855025 0
0.316254 0.0869488 0
0.326125 0.0883196 0
0.336006 0.0896146 0
0.345896 0.0908339 0
0.355796 0.0919773 0
0.365704 0.0930447 0
0.375621 0.0940362 0
0.385544 0.0949517 0
0.395474 0.095791 0
0.40541 0.0965542 0
0.415352 0.0972412 0
0.425299 0.097852 0
0.43525 0.0983865 0
0.445205 0.0988447 0
0.455164 0.0992266 0
0.465125 0.0995321 0
0.475088 0.0997613 0
0.485052 0.0999141 0
0.495017 0.0999904 0
0.504983 0.0999904 0
0.514948 0.0999141 0
0.524912 0.0997613 0
0.534875 0.0995321 0
0.544836 0.0992266 0
0.554795 0.0988447 0
0.56475 0.0983865 0
0.574701 0.097852 0
0.584648 0.0972412 0
0.59459 0.0965542 0
0.604526 0.095791 0
0.614456 0.0949517 0
0.624379 0.0940362 0
0.634296 0.0930447 0
0.644204 0.0919773 0
0.654104 0.0908339 0
0.663994 0.0896146 0
0.673875 0.0883196 0
0.683746 0.0869488 0
0.693606 0.0855025 0
0.703455 0.0839806 0
0.713292 0.0823832 0
0.723116 0.0807105 0
0.732927 0.0789625 0
0.742724 0.0771393 0
0.752508 0.0752411 0
0.762276 0.073268 0
0.772029 0.07122 0
0.781766 0.0690974 0
0.791486 0.0669001 0
0.801189 0.0646285 0
0.810875 0.0622825 0
0.820542 0.0598623 0
0.83019 0.0573681 0
0.839819 0.0547999 0
0.849428 0.0521581 0
0.859017 0.0494427 0
0.868584 0.0466538 0
0.87813 0.0437917 0
0.887653 0.0408565 0
0.897154 0.0378484 0
0.906631 0.0347675 0
0.916085 0.0316141 0
0.925514 0.0283883 0
0.934918 0.0250903 0
0.944297 0.0217203 0
0.953649 0.0182786 0
0.962975 0.0147652 0
0.972273 0.0111804 0
0.981544 0.00752451 0
0.990786 0.00379763 0
-1 0.90583 0.1
-1 0.819642 0.1
-1 0.740758 0.1
-1 0.66856 0.1
-1 0.602481 0.1
-1 0.542002 0.1
-1 0.486649 0.1
-1 0.435987 0.1
-1 0.389619 0.1
-1 0.347181 0.1
-1 0.308339 0.1
-1 0.27279 0.1
-1 0.240253 0.1
-1 0.210474 0.1
-1 0.183219 0.1
-1 0.158274 0.1
-1 0.135442 0.1
-1 0.114546 0.1
-1 0.0954213 0.1
-1 0.0779171 0.1
-1 0.0618965 0.1
-1 0.0472336 0.1
-1 0.0338135 0.1
-1 0.0215307 0.1
-1 0.010289 0.1
-0.99 0 0.1
-0.98 0 0.1
-0.97 0 0.1
-0.96 0 0.1
-0.95 0 0.1
-0.94 0 0.1
-0.93 0 0.1
-0.92 0 0.1
-0.91 0 0.1
-0.9 0 0.1
-0.89 0 0.1
-0.88 0 0.1
-0.87 0 0.1
-0.86 0 0.1
-0.85 0 0.1
-0.84 0 0.1
-0.83 0 0.1
-0.82 0 0.1
-0.81 0 0.1
-0.8 0 0.1
-0.79 0 0.1
-0.78 0 0.1
-0.77 0 0.1
-0.76 0 0.1
-0.75 0 0.1
-0.74 0 0.1
-0.73 0 0.1
-0.72 0 0.1
-0.71 0 0.1
-0.7 0 0.1
-0.69 0 0.1
-0.68 0 0.1
-0.67 0 0.1
-0.66 0 0.1
-0.65 0 0.1
-0.64 0 0.1
-0.63 0 0.1
-0.62 0 0.1
-0.61 0 0.1
-0.6 0 0.1
-0.59 0 0.1
-0.58 0 0.1
-0.57 0 0.1
-0.56 0 0.1
-0.55 0 0.1
-0.54 0 0.1
-0.53 0 0.1
-0.52 0 0.1
-0.51 0 0.1
-0.5 0 0.1
-0.49 0 0.1
-0.48 0 0.1
-0.47 0 0.1
-0.46 0 0.1
-0.45 0 0.1
-0.44 0 0.1
-0.43 0 0.1
-0.42 0 0.1
-0.41 0 0.1
-0.4 0 0.1
-0.39 0 0.1
-0.38 0 0.1
-0.37 0 0.1
-0.36 0 0.1
-0.35 0 0.1
-0.34 0 0.1
-0.33 0 0.1
-0.32 0 0.1
-0.31 0 0.1
-0.3 0 0.1
-0.29 0 0.1
-0.28 0 0.1
-0.27 0 0.1
-0.26 0 0.1
-0.25 0 0.1
-0.24 0 0.1
-0.23 0 0.1
-0.22 0 0.1
-0.21 0 0.1
-0.2 0 0.1
-0.19 0 0.1
-0.18 0 0.1
-0.17 0 0.1
-0.16 0 0.1
-0.15 0 0.1
-0.14 0 0.1
-0.13 0 0.1
-0.12 0 0.1
-0.11 0 0.1
-0.1 0 0.1
-0.09 0 0.1
-0.08 0 0.1
-0.07 0 0.1
-0.06 0 0.1
-0.05 0 0.1
-0.04 0 0.1
-0.03 0 0.1
-0.02 0 0.1
-0.01 0 0.1
0.00921362 0.00379763 0.1
0.0184561 0.00752451 0.1
0.0277268 0.0111804 0.1
0.0370253 0.0147652 0.1
0.0463511 0.0182786 0.1
0.0557034 0.0217203 0.1
0.0650819 0.0250903 0.1
0.074486 0.0283883 0.1
0.083915 0.0316141 0.1
0.0933685 0.0347675 0.1
0.102846 0.0378484 0.1
0.112347 0.0408565 0.1
0.12187 0.0437917 0.1
0.131416 0.0466538 0.1
0.140983 0.0494427 0.1
0.150572 0.0521581 0.1
0.160181 0.0547999 0.1
0.16981 0.0573681 0.1
0.179458 0.0598623 0.1
0.189125 0.0622825 0.1
0.198811 0.0646285 0.1
0.208514 0.0669001 0.1
0.218234 0.0690974 0.1
0.227971 0.07122 0.1
0.237724 0.073268 0.1
0.247493 0.0752411 0.1
0.257276 0.0771393 0.1
0.267073 0.0789625 0.1
0.276884 0.0807105 0.1
0.286708 0.0823832 0.1
0.296545 0.0839806 0.1
0.306394 0.0855025 0.1
0.316254 0.0869488 0.1
0.326125 0.0883196 0.1
0.336006 0.0896146 0.1
0.345896 0.0908339 0.1
0.355796 0.0919773 0.1
0.365704 0.0930447 0.1
0.375621 0.0940362 0.1
0.385544 0.0949517 0.1
0.395474 0.095791 0.1
0.40541 0.0965542 0.1
0.415352 0.0972412 0.1
0.425299 0.097852 0.1
0.43525 0.0983865 0.1
0.445205 0.0988447 0.1
0.455164 0.0992266 0.1
0.465125 0.0995321 0.1
0.475088 0.0997613 0.1
0.485052 0.0999141 0.1
0.495017 0.0999904 0.1
0.504983 0.0999904 0.1
0.514948 0.0999141 0.1
0.524912 0.0997613 0.1
0.534875 0.0995321 0.1
0.544836 0.0992266 0.1
0.554795 0.0988447 0.1
0.56475 0.0983865 0.1
0.574701 0.097852 0.1
0.584648 0.0972412 0.1
0.59459 0.0965542 0.1
0.604526 0.095791 0.1
0.614456 0.0949517 0.1
0.624379 0.0940362 0.1
0.634296 0.0930447 0.1
0.644204 0.0919773 0.1
0.654104 0.0908339 0.1
0.663994 0.0896146 0.1
0.673875 0.0883196 0.1
0.683746 0.0869488 0.1
0.693606 0.0855025 0.1
0.703455 0.0839806 0.1
0.713292 0.0823832 0.1
0.723116 0.0807105 0.1
0.732927 0.0789625 0.1
0.742724 0.0771393 0.1
0.752508 0.0752411 0.1
0.762276 0.073268 0.1
0.772029 0.07122 0.1
0.781766 0.0690974 0.1
0.791486 0.0669001 0.1
0.801189 0.0646285 0.1
0.810875 0.0622825 0.1
0.820542 0.0598623 0.1
0.83019 0.0573681 0.1
0.839819 0.0547999 0.1
0.849428 0.0521581 0.1
0.859017 0.0494427 0.1
0.868584 0.0466538 0.1
0.87813 0.0437917 0.1
0.887653 0.0408565 0.1
0.897154 0.0378484 0.1
0.906631 0.0347675 0.1
0.916085 0.0316141 0.1
0.925514 0.0283883 0.1
0.934918 0.0250903 0.1
0.944297 0.0217203 0.1
0.953649 0.0182786 0.1
0.962975 0.0147652 0.1
0.972273 0.0111804 0.1
0.981544 0.00752451 0.1
0.990786 0.00379763 0.1
1.01 0 0.1
1.02 0 0.1
1.03 0 0.1
1.04 0 0.1
1.05 0 0.1
1.06 0 0.1
1.07 0 0.1
1.08 0 0.1
1.09 0 0.1
1.1 0 0.1
1.11 0 0.1
1.12 0 0.1
1.13 0 0.1
1.14 0 0.1
1.15 0 0.1
1.16 0 0.1
1.17 0 0.1
1.18 0 0.1
1.19 0 0.1
1.2 0 0.1
1.21 0 0.1
1.22 0 0.1
1.23 0 0.1
1.24 0 0.1
1.25 0 0.1
1.26 0 0.1
1.27 0 0.1
1.28 0 0.1
1.29 0 0.1
1.3 0 0.1
1.31 0 0.1
1.32 0 0.1
1.33 0 0.1
1.34 0 0.1
1.35 0 0.1
1.36 0 0.1
1.37 0 0.1
1.38 0 0.1
1.39 0 0.1
1.4 0 0.1
1.41 0 0.1
1.42 0 0.1
1.43 0 0.1
1.44 0 0.1
1.45 0 0.1
1.46 0 0.1
1.47 0 0.1
1.48 0 0.1
1.49 0 0.1
1.5 0 0.1
1.51 0 0.1
1.52 0 0.1
1.53 0 0.1
1.54 0 0.1
1.55 0 0.1
1.56 0 0.1
1.57 0 0.1
1.58 0 0.1
1.59 0 0.1
1.6 0 0.1
1.61 0 0.1
1.62 0 0.1
1.63 0 0.1
1.64 0 0.1
1.65 0 0.1
1.66 0 0.1
1.67 0 0.1
1.68 0 0.1
1.69 0 0.1
1.7 0 0.1
1.71 0 0.1
1.72 0 0.1
1.73 0 0.1
1.74 0 0.1
1.75 0 0.1
1.76 0 0.1
1.77 0 0.1
1.78 0 0.1
1.79 0 0.1
1.8 0 0.1
1.81 0 0.1
1.82 0 0.1
1.83 0 0.1
1.84 0 0.1
1.85 0 0.1
1.86 0 0.1
1.87 0 0.1
1.88 0 0.1
[...]
CELL_DATA 7425
SCALARS rho float
LOOKUP_TABLE default
0.589678
0.805174
0.820297
0.828128
0.800103
0.819864
0.821445
0.815052
0.814025
0.739499
0.86377
0.810352
0.814834
0.827984
0.804314
0.81795
0.799386
0.814267
0.803584
0.767806
0.831855
0.822284
0.725717
0.828664
0.803994
0.70534
0.831772
0.849347
0.800322
0.808374
0.819917
0.724736
0.803732
0.65415
0.524156
0.828631
0.80361
0.815032
0.811462
0.82857
0.717875
0.70648
0.790588
0.697358
0.589509
0.748954
0.800017
0.814772
0.668682
0.718654
0.746358
0.805293
0.812574
0.799718
0.707707
0.701224
0.823598
0.800569
0.739374
0.702152
0.71239
0.807816
0.81424
0.799991
0.798939
0.818392
0.586778
0.773986
0.698812
0.808311
0.804682
0.803264
0.883596
0.82136
0.811095
0.814082
0.805192
0.800587
0.814244
0.757889
0.816815
0.807397
0.811253
0.789135
0.836317
0.801686
0.576824
0.830492
0.546133
0.848896
0.701557
0.730646
0.846264
0.803287
0.818186
0.759495
0.836617
0.788373
0.826274
0.803126
0.808895
0.738598
0.80339
0.828805
0.599305
0.811375
0.82499
0.709036
0.815871
0.799834
0.817503
0.785032
0.790204
0.812599
0.790324
0.786694
0.831818
0.803163
0.697114
0.645646
0.805187
0.777941
0.813995
0.790733
0.859299
0.839688
0.807863
0.804841
0.662746
0.509029
0.815357
0.657112
0.519769
0.869037
0.669515
0.800196
0.811322
0.724712
0.584406
0.726826
0.725063
0.810133
0.810638
0.70497
0.803648
0.780004
0.567801
0.789367
0.782715
0.828387
0.817307
0.701551
0.803509
0.744473
0.703475
0.803389
0.810752
0.830999
0.798172
0.656143
0.802797
0.698708
0.8017
0.830339
0.821178
0.802499
0.814095
0.785452
0.80646
0.801284
0.820448
0.805137
0.792014
0.799795
0.800383
0.741752
0.804306
0.759985
0.597508
0.699669
0.800316
0.79342
0.880005
0.832363
0.663156
0.82361
0.799304
0.827972
0.800489
0.814379
0.813693
0.803308
0.807129
0.702879
0.815883
0.819971
0.770645
0.797834
0.862222
0.807967
0.812282
0.812207
0.614824
0.839746
0.575453
0.536284
0.597582
0.606078
0.828703
0.879547
0.80768
0.798817
0.841748
0.814028
0.817473
0.821482
0.816066
0.639536
0.564136
0.814679
0.549326
0.59588
0.701371
0.812528
0.814968
0.814082
0.833679
0.814003
0.865442
0.707493
0.835749
0.715434
0.805361
0.80404
0.802195
0.715177
0.722566
0.621062
0.702364
0.86395
0.876877
0.807094
0.807859
0.799591
0.812021
0.718435
0.822312
0.80087
0.826323
0.794893
0.810864
0.720812
0.813896
0.824407
0.7415
0.531722
0.800395
0.736354
0.843872
0.815231
0.72588
0.81642
0.815724
0.850281
0.810454
0.804607
0.803351
0.826298
0.86111
0.806095
0.620775
0.849295
0.812752
0.805753
0.828152
0.837754
0.813984
0.822099
0.793797
0.815945
0.867897
0.850279
0.827892
0.837264
0.802934
0.817959
0.803254
0.759879
0.703567
0.583254
0.697583
0.803068
0.813939
0.816822
0.855771
0.780087
0.647232
0.827708
0.525647
0.774963
0.801573
0.647903
0.506894
0.640608
0.816064
0.814241
0.814027
0.813664
0.827346
0.774806
0.811648
0.802795
0.814001
0.841199
0.868478
0.834093
0.803071
0.700206
0.796529
0.834701
0.692928
0.799402
0.802243
0.865081
0.817901
0.595048
0.814367
0.742205
0.853337
0.733335
0.811074
0.907758
0.800544
0.796144
0.660526
0.637132
0.709522
0.781516
0.827163
0.81581
0.814649
0.884039
0.859122
0.800209
0.799723
0.826278
0.740534
0.80277
0.879628
0.801481
0.80542
0.801332
0.802678
0.813958
0.816566
0.81719
0.638619
0.830548
0.649732
0.808882
0.641713
0.803327
0.802398
0.840804
0.730669
0.81656
0.80937
0.81778
0.800079
0.802602
0.811533
0.70035
0.824714
0.814091
0.813921
0.800798
0.737102
0.562279
0.80657
0.812048
0.803281
0.813979
0.795244
0.514973
0.84666
0.814296
0.803964
0.786364
0.814265
0.805168
0.803552
0.817065
0.807666
0.823193
0.769308
0.813178
0.807962
0.565061
0.803777
0.641617
0.839136
0.637802
0.815556
0.878151
0.598204
0.818518
0.749892
0.804559
0.873578
0.5382
0.823788
0.822952
0.803607
0.82638
0.811518
0.824131
0.831221
0.825474
0.74136
0.82814
0.761656
0.810729
0.794506
0.794265
0.759445
0.805789
0.802166
0.815229
0.75365
0.80514
0.606493
0.61621
0.691901
0.813813
0.844639
0.865163
0.83042
0.799261
0.813727
0.805355
0.819166
0.68189
0.801538
0.743917
0.824502
0.815627
0.806136
0.709419
0.728396
0.537131
0.607376
0.80187
0.613082
0.793342
0.76564
0.770723
0.726207
0.763303
0.76843
0.810406
0.815811
0.820292
0.812505
0.712669
0.607991
0.839515
0.807722
0.783553
0.810556
0.802928
0.837085
0.720828
0.855669
0.763958
0.730631
0.765502
0.812359
0.548393
0.799484
0.842099
0.813816
0.814735
0.810661
0.799862
0.781238
0.836126
0.803201
0.843446
0.721982
0.705427
0.800779
0.795795
0.822709
0.710315
0.848395
0.801126
0.816872
0.799367
0.779614
0.80896
0.59664
0.678823
0.633942
0.813864
0.804352
0.826973
0.750064
0.810763
0.815686
0.821114
0.799649
0.731334
0.797694
0.815013
0.803287
0.70649
0.814557
0.819622
0.840591
0.811812
0.825986
0.862575
0.857594
0.745233
0.605373
0.83842
0.806303
0.843747
0.815144
0.82341
0.814497
0.814752
0.648058
0.805938
0.810014
0.813915
0.792509
0.811118
0.805395
0.8617
0.799337
0.813831
0.815603
0.872204
0.599618
0.814432
0.843283
0.883515
0.533802
0.817224
0.830515
0.796381
0.81496
0.795588
0.867901
0.812781
0.831929
0.813448
0.621145
0.802591
0.80429
0.693752
0.853464
0.759689
0.802054
0.814901
0.813737
0.860851
0.795592
0.834075
0.835265
0.785189
0.825668
0.843147
0.800404
0.811156
0.807618
0.805468
0.815594
0.802736
0.845654
0.76957
0.809957
0.803366
0.815768
0.72451
0.813975
0.819125
0.753407
0.814552
0.816977
0.828247
0.825761
0.801332
0.801137
0.850834
0.767937
0.825895
0.84465
0.804698
0.510583
0.813945
0.828894
0.852712
0.813487
0.803211
0.808872
0.855377
0.780215
0.802713
0.801792
0.814014
0.72948
0.80322
0.83051
0.808782
0.795238
0.794354
0.843671
0.806761
0.845674
0.802103
0.824917
0.813722
0.804348
0.842226
0.813913
0.681786
0.819542
0.80726
0.813794
0.906253
0.801248
0.816572
0.800895
0.800895
0.817036
0.800995
0.803527
0.78376
0.747398
0.807367
0.813982
0.758868
0.79223
0.823695
0.813191
0.822955
0.80675
0.82642
0.875539
0.831237
0.580322
0.709846
0.841246
0.818089
0.844593
0.815627
0.850483
0.808007
0.81294
0.799977
0.838899
0.861281
0.853193
0.73288
0.815021
0.822843
0.743612
0.817806
0.776303
0.800672
0.734308
0.816902
0.831453
0.823722
0.863096
0.81512
0.814303
0.811089
0.815519
0.836258
0.812389
0.799309
0.810404
0.738889
0.812402
0.774231
0.833348
0.813444
0.640337
0.778066
0.811766
0.799808
0.820571
0.803129
0.815552
0.818101
0.80496
0.820134
0.804295
0.806559
0.601074
0.847489
0.825779
0.82734
0.815587
0.803334
0.702985
0.807255
0.907942
0.814498
0.801742
0.813852
0.782706
0.80798
0.814203
0.822003
0.814844
0.814241
0.817075
0.694927
0.778676
0.765592
0.81369
0.805778
0.801729
0.623143
0.806406
0.803254
0.709729
0.837821
0.818001
0.802694
0.808066
0.799949
0.818033
0.814512
0.814297
0.813974
0.710717
0.832207
0.800506
0.808135
0.84347
0.81826
0.817115
0.80077
0.753828
0.824459
0.788228
0.82214
0.789757
0.806394
0.821677
0.737875
0.818091
0.655821
0.872314
0.705587
0.845465
0.801629
0.875393
0.794163
0.802037
0.821401
0.836871
0.838914
0.826067
0.820573
0.815543
0.801875
0.80439
0.80862
0.728177
0.827708
0.800232
0.719036
0.83105
0.699197
0.800708
0.861552
0.805762
0.704853
0.798118
0.815023
0.70264
0.785731
0.820126
0.832332
0.807851
0.592784
0.730916
0.812604
0.802046
0.814012
0.801268
0.738144
0.814929
0.816573
0.813573
0.776046
0.803361
0.804665
0.804329
0.562796
0.813809
0.834573
0.583506
0.816044
0.816945
0.815595
0.819138
0.815326
0.825199
0.799791
0.795342
0.770994
0.823332
0.830112
0.825538
0.835792
0.766198
0.80996
0.726785
0.772765
0.809457
0.821796
0.814283
0.8011
0.859367
0.814012
0.801151
0.810575
0.816917
0.816063
0.837161
0.815405
0.813867
0.812148
0.814772
0.800876
0.821708
0.803936
0.823523
0.814456
0.579138
0.814498
0.835016
0.859134
0.838731
0.496749
0.817623
0.805129
0.501571
0.672054
0.648559
0.83479
0.808553
0.81182
0.813822
0.803257
0.817568
0.811414
0.538002
0.689302
0.818631
0.806778
0.816464
0.803622
0.81049
0.811944
0.820936
0.800058
0.695489
0.857077
0.803206
0.814927
0.814571
0.758546
0.491797
0.833461
0.814021
0.741561
0.802761
0.807
0.595671
0.828047
0.815643
0.828347
0.819549
0.826727
0.804874
0.722082
0.645049
0.564434
0.825973
0.809263
0.783119
0.814027
0.780639
0.818679
0.873556
0.763111
0.822322
0.814436
0.826475
0.883791
0.815344
0.812826
0.803448
0.814035
0.693745
0.828828
0.80042
0.810931
0.802433
0.784599
0.854559
0.822735
0.840865
0.822237
0.757446
0.756553
0.804015
0.818848
0.803134
0.805389
0.802786
0.776544
0.815567
0.762531
0.821846
0.663484
0.814897
0.803141
0.735071
0.823708
0.818633
0.740863
0.801349
0.758069
0.882235
0.800843
0.813943
0.763539
0.800804
0.815194
0.804075
0.592083
0.821444
0.799264
0.802171
0.815433
0.826223
0.758177
0.806196
0.842501
0.827652
0.814515
0.836377
0.693649
0.701294
0.814012
0.745015
0.82292
0.772071
0.813932
0.802689
0.810981
0.75278
0.794433
0.765243
0.810798
0.8032
0.632701
0.779397
0.799387
0.850004
0.815284
0.829265
0.530589
0.825586
0.785582
0.859102
0.801073
0.818444
0.800981
0.786487
0.799397
0.826308
0.836165
0.822259
0.817903
0.705242
0.774672
0.816095
0.805523
0.811034
0.804034
0.703685
0.793469
0.803927
0.811328
0.827788
0.851541
0.83243
0.814453
0.800098
0.804792
0.802524
0.780128
0.61355
0.801126
0.732847
0.663485
0.823454
0.799461
0.77728
0.800598
0.754958
0.785632
0.812559
0.822772
0.804009
0.816829
0.817976
0.82113
0.814386
0.809066
0.713163
0.700587
0.642369
0.829885
0.869859
0.815855
0.841941
0.848254
0.86402
0.737625
0.817263
0.863322
0.810893
0.813981
0.816797
0.734035
0.813272
0.807383
0.806878
0.521408
0.814031
0.761944
0.814165
0.813998
0.80365
0.703504
0.8142
0.612516
0.825518
0.80283
0.822697
0.855552
0.80355
0.795613
0.821655
0.812516
0.806103
0.762986
0.515001
0.821607
0.803246
0.829723
0.826403
0.80293
0.807183
0.834936
0.722178
0.505942
0.886462
0.801295
0.816544
0.804458
0.708814
0.79929
0.80064
0.815945
0.737917
0.647987
0.883448
0.715365
0.837079
0.812961
0.833454
0.843133
0.79301
0.804877
0.814541
0.853108
0.739194
0.870951
0.814954
0.565169
0.803149
0.748585
0.853314
0.761304
0.804348
0.804074
0.800223
0.801888
0.809831
0.814004
0.85649
0.806642
0.802929
0.801409
0.800598
0.813343
0.817688
0.802696
0.813589
0.849637
0.803149
0.784153
0.802363
0.840366
0.727364
0.814597
0.814755
0.655335
0.71432
0.805753
0.823672
0.80432
0.516379
0.857392
0.814128
0.833752
0.805449
0.803403
0.801606
0.787001
0.589024
0.804488
0.81694
0.836478
0.821294
0.814024
0.798985
0.748383
0.801766
0.766908
0.787888
0.79997
0.791248
0.751119
0.801397
0.812095
0.811328
0.832653
0.849999
0.556536
0.842389
0.813952
0.821044
0.802537
0.822896
0.812182
0.894781
0.800798
0.868387
0.805871
0.760776
0.862408
0.802423
0.800377
0.824789
0.661895
0.646806
0.803502
0.804
0.697486
0.655772
0.800032
0.824515
0.814081
0.82328
0.734463
0.817748
0.81387
0.826774
0.817634
0.812118
0.813973
0.755396
0.804538
0.816511
0.812436
0.677507
0.568894
0.814011
0.651429
0.722886
0.557739
0.841875
0.800723
0.532091
0.602745
0.827966
0.908174
0.81892
0.65383
0.815071
0.78713
0.802266
0.786829
0.821391
0.810833
0.78863
0.821737
0.801798
0.590167
0.818606
0.767511
0.81674
0.69871
0.822913
0.790363
0.814877
0.80071
0.664322
0.843882
0.807115
0.807288
0.499191
0.817643
0.800943
0.853189
0.710086
0.817891
0.590509
0.721476
0.801937
0.797316
0.734718
0.717106
0.714284
0.51235
0.600634
0.800676
0.522832
0.823292
0.528533
0.757976
0.673954
0.608104
0.545413
0.746289
0.803147
0.713319
0.82201
0.801354
0.803407
0.761963
0.889869
0.79971
0.825137
0.803585
0.813883
0.707077
0.808178
0.737615
0.822614
0.886249
0.834063
0.74868
0.823468
0.771274
0.880111
0.804324
0.75943
0.851102
0.777611
0.800058
0.806009
0.759009
0.746228
0.672005
0.805122
0.803096
0.818649
0.834037
0.613115
0.808622
0.54199
0.66994
0.621202
0.819218
0.821754
0.809927
0.804103
0.617354
0.872699
0.80275
0.803003
0.863852
0.813532
0.772684
0.813267
0.802472
0.818687
0.803193
0.718083
0.80387
0.659389
0.79962
0.804799
0.801776
0.640608
0.812129
0.810851
0.725999
0.81845
0.552377
0.57909
0.804292
0.697669
0.726888
0.574384
0.725151
0.814587
0.704317
0.773524
0.715373
0.813303
0.671612
0.76287
0.80686
0.811486
0.656767
0.802128
0.895321
0.796974
0.817611
0.589373
0.695126
0.801741
0.81402
0.814929
0.85201
0.813662
0.804438
0.80388
0.803444
0.715082
0.716547
0.617596
0.772371
0.53858
0.722829
0.810845
0.815291
0.806777
0.799935
0.556217
0.809971
0.803881
0.557292
0.547535
0.747435
0.803694
0.806892
0.552148
0.798585
0.572151
0.723015
0.609845
0.813975
0.802774
0.599251
0.610202
0.868191
0.8105
0.766163
0.719409
0.625583
0.656763
0.707174
0.816814
0.760531
0.765433
0.625846
0.754804
0.810194
0.816221
0.813541
0.816333
0.866783
0.755717
0.819677
0.803529
0.851655
0.813964
0.802872
0.814094
0.721285
0.813737
0.812798
0.815989
0.811979
0.816685
0.803362
0.818686
0.811232
0.810603
0.818037
0.800258
0.817375
0.819707
0.668883
0.819369
0.868716
0.818936
0.7932
0.647405
0.858941
0.81955
0.825543
0.800182
0.812308
0.757455
0.852948
0.568808
0.728835
0.810035
0.816517
0.804003
0.803465
0.832619
0.805611
0.805674
0.816131
0.78136
0.839061
0.842404
0.81585
0.665737
0.619508
0.816611
0.817409
0.789171
0.850051
0.847655
0.811556
0.814427
0.778519
0.814978
0.8186
0.81501
0.819536
0.81376
0.816668
0.851453
0.816809
0.815318
0.818345
0.818541
0.785289
0.814926
0.804685
0.804858
0.805197
0.819334
0.812559
0.789042
0.753782
0.813651
0.806428
0.809704
0.806532
0.858079
0.80388
0.814876
0.813744
0.805708
0.673158
0.804028
0.813796
0.815693
0.810506
0.813846
0.814277
0.814054
0.810342
0.864669
0.506766
0.813882
0.84211
0.813689
0.803172
0.808761
0.815877
0.840174
0.801069
0.801926
0.813114
0.698538
0.813906
0.808757
0.80803
0.813554
0.813922
0.81405
0.814349
0.516873
0.812227
0.718458
0.886039
0.821723
0.732744
0.678531
0.816223
0.803999
0.819283
0.64801
0.80201
0.814324
0.649455
0.800489
0.804323
0.816156
0.806804
0.857111
0.810008
0.60883
0.801334
0.775252
0.811414
0.889262
0.8039
0.815707
0.819806
0.832611
0.814382
0.823089
0.836841
0.636576
0.803301
0.657244
0.814692
0.814598
0.710809
0.814491
0.805551
0.711785
0.81561
0.704156
0.861418
0.784475
0.815207
0.81396
0.814393
0.669858
0.814611
0.634731
0.800701
0.792673
0.822968
0.816047
0.717668
0.766722
0.830636
0.81374
0.82176
0.822598
0.814415
0.825976
0.800092
0.554623
0.754725
0.760202
0.730612
0.83812
0.823097
0.834862
0.777021
0.802867
0.814068
0.814014
0.814013
0.775222
0.566192
0.803296
0.533553
0.808798
0.825007
0.800324
0.803876
0.813693
0.806206
0.783384
0.732896
0.814369
0.859455
0.814299
0.799879
0.736437
0.8102
0.789058
0.83412
0.510146
0.7962
0.806721
0.799508
0.693638
0.813857
0.811461
0.858107
0.571335
0.80753
0.803356
0.813787
0.616529
0.814104
0.803418
0.803502
0.803128
0.814203
0.814289
0.816904
0.814074
0.716213
0.804662
0.803284
0.814038
0.896315
0.814154
0.774754
0.8418
0.799327
0.803203
0.603307
0.813942
0.803446
0.82637
0.802267
0.866535
0.815438
0.854295
0.80097
0.821338
0.778371
0.560981
0.753829
0.794983
0.804744
0.814101
0.814723
0.558155
0.862064
0.858926
0.769443
0.757953
0.738444
0.81279
0.849177
0.813974
0.814176
0.814008
0.804401
0.726342
0.803617
0.799715
0.764176
0.8249
0.823667
0.862118
0.816461
0.814024
0.539632
0.809044
0.813985
0.801227
0.774665
0.818263
0.803175
0.813851
0.827501
0.798685
0.80406
0.801637
0.815828
0.839592
0.802984
0.799737
0.802168
0.766014
0.820586
0.569561
0.868628
0.803828
0.548521
0.803712
0.803725
0.820179
0.603292
0.608197
0.802084
0.804275
0.801427
0.861014
0.780267
0.815331
0.80305
0.866983
0.804847
0.804577
0.826767
0.816652
0.82078
0.821953
0.82102
0.867731
0.730226
0.852476
0.817962
0.655182
0.80303
0.803306
0.803764
0.821813
0.824145
0.804422
0.80164
0.800634
0.823343
0.80365
0.803757
0.800277
0.825025
0.804095
0.802291
0.806224
0.828442
0.801219
0.802054
0.825023
0.80014
0.816221
0.652807
0.827001
0.850201
0.805279
0.820294
0.803388
0.829331
0.83799
0.803494
0.822154
0.800992
0.807584
0.789789
0.802428
0.80362
0.806498
0.806325
0.805096
0.81927
0.815614
0.811459
0.831962
0.802806
0.8024
0.800493
0.789216
0.834293
0.803315
0.820026
0.816051
0.807484
0.805565
0.803012
0.839362
0.865909
0.800189
0.680211
0.801573
0.842605
0.81738
0.80578
0.804588
0.820117
0.844997
0.61066
0.8295
0.795211
0.85139
0.819456
0.812275
0.813675
0.80883
0.804079
0.813108
0.809016
0.593656
0.848394
0.794931
0.815077
0.854955
0.820002
0.763921
0.80904
0.815332
0.816214
0.803128
0.663181
0.809866
0.863468
0.803158
0.80114
0.776297
0.871457
0.800831
0.877291
0.807224
0.817931
0.821308
0.802912
0.804293
0.813607
0.816691
0.804117
0.814265
0.817334
0.881562
0.8211
0.809457
0.800796
0.828918
0.810654
0.839631
0.809273
0.80709
0.812785
0.817338
0.830376
0.814559
0.823141
0.83301
0.814818
0.702327
0.69484
0.814033
0.8185
0.804486
0.814066
0.520008
0.855175
0.800296
0.806368
0.814772
0.814398
0.804122
0.813438
0.801032
0.80166
0.808572
0.815294
0.757993
0.785265
0.82359
0.843544
0.83531
0.800849
0.805777
0.803452
0.813108
0.806149
0.800128
0.80035
0.801424
0.811404
0.798051
0.803386
0.836002
0.832045
0.731739
0.700032
0.807802
0.701852
0.800154
0.580431
0.80459
0.807331
0.803689
0.818908
0.834505
0.814832
0.813881
0.810458
0.804022
0.881738
0.817064
0.80547
0.77281
0.592775
0.810397
0.80725
0.769986
0.815287
0.814786
0.791759
0.800919
0.804188
0.635724
0.830867
0.803606
0.782384
0.779789
0.853045
0.810138
0.803513
0.803281
0.810829
0.811297
0.523869
0.802183
0.839969
0.814833
0.798828
0.591778
0.815026
0.814963
0.814
0.834255
0.814821
0.804185
0.822563
0.806138
0.578016
0.80891
0.73802
0.798773
0.814565
0.723183
0.815774
0.846864
0.83206
0.665935
0.891063
0.785965
0.778295
0.797103
0.779757
0.80909
0.85087
0.808584
0.803116
0.814486
0.809731
0.78304
0.786299
0.814759
0.808958
0.835311
0.821898
0.836145
0.802019
0.800214
0.81406
0.856967
0.817074
0.818904
0.814305
0.609137
0.795786
0.824468
0.829749
0.866197
0.813649
0.819412
0.513959
0.810632
0.801135
0.813539
0.815424
0.847964
0.814044
0.811251
0.881697
0.765373
0.812899
0.814189
0.809871
0.805384
0.815107
0.657339
0.800705
0.849929
0.833955
0.811192
0.814295
0.814321
0.809717
0.701992
0.813247
0.800826
0.83905
0.819189
0.812277
0.831784
0.793475
0.81232
0.818537
0.809472
0.820001
0.745701
0.855619
0.819682
0.814431
0.814052
0.813712
0.816469
0.817888
0.813767
0.811576
0.84151
0.819318
0.80077
0.82569
0.827473
0.816677
0.81484
0.800946
0.801901
0.814054
0.819745
0.829834
0.81382
0.817198
0.800487
0.810768
0.813863
0.81379
0.802611
0.815522
0.814271
0.803467
0.813893
0.836141
0.800206
0.810258
0.822212
0.56308
0.81508
0.818894
0.81618
0.815772
0.822618
0.82933
0.816412
0.819559
0.702599
0.814067
0.801769
0.81643
0.819607
0.835525
0.822235
0.816002
0.829939
0.825561
0.811662
0.819362
0.820209
0.804979
0.814143
0.816418
0.819863
0.832651
0.813599
0.816506
0.802817
0.813969
0.814034
0.528643
0.630766
0.81453
0.822113
0.802255
0.823077
0.816709
0.842397
0.709212
0.814658
0.731992
0.817956
0.811153
0.814142
0.829826
0.814574
0.805573
0.81395
0.830522
0.840172
0.813756
0.720216
0.81962
0.816812
0.800465
0.803093
0.816136
0.856253
0.813646
0.814326
0.850068
0.829431
0.843606
0.57866
0.829662
0.814836
0.811716
0.818156
0.851469
0.818511
0.719373
0.800148
0.832175
0.800449
0.800306
0.805779
0.748654
0.814346
0.815193
0.726958
0.815194
0.827745
0.814251
0.814878
0.799854
0.819096
0.814012
0.824203
0.808852
0.808878
0.815723
0.701498
0.81979
0.814935
0.814005
0.642326
0.717299
0.601253
0.823668
0.537727
0.854799
0.728252
0.843329
0.813486
0.725241
0.821845
0.816641
0.743402
0.808023
0.819085
0.794531
0.81727
0.816665
0.816594
0.814008
0.808749
0.80377
0.738168
0.836903
0.820827
0.817363
0.799793
0.815785
0.802709
0.816804
0.814372
0.855507
0.818499
0.503526
0.814058
0.819508
0.819386
0.778455
0.816093
0.806866
0.818915
0.846224
0.598617
0.809735
0.799958
0.816139
0.81836
0.818423
0.813432
0.819323
0.814622
0.815365
0.803173
0.815052
0.846532
0.814771
0.792233
0.81238
0.624321
0.717991
0.814067
0.817754
0.803226
0.822957
0.735342
0.803202
0.803224
0.820898
0.702376
0.818343
0.800012
0.816234
0.865858
0.785842
0.822609
0.818715
0.823447
0.814909
0.770158
0.802588
0.814479
0.902414
0.827577
0.817209
0.832646
0.810563
0.869487
0.71822
0.70046
0.85313
0.802785
0.699913
0.851065
0.786394
0.832423