# vtk DataFile Version 1.0
unstructured grid
ascii
DATASET UNSTRUCTURED_GRID
points 7812 float
-1 0 0
-1 1 0
2 0 0
2 1 0
0 0 0
1 0 0
-1 1 0.1
-1 0 0.1
0 0 0.1
1 0 0.1
2 0 0.1
2 1 0.1
-0.99 0 0
-0.98 0 0
-0.97 0 0
-0.96 0 0
-0.95 0 0
-0.94 0 0
-0.93 0 0
-0.92 0 0
-0.91 0 0
-0.9 0 0
-0.89 0 0
-0.88 0 0
-0.87 0 0
-0.86 0 0
-0.85 0 0
-0.84 0 0
-0.83 0 0
-0.82 0 0
-0.81 0 0
-0.8 0 0
-0.79 0 0
-0.78 0 0
-0.77 0 0
-0.76 0 0
-0.75 0 0
-0.74 0 0
-0.73 0 0
-0.72 0 0
-0.71 0 0
-0.7 0 0
-0.69 0 0
-0.68 0 0
-0.67 0 0
-0.66 0 0
-0.65 0 0
-0.64 0 0
-0.63 0 0
-0.62 0 0
-0.61 0 0
-0.6 0 0
-0.59 0 0
-0.58 0 0
-0.57 0 0
-0.56 0 0
-0.55 0 0
-0.54 0 0
-0.53 0 0
-0.52 0 0
-0.51 0 0
-0.5 0 0
-0.49 0 0
-0.48 0 0
-0.47 0 0
-0.46 0 0
-0.45 0 0
-0.44 0 0
-0.43 0 0
-0.42 0 0
-0.41 0 0
-0.4 0 0
-0.39 0 0
-0.38 0 0
-0.37 0 0
-0.36 0 0
-0.35 0 0
-0.34 0 0
-0.33 0 0
-0.32 0 0
-0.31 0 0
-0.3 0 0
-0.29 0 0
-0.28 0 0
-0.27 0 0
-0.26 0 0
-0.25 0 0
-0.24 0 0
-0.23 0 0
-0.22 0 0
-0.21 0 0
-0.2 0 0
-0.19 0 0
-0.18 0 0
-0.17 0 0
-0.16 0 0
-0.15 0 0
-0.14 0 0
-0.13 0 0
-0.12 0 0
-0.11 0 0
-0.1 0 0
-0.09 0 0
-0.08 0 0
-0.07 0 0
-0.06 0 0
-0.05 0 0
-0.04 0 0
-0.03 0 0
-0.02 0 0
-0.01 0 0
1.01 0 0
1.02 0 0
1.03 0 0
1.04 0 0
1.05 0 0
1.06 0 0
1.07 0 0
1.08 0 0
1.09 0 0
1.1 0 0
1.11 0 0
1.12 0 0
1.13 0 0
1.14 0 0
1.15 0 0
1.16 0 0
1.17 0 0
1.18 0 0
1.19 0 0
1.2 0 0
1.21 0 0
1.22 0 0
1.23 0 0
1.24 0 0
1.25 0 0
1.26 0 0
1.27 0 0
1.28 0 0
1.29 0 0
1.3 0 0
1.31 0 0
1.32 0 0
1.33 0 0
1.34 0 0
1.35 0 0
1.36 0 0
1.37 0 0
1.38 0 0
1.39 0 0
1.4 0 0
1.41 0 0
1.42 0 0
1.43 0 0
1.44 0 0
1.45 0 0
1.46 0 0
1.47 0 0
1.48 0 0
1.49 0 0
1.5 0 0
1.51 0 0
1.52 0 0
1.53 0 0
1.54 0 0
1.55 0 0
1.56 0 0
1.57 0 0
1.58 0 0
1.59 0 0
1.6 0 0
1.61 0 0
1.62 0 0
1.63 0 0
1.64 0 0
1.65 0 0
1.66 0 0
1.67 0 0
1.68 0 0
1.69 0 0
1.7 0 0
1.71 0 0
1.72 0 0
1.73 0 0
1.74 0 0
1.75 0 0
1.76 0 0
1.77 0 0
1.78 0 0
1.79 0 0
1.8 0 0
1.81 0 0
1.82 0 0
1.83 0 0
1.84 0 0
1.85 0 0
1.86 0 0
1.87 0 0
1.88 0 0
1.89 0 0
1.9 0 0
1.91 0 0
1.92 0 0
1.93 0 0
1.94 0 0
1.95 0 0
1.96 0 0
1.97 0 0
1.98 0 0
1.99 0 0
2 0.010289 0
2 0.0215307 0
2 0.0338135 0
2 0.0472336 0
2 0.0618965 0
2 0.0779171 0
2 0.0954213 0
2 0.114546 0
2 0.135442 0
2 0.158274 0
2 0.183219 0
2 0.210474 0
2 0.240253 0
2 0.27279 0
2 0.308339 0
2 0.347181 0
2 0.389619 0
2 0.435987 0
2 0.486649 0
2 0.542002 0
2 0.602481 0
2 0.66856 0
2 0.740758 0
2 0.819642 0
2 0.90583 0
1.9 1 0
1.8 1 0
1.7 1 0
1.6 1 0
1.5 1 0
1.4 1 0
1.3 1 0
1.2 1 0
1.1 1 0
1 1 0
0.9 1 0
0.8 1 0
0.7 1 0
0.6 1 0
0.5 1 0
0.4 1 0
0.3 1 0
0.2 1 0
0.1 1 0
3.69793e-12 1 0
-0.1 1 0
-0.2 1 0
-0.3 1 0
-0.4 1 0
-0.5 1 0
-0.6 1 0
-0.7 1 0
-0.8 1 0
-0.9 1 0
-1 0.90583 0
-1 0.819642 0
-1 0.740758 0
-1 0.66856 0
-1 0.602481 0
-1 0.542002 0
-1 0.486649 0
-1 0.435987 0
-1 0.389619 0
-1 0.347181 0
-1 0.308339 0
-1 0.27279 0
-1 0.240253 0
-1 0.210474 0
-1 0.183219 0
-1 0.158274 0
-1 0.135442 0
-1 0.114546 0
-1 0.0954213 0
-1 0.0779171 0
-1 0.0618965 0
-1 0.0472336 0
-1 0.0338135 0
-1 0.0215307 0
-1 0.010289 0
0.00921362 0.00379763 0
0.0184561 0.00752451 0
0.0277268 0.0111804 0
0.0370253 0.0147652 0
0.0463511 0.0182786 0
0.0557034 0.0217203 0
0.0650819 0.0250903 0
0.074486 0.0283883 0
0.083915 0.0316141 0
0.0933685 0.0347675 0
0.102846 0.0378484 0
0.112347 0.0408565 0
0.12187 0.0437917 0
0.131416 0.0466538 0
0.140983 0.0494427 0
0.150572 0.0521581 0
0.160181 0.0547999 0
0.16981 0.0573681 0
0.179458 0.0598623 0
0.189125 0.0622825 0
0.198811 0.0646285 0
0.208514 0.0669001 0
0.218234 0.0690974 0
0.227971 0.07122 0
0.237724 0.073268 0
0.247493 0.0752411 0
0.257276 0.0771393 0
0.267073 0.0789625 0
0.276884 0.0807105 0
0.286708 0.0823832 0
0.296545 0.0839806 0
0.306394 0.0855025 0
0.316254 0.0869488 0
0.326125 0.0883196 0
0.336006 0.0896146 0
0.345896 0.0908339 0
0.355796 0.0919773 0
0.365704 0.0930447 0
0.375621 0.0940362 0
0.385544 0.0949517 0
0.395474 0.095791 0
0.40541 0.0965542 0
0.415352 0.0972412 0
0.425299 0.097852 0
0.43525 0.0983865 0
0.445205 0.0988447 0
0.455164 0.0992266 0
0.465125 0.0995321 0
0.475088 0.0997613 0
0.485052 0.0999141 0
0.495017 0.0999904 0
0.504983 0.0999904 0
0.514948 0.0999141 0
0.524912 0.0997613 0
0.534875 0.0995321 0
0.544836 0.0992266 0
0.554795 0.0988447 0
0.56475 0.0983865 0
0.574701 0.097852 0
0.584648 0.0972412 0
0.59459 0.0965542 0
0.604526 0.095791 0
0.614456 0.0949517 0
0.624379 0.0940362 0
0.634296 0.0930447 0
0.644204 0.0919773 0
0.654104 0.0908339 0
0.663994 0.0896146 0
0.673875 0.0883196 0
0.683746 0.0869488 0
0.693606 0.0855025 0
0.703455 0.0839806 0
0.713292 0.0823832 0
0.723116 0.0807105 0
0.732927 0.0789625 0
0.742724 0.0771393 0
0.752508 0.0752411 0
0.762276 0.073268 0
0.772029 0.07122 0
0.781766 0.0690974 0
0.791486 0.0669001 0
0.801189 0.0646285 0
0.810875 0.0622825 0
0.820542 0.0598623 0
0.83019 0.0573681 0
0.839819 0.0547999 0
0.849428 0.0521581 0
0.859017 0.0494427 0
0.868584 0.0466538 0
0.87813 0.0437917 0
0.887653 0.0408565 0
0.897154 0.0378484 0
0.906631 0.0347675 0
0.916085 0.0316141 0
0.925514 0.0283883 0
0.934918 0.0250903 0
0.944297 0.0217203 0
0.953649 0.0182786 0
0.962975 0.0147652 0
0.972273 0.0111804 0
0.981544 0.00752451 0
0.990786 0.00379763 0
-1 0.90583 0.1
-1 0.819642 0.1
-1 0.740758 0.1
-1 0.66856 0.1
-1 0.602481 0.1
-1 0.542002 0.1
-1 0.486649 0.1
-1 0.435987 0.1
-1 0.389619 0.1
-1 0.347181 0.1
-1 0.308339 0.1
-1 0.27279 0.1
-1 0.240253 0.1
-1 0.210474 0.1
-1 0.183219 0.1
-1 0.158274 0.1
-1 0.135442 0.1
-1 0.114546 0.1
-1 0.0954213 0.1
-1 0.0779171 0.1
-1 0.0618965 0.1
-1 0.0472336 0.1
-1 0.0338135 0.1
-1 0.0215307 0.1
-1 0.010289 0.1
-0.99 0 0.1
-0.98 0 0.1
-0.97 0 0.1
-0.96 0 0.1
-0.95 0 0.1
-0.94 0 0.1
-0.93 0 0.1
-0.92 0 0.1
-0.91 0 0.1
-0.9 0 0.1
-0.89 0 0.1
-0.88 0 0.1
-0.87 0 0.1
-0.86 0 0.1
-0.85 0 0.1
-0.84 0 0.1
-0.83 0 0.1
-0.82 0 0.1
-0.81 0 0.1
-0.8 0 0.1
-0.79 0 0.1
-0.78 0 0.1
-0.77 0 0.1
-0.76 0 0.1
-0.75 0 0.1
-0.74 0 0.1
-0.73 0 0.1
-0.72 0 0.1
-0.71 0 0.1
-0.7 0 0.1
-0.69 0 0.1
-0.68 0 0.1
-0.67 0 0.1
-0.66 0 0.1
-0.65 0 0.1
-0.64 0 0.1
-0.63 0 0.1
-0.62 0 0.1
-0.61 0 0.1
-0.6 0 0.1
-0.59 0 0.1
-0.58 0 0.1
-0.57 0 0.1
-0.56 0 0.1
-0.55 0 0.1
-0.54 0 0.1
-0.53 0 0.1
-0.52 0 0.1
-0.51 0 0.1
-0.5 0 0.1
-0.49 0 0.1
-0.48 0 0.1
-0.47 0 0.1
-0.46 0 0.1
-0.45 0 0.1
-0.44 0 0.1
-0.43 0 0.1
-0.42 0 0.1
-0.41 0 0.1
-0.4 0 0.1
-0.39 0 0.1
-0.38 0 0.1
-0.37 0 0.1
-0.36 0 0.1
-0.35 0 0.1
-0.34 0 0.1
-0.33 0 0.1
-0.32 0 0.1
-0.31 0 0.1
-0.3 0 0.1
-0.29 0 0.1
-0.28 0 0.1
-0.27 0 0.1
-0.26 0 0.1
-0.25 0 0.1
-0.24 0 0.1
-0.23 0 0.1
-0.22 0 0.1
-0.21 0 0.1
-0.2 0 0.1
-0.19 0 0.1
-0.18 0 0.1
-0.17 0 0.1
-0.16 0 0.1
-0.15 0 0.1
-0.14 0 0.1
-0.13 0 0.1
-0.12 0 0.1
-0.11 0 0.1
-0.1 0 0.1
-0.09 0 0.1
-0.08 0 0.1
-0.07 0 0.1
-0.06 0 0.1
-0.05 0 0.1
-0.04 0 0.1
-0.03 0 0.1
-0.02 0 0.1
-0.01 0 0.1
0.00921362 0.00379763 0.1
0.0184561 0.00752451 0.1
0.0277268 0.0111804 0.1
0.0370253 0.0147652 0.1
0.0463511 0.0182786 0.1
0.0557034 0.0217203 0.1
0.0650819 0.0250903 0.1
0.074486 0.0283883 0.1
0.083915 0.0316141 0.1
0.0933685 0.0347675 0.1
0.102846 0.0378484 0.1
0.112347 0.0408565 0.1
0.12187 0.0437917 0.1
0.131416 0.0466538 0.1
0.140983 0.0494427 0.1
0.150572 0.0521581 0.1
0.160181 0.0547999 0.1
0.16981 0.0573681 0.1
0.179458 0.0598623 0.1
0.189125 0.0622825 0.1
0.198811 0.0646285 0.1
0.208514 0.0669001 0.1
0.218234 0.0690974 0.1
0.227971 0.07122 0.1
0.237724 0.073268 0.1
0.247493 0.0752411 0.1
0.257276 0.0771393 0.1
0.267073 0.0789625 0.1
0.276884 0.0807105 0.1
0.286708 0.0823832 0.1
0.296545 0.0839806 0.1
0.306394 0.0855025 0.1
0.316254 0.0869488 0.1
0.326125 0.0883196 0.1
0.336006 0.0896146 0.1
0.345896 0.0908339 0.1
0.355796 0.0919773 0.1
0.365704 0.0930447 0.1
0.375621 0.0940362 0.1
0.385544 0.0949517 0.1
0.395474 0.095791 0.1
0.40541 0.0965542 0.1
0.415352 0.0972412 0.1
0.425299 0.097852 0.1
0.43525 0.0983865 0.1
0.445205 0.0988447 0.1
0.455164 0.0992266 0.1
0.465125 0.0995321 0.1
0.475088 0.0997613 0.1
0.485052 0.0999141 0.1
0.495017 0.0999904 0.1
0.504983 0.0999904 0.1
0.514948 0.0999141 0.1
0.524912 0.0997613 0.1
0.534875 0.0995321 0.1
0.544836 0.0992266 0.1
0.554795 0.0988447 0.1
0.56475 0.0983865 0.1
0.574701 0.097852 0.1
0.584648 0.0972412 0.1
0.59459 0.0965542 0.1
0.604526 0.095791 0.1
0.614456 0.0949517 0.1
0.624379 0.0940362 0.1
0.634296 0.0930447 0.1
0.644204 0.0919773 0.1
0.654104 0.0908339 0.1
0.663994 0.0896146 0.1
0.673875 0.0883196 0.1
0.683746 0.0869488 0.1
0.693606 0.0855025 0.1
0.703455 0.0839806 0.1
0.713292 0.0823832 0.1
0.723116 0.0807105 0.1
0.732927 0.0789625 0.1
0.742724 0.0771393 0.1
0.752508 0.0752411 0.1
0.762276 0.073268 0.1
0.772029 0.07122 0.1
0.781766 0.0690974 0.1
0.791486 0.0669001 0.1
0.801189 0.0646285 0.1
0.810875 0.0622825 0.1
0.820542 0.0598623 0.1
0.83019 0.0573681 0.1
0.839819 0.0547999 0.1
0.849428 0.0521581 0.1
0.859017 0.0494427 0.1
0.868584 0.0466538 0.1
0.87813 0.0437917 0.1
0.887653 0.0408565 0.1
0.897154 0.0378484 0.1
0.906631 0.0347675 0.1
0.916085 0.0316141 0.1
0.925514 0.0283883 0.1
0.934918 0.0250903 0.1
0.944297 0.0217203 0.1
0.953649 0.0182786 0.1
0.962975 0.0147652 0.1
0.972273 0.0111804 0.1
0.981544 0.00752451 0.1
0.990786 0.00379763 0.1
1.01 0 0.1
1.02 0 0.1
1.03 0 0.1
1.04 0 0.1
1.05 0 0.1
1.06 0 0.1
1.07 0 0.1
1.08 0 0.1
1.09 0 0.1
1.1 0 0.1
1.11 0 0.1
1.12 0 0.1
1.13 0 0.1
1.14 0 0.1
1.15 0 0.1
1.16 0 0.1
1.17 0 0.1
1.18 0 0.1
1.19 0 0.1
1.2 0 0.1
1.21 0 0.1
1.22 0 0.1
1.23 0 0.1
1.24 0 0.1
1.25 0 0.1
1.26 0 0.1
1.27 0 0.1
1.28 0 0.1
1.29 0 0.1
1.3 0 0.1
1.31 0 0.1
1.32 0 0.1
1.33 0 0.1
1.34 0 0.1
1.35 0 0.1
1.36 0 0.1
1.37 0 0.1
1.38 0 0.1
1.39 0 0.1
1.4 0 0.1
1.41 0 0.1
1.42 0 0.1
1.43 0 0.1
1.44 0 0.1
1.45 0 0.1
1.46 0 0.1
1.47 0 0.1
1.48 0 0.1
1.49 0 0.1
1.5 0 0.1
1.51 0 0.1
1.52 0 0.1
1.53 0 0.1
1.54 0 0.1
1.55 0 0.1
1.56 0 0.1
1.57 0 0.1
1.58 0 0.1
1.59 0 0.1
1.6 0 0.1
1.61 0 0.1
1.62 0 0.1
1.63 0 0.1
1.64 0 0.1
1.65 0 0.1
1.66 0 0.1
1.67 0 0.1
1.68 0 0.1
1.69 0 0.1
1.7 0 0.1
1.71 0 0.1
1.72 0 0.1
1.73 0 0.1
1.74 0 0.1
1.75 0 0.1
1.76 0 0.1
1.77 0 0.1
1.78 0 0.1
1.79 0 0.1
1.8 0 0.1
1.81 0 0.1
1.82 0 0.1
1.83 0 0.1
1.84 0 0.1
1.85 0 0.1
1.86 0 0.1
1.87 0 0.1
1.88 0 0.1
[...]
CELL_DATA 7425
SCALARS rho float
LOOKUP_TABLE default
0.587888
0.805068
0.819752
0.827687
0.799635
0.819343
0.821062
0.814366
0.813239
0.738881
0.863575
0.810102
0.814132
0.827544
0.803899
0.81736
0.798954
0.813513
0.803496
0.767392
0.831435
0.822109
0.725052
0.828218
0.803903
0.703687
0.831363
0.848586
0.800201
0.808044
0.819523
0.725242
0.803643
0.652688
0.520635
0.828184
0.80353
0.814343
0.811212
0.828165
0.716526
0.70413
0.790153
0.700861
0.58734
0.748405
0.799507
0.814066
0.663612
0.719048
0.746357
0.805185
0.81241
0.799278
0.709234
0.657674
0.823098
0.800235
0.738753
0.701268
0.710309
0.807695
0.813484
0.799572
0.798812
0.817814
0.585053
0.773483
0.70369
0.80797
0.804317
0.803218
0.883465
0.821181
0.810907
0.813298
0.805082
0.800473
0.81349
0.757865
0.816195
0.807275
0.81053
0.788859
0.836024
0.801274
0.575126
0.830107
0.543531
0.8486
0.704938
0.730001
0.845543
0.803204
0.817605
0.758581
0.836206
0.788105
0.825803
0.802679
0.808308
0.738619
0.80331
0.828397
0.597825
0.811136
0.824542
0.707909
0.81522
0.799375
0.816917
0.784661
0.789973
0.81247
0.789886
0.786409
0.831412
0.803119
0.699223
0.635019
0.80508
0.777459
0.813204
0.790485
0.859042
0.839124
0.807733
0.804434
0.661642
0.505464
0.8147
0.655645
0.516439
0.86808
0.664111
0.799728
0.811156
0.723883
0.58269
0.725365
0.723776
0.809755
0.809891
0.70671
0.803287
0.779713
0.566139
0.788751
0.782554
0.827937
0.816917
0.704822
0.803089
0.74432
0.704639
0.803301
0.810503
0.830572
0.797735
0.653244
0.802582
0.702145
0.801282
0.829907
0.82065
0.802406
0.813319
0.784996
0.80632
0.800846
0.819905
0.804685
0.791411
0.799338
0.800031
0.740561
0.803882
0.759081
0.595048
0.703936
0.799878
0.792908
0.879862
0.831989
0.630793
0.823111
0.798847
0.827558
0.800064
0.813649
0.812874
0.803221
0.806987
0.70399
0.815234
0.819447
0.770234
0.797337
0.861506
0.807811
0.811937
0.811424
0.613434
0.83918
0.573718
0.533049
0.596088
0.602084
0.828316
0.879398
0.807561
0.79869
0.841487
0.813229
0.816889
0.820957
0.815424
0.638458
0.553059
0.813965
0.546616
0.593481
0.702829
0.811914
0.814294
0.813298
0.833286
0.813177
0.864565
0.709201
0.83535
0.713433
0.805214
0.80395
0.802021
0.714274
0.721028
0.619962
0.704466
0.863716
0.875808
0.806463
0.807733
0.799066
0.811658
0.716559
0.821796
0.800401
0.825865
0.794687
0.810103
0.721297
0.813076
0.823917
0.740247
0.529423
0.800022
0.736347
0.843426
0.814571
0.726359
0.815795
0.815066
0.850047
0.809751
0.804094
0.803277
0.825827
0.860862
0.805646
0.619707
0.849003
0.812212
0.805637
0.827708
0.837455
0.813238
0.821612
0.793572
0.815296
0.866979
0.850042
0.827501
0.836884
0.802735
0.817369
0.803206
0.759817
0.701915
0.581571
0.699971
0.802544
0.81315
0.816202
0.855026
0.779761
0.646184
0.827251
0.522183
0.774476
0.801157
0.646847
0.498173
0.639548
0.81542
0.813486
0.813228
0.812962
0.826887
0.774522
0.811518
0.802696
0.813174
0.840847
0.867473
0.833705
0.802821
0.70436
0.796073
0.834404
0.691972
0.798952
0.802097
0.864872
0.817309
0.593629
0.813637
0.740963
0.852607
0.732376
0.810352
0.907694
0.800078
0.795838
0.659417
0.636029
0.710996
0.780849
0.826709
0.815159
0.813933
0.882854
0.858503
0.799746
0.799322
0.826096
0.739591
0.802585
0.87946
0.801403
0.804923
0.800895
0.802596
0.813215
0.815939
0.816585
0.636896
0.830155
0.646753
0.808589
0.640006
0.802817
0.802277
0.840372
0.729256
0.8164
0.808783
0.817189
0.799679
0.802523
0.81132
0.697792
0.824534
0.813315
0.813178
0.800707
0.736875
0.560625
0.80645
0.811277
0.803212
0.81316
0.794903
0.50606
0.846202
0.813561
0.803876
0.785907
0.813512
0.804807
0.80318
0.816453
0.807547
0.822692
0.768785
0.812804
0.807814
0.563368
0.803324
0.640558
0.838867
0.636692
0.81492
0.877976
0.594628
0.818177
0.749221
0.804447
0.873415
0.534989
0.8233
0.822444
0.803522
0.825912
0.811171
0.823639
0.830797
0.825008
0.740155
0.827689
0.761638
0.810356
0.794303
0.793809
0.758834
0.805643
0.802105
0.814669
0.752636
0.804815
0.605034
0.614803
0.689854
0.813062
0.844322
0.864933
0.830028
0.798796
0.81291
0.80501
0.818696
0.680911
0.801151
0.7432
0.824182
0.815014
0.805623
0.710932
0.727566
0.534672
0.606126
0.801466
0.611881
0.792799
0.765483
0.770217
0.726797
0.7627
0.767787
0.809683
0.815157
0.819747
0.811725
0.711116
0.603869
0.839167
0.807144
0.783247
0.810064
0.802659
0.836704
0.718921
0.855395
0.763755
0.728984
0.764797
0.811732
0.545982
0.799034
0.841751
0.813443
0.814026
0.809958
0.799383
0.780566
0.835823
0.803131
0.843106
0.721331
0.706925
0.800467
0.795336
0.822205
0.70918
0.848084
0.800643
0.816266
0.798931
0.779283
0.808488
0.59521
0.67784
0.632865
0.813171
0.80397
0.826523
0.749487
0.810636
0.815027
0.820586
0.799188
0.729911
0.797106
0.814529
0.803221
0.70414
0.813836
0.8191
0.84015
0.811037
0.825513
0.862379
0.857368
0.744307
0.603988
0.838144
0.805939
0.843489
0.814462
0.823044
0.813769
0.814044
0.638244
0.805414
0.809501
0.813092
0.792077
0.810743
0.804961
0.860906
0.798877
0.813007
0.814943
0.872007
0.598216
0.813705
0.842729
0.883382
0.531437
0.816619
0.83012
0.7962
0.814802
0.795136
0.867689
0.812365
0.83151
0.812949
0.61988
0.802445
0.804182
0.691694
0.853237
0.759725
0.80187
0.814214
0.812971
0.860079
0.79541
0.833745
0.834873
0.784551
0.825306
0.842651
0.799951
0.810713
0.807177
0.805352
0.815047
0.802659
0.845347
0.769385
0.809826
0.803212
0.815373
0.723541
0.813163
0.818559
0.752836
0.813831
0.816528
0.827809
0.825293
0.800911
0.800801
0.8506
0.767879
0.825374
0.844334
0.804591
0.50707
0.813161
0.828449
0.852485
0.812868
0.803165
0.808592
0.855146
0.780086
0.802615
0.801406
0.813205
0.72781
0.802866
0.830129
0.808245
0.795038
0.793753
0.843334
0.806644
0.845425
0.802041
0.824432
0.813011
0.80425
0.841964
0.81313
0.680132
0.818984
0.807139
0.813083
0.906186
0.800937
0.816082
0.800606
0.80055
0.816424
0.800653
0.803402
0.783727
0.747436
0.806737
0.813168
0.758269
0.791642
0.823208
0.813061
0.822448
0.806426
0.825952
0.87538
0.830813
0.576385
0.709112
0.840895
0.817503
0.844284
0.81499
0.850215
0.80756
0.812558
0.79955
0.83855
0.861036
0.852909
0.731926
0.81433
0.822361
0.74381
0.817346
0.776093
0.80036
0.733438
0.816287
0.83103
0.823537
0.862247
0.814452
0.813555
0.810424
0.814874
0.835928
0.812248
0.798873
0.810275
0.737947
0.811615
0.774142
0.832985
0.812999
0.639257
0.777747
0.811349
0.799383
0.820029
0.802687
0.814907
0.817515
0.804602
0.819599
0.804196
0.806081
0.598368
0.847173
0.825311
0.826881
0.815152
0.803249
0.70218
0.806709
0.907876
0.813828
0.80126
0.813136
0.782391
0.807491
0.813526
0.821483
0.81469
0.813487
0.816462
0.699967
0.778093
0.764882
0.812924
0.805441
0.801254
0.621865
0.805942
0.80283
0.708652
0.837383
0.817415
0.802344
0.807657
0.799577
0.817462
0.814102
0.813547
0.813153
0.709989
0.831843
0.800338
0.807647
0.843011
0.817847
0.816514
0.800366
0.753757
0.824011
0.787654
0.821629
0.789502
0.805877
0.821152
0.737604
0.817595
0.652106
0.872117
0.704704
0.84514
0.801038
0.875233
0.793893
0.801777
0.820871
0.836419
0.83851
0.825639
0.820032
0.814934
0.801345
0.804234
0.808332
0.726451
0.827334
0.800119
0.719442
0.830683
0.703303
0.800228
0.860777
0.805625
0.70243
0.797915
0.814332
0.704344
0.785667
0.819588
0.831996
0.807204
0.578727
0.729292
0.812443
0.801558
0.8132
0.800859
0.737494
0.814256
0.815946
0.812766
0.775564
0.803289
0.804535
0.803811
0.561128
0.81299
0.834199
0.580882
0.815399
0.816329
0.814935
0.818572
0.814661
0.824723
0.799309
0.795176
0.771003
0.822991
0.829754
0.825195
0.835162
0.76558
0.809256
0.725111
0.772466
0.809022
0.821272
0.813543
0.801003
0.858681
0.813203
0.800568
0.809852
0.816317
0.815421
0.836782
0.814735
0.813078
0.812022
0.814068
0.800375
0.821192
0.803808
0.823022
0.813724
0.576583
0.81377
0.834621
0.85845
0.838297
0.492433
0.817028
0.804704
0.497991
0.670157
0.644778
0.834441
0.808146
0.811693
0.813063
0.803218
0.81697
0.81107
0.535557
0.687312
0.818319
0.806662
0.815842
0.803537
0.810296
0.811176
0.820432
0.799689
0.693221
0.8563
0.803165
0.814769
0.813872
0.758005
0.487403
0.833055
0.813668
0.741817
0.802717
0.806434
0.592286
0.827664
0.815013
0.827897
0.818991
0.826228
0.804765
0.720194
0.643994
0.562753
0.8255
0.808756
0.782962
0.813241
0.780045
0.818104
0.873392
0.762587
0.821806
0.813767
0.826016
0.883637
0.814681
0.812093
0.803309
0.813908
0.692316
0.828383
0.800049
0.810405
0.802267
0.784338
0.85428
0.822234
0.840598
0.82172
0.757534
0.756072
0.803538
0.818307
0.803082
0.805279
0.802636
0.775914
0.814919
0.761836
0.821395
0.662478
0.814217
0.803004
0.735413
0.823389
0.818161
0.740247
0.801209
0.757467
0.881122
0.800751
0.813119
0.762934
0.800315
0.814515
0.80398
0.590504
0.821079
0.798839
0.801581
0.814766
0.825785
0.757417
0.805743
0.841929
0.827186
0.814191
0.835992
0.69889
0.700482
0.8132
0.744412
0.822412
0.771577
0.81311
0.802562
0.810569
0.752199
0.794254
0.764599
0.810134
0.803158
0.631632
0.779177
0.799272
0.849333
0.81461
0.828823
0.527634
0.825404
0.785289
0.858846
0.800972
0.818095
0.800507
0.785992
0.798957
0.82588
0.835884
0.8219
0.817332
0.706504
0.77408
0.815564
0.805414
0.810248
0.803937
0.705881
0.793018
0.803595
0.810881
0.827394
0.851312
0.832015
0.813721
0.799644
0.8044
0.802172
0.779762
0.612169
0.800554
0.731746
0.662365
0.822987
0.799044
0.77726
0.800174
0.754395
0.78538
0.811735
0.822395
0.803536
0.816229
0.81753
0.820799
0.813647
0.808648
0.712445
0.699741
0.641328
0.829449
0.869658
0.815509
0.8415
0.84796
0.863826
0.736227
0.816775
0.863107
0.810391
0.81315
0.816366
0.733151
0.812652
0.806889
0.806419
0.51842
0.813236
0.761379
0.813417
0.813839
0.803568
0.704998
0.813456
0.611159
0.82516
0.802444
0.822375
0.855279
0.803459
0.795429
0.821131
0.811824
0.805804
0.762444
0.511269
0.821091
0.803123
0.829177
0.82594
0.802333
0.807061
0.834602
0.721217
0.501914
0.886328
0.80079
0.815916
0.804353
0.710046
0.798842
0.800205
0.815296
0.736608
0.646931
0.883315
0.714504
0.8367
0.812238
0.833048
0.842798
0.792416
0.804776
0.813842
0.85288
0.738571
0.870782
0.814261
0.563478
0.802677
0.748799
0.853031
0.760587
0.804247
0.803982
0.799816
0.80167
0.809127
0.813182
0.855892
0.806198
0.802883
0.801333
0.800189
0.812517
0.817091
0.802638
0.812761
0.849332
0.803112
0.783656
0.80227
0.839877
0.725694
0.813879
0.814068
0.643364
0.713454
0.805596
0.823203
0.803784
0.513014
0.856677
0.813452
0.833265
0.805339
0.803335
0.801412
0.786463
0.587702
0.80434
0.816324
0.836081
0.820763
0.81322
0.798394
0.747338
0.801615
0.766107
0.787623
0.799533
0.791031
0.75116
0.801007
0.811691
0.810619
0.832332
0.8494
0.554167
0.842042
0.81312
0.820898
0.802159
0.822723
0.811353
0.894671
0.800399
0.867497
0.80573
0.76006
0.862211
0.802312
0.800274
0.824334
0.660828
0.645722
0.803421
0.803889
0.703189
0.654724
0.799931
0.824034
0.813296
0.822777
0.733364
0.817346
0.813102
0.826309
0.817137
0.811984
0.813141
0.754818
0.804098
0.815899
0.811607
0.67659
0.567133
0.813178
0.650411
0.722203
0.555875
0.841533
0.800307
0.528368
0.601328
0.827646
0.908108
0.818354
0.652749
0.814397
0.786636
0.80188
0.786566
0.820892
0.810305
0.788369
0.821241
0.801229
0.588374
0.818034
0.766915
0.816145
0.700199
0.82241
0.789849
0.814191
0.800255
0.663287
0.843622
0.806714
0.806834
0.495106
0.817048
0.800552
0.852496
0.711013
0.817301
0.585733
0.719642
0.801561
0.796853
0.733306
0.71599
0.715424
0.508453
0.592633
0.800202
0.518975
0.822788
0.522378
0.757418
0.672024
0.601727
0.541919
0.745679
0.803097
0.714498
0.82149
0.801055
0.803068
0.761416
0.889742
0.799254
0.824662
0.803466
0.813062
0.706281
0.807763
0.736961
0.822102
0.886107
0.833712
0.747993
0.822975
0.770718
0.87997
0.804226
0.758886
0.850806
0.777078
0.799957
0.805516
0.758457
0.745077
0.667272
0.805016
0.80304
0.818109
0.833644
0.611945
0.808139
0.53918
0.668975
0.617669
0.818755
0.821235
0.80924
0.804005
0.616153
0.872535
0.802697
0.802961
0.863617
0.812701
0.772194
0.812437
0.802394
0.818112
0.803158
0.71734
0.803508
0.656476
0.799197
0.804294
0.801608
0.639576
0.811699
0.810463
0.725723
0.818022
0.55003
0.577372
0.804179
0.696821
0.726215
0.572743
0.724051
0.81387
0.70644
0.773114
0.716346
0.812948
0.670603
0.762327
0.806549
0.810839
0.655144
0.801993
0.895212
0.796766
0.817013
0.586333
0.694184
0.80116
0.813214
0.814248
0.851762
0.812903
0.804297
0.803762
0.803364
0.714164
0.717332
0.61618
0.77173
0.534339
0.723534
0.810161
0.81464
0.806336
0.799475
0.541255
0.809303
0.803786
0.554896
0.544483
0.746836
0.8036
0.806377
0.55011
0.798333
0.570309
0.721205
0.60836
0.81367
0.802406
0.597663
0.608828
0.867985
0.810153
0.765626
0.718297
0.62277
0.655736
0.708854
0.816226
0.759993
0.765464
0.62453
0.754139
0.809543
0.815591
0.812726
0.815698
0.866013
0.754984
0.819132
0.80338
0.85139
0.813133
0.802798
0.813336
0.722064
0.81316
0.812208
0.815399
0.811373
0.816104
0.803293
0.818129
0.810611
0.809967
0.817472
0.800146
0.816802
0.819154
0.667873
0.818812
0.868506
0.818373
0.792993
0.646333
0.858686
0.818992
0.825066
0.799741
0.811484
0.757471
0.852662
0.561834
0.72727
0.809902
0.81589
0.803903
0.803386
0.832206
0.805233
0.805327
0.81549
0.780901
0.838695
0.842076
0.815386
0.66472
0.614322
0.815987
0.81683
0.788551
0.84975
0.847373
0.811078
0.813841
0.777976
0.814319
0.818037
0.814345
0.818978
0.813316
0.816045
0.851161
0.816189
0.814718
0.817763
0.817973
0.78499
0.814333
0.804248
0.804353
0.804789
0.818772
0.811751
0.788547
0.753856
0.812919
0.806311
0.809019
0.806412
0.857862
0.803499
0.814224
0.812956
0.805333
0.598882
0.803919
0.813001
0.81524
0.810357
0.813046
0.813546
0.81328
0.810214
0.864476
0.502962
0.813077
0.841787
0.812908
0.803012
0.808489
0.815226
0.839817
0.800637
0.801433
0.812753
0.703966
0.813096
0.808374
0.807568
0.812803
0.81314
0.81328
0.813606
0.513186
0.811929
0.716526
0.885906
0.821236
0.733144
0.673471
0.815584
0.803695
0.818898
0.646921
0.801752
0.813578
0.648396
0.800049
0.804147
0.815668
0.806424
0.856846
0.809885
0.607459
0.800977
0.775143
0.811262
0.889134
0.803459
0.81556
0.819448
0.832321
0.813643
0.822583
0.83648
0.635419
0.802817
0.656193
0.813983
0.813885
0.712069
0.813772
0.805019
0.712797
0.815107
0.702079
0.861173
0.78425
0.814527
0.813152
0.813668
0.668442
0.813893
0.633698
0.800346
0.792441
0.822474
0.815402
0.716468
0.766696
0.830208
0.812998
0.821429
0.822087
0.81368
0.825503
0.799681
0.552794
0.754825
0.759468
0.731071
0.837747
0.822592
0.834442
0.776312
0.802784
0.813281
0.813208
0.813211
0.774785
0.564476
0.803224
0.529888
0.808367
0.824513
0.799894
0.803784
0.813186
0.806058
0.782837
0.732368
0.813629
0.859234
0.813863
0.799471
0.73675
0.809833
0.788801
0.833831
0.505563
0.796029
0.80612
0.799071
0.690443
0.813089
0.810943
0.857427
0.569704
0.807377
0.803289
0.813061
0.613634
0.813335
0.803353
0.803425
0.803049
0.813444
0.81354
0.81631
0.81329
0.717236
0.804537
0.80322
0.813242
0.896213
0.813391
0.774203
0.841332
0.799213
0.80315
0.601888
0.813137
0.803377
0.825893
0.802015
0.866313
0.81499
0.853723
0.800533
0.820816
0.778001
0.559052
0.753021
0.794449
0.80415
0.813973
0.814031
0.556257
0.861865
0.858273
0.768746
0.757725
0.738568
0.812291
0.848658
0.813174
0.81382
0.813209
0.804301
0.726705
0.803526
0.799295
0.764134
0.824426
0.823169
0.861922
0.815854
0.813221
0.528233
0.808922
0.813181
0.800861
0.774167
0.818114
0.803125
0.813116
0.827043
0.798504
0.803713
0.801334
0.815344
0.839242
0.802558
0.79934
0.801701
0.766047
0.820047
0.567768
0.86845
0.803719
0.546509
0.80332
0.803294
0.819773
0.595032
0.606725
0.801708
0.803833
0.801021
0.860811
0.780087
0.814809
0.802961
0.866124
0.804742
0.804478
0.826436
0.816126
0.820327
0.821445
0.820498
0.867551
0.729536
0.852238
0.817387
0.654098
0.802677
0.80321
0.803664
0.821292
0.823664
0.804086
0.80125
0.800228
0.822841
0.803316
0.803639
0.79985
0.824542
0.803999
0.802069
0.806108
0.828008
0.80075
0.801677
0.824493
0.799753
0.815583
0.651703
0.826538
0.849937
0.804968
0.819748
0.803265
0.828891
0.837618
0.803419
0.821641
0.800664
0.80717
0.789604
0.802223
0.803281
0.806386
0.806001
0.804687
0.81872
0.814952
0.811283
0.831544
0.802371
0.802263
0.800082
0.789021
0.833912
0.803183
0.819477
0.815408
0.807188
0.805183
0.802964
0.83902
0.865126
0.799761
0.679301
0.801288
0.842263
0.81678
0.805332
0.80449
0.819777
0.844695
0.604147
0.829002
0.794691
0.850704
0.818904
0.812051
0.813354
0.808416
0.803981
0.812833
0.808805
0.592345
0.848086
0.794707
0.814389
0.854681
0.819451
0.76339
0.808721
0.814657
0.815641
0.802999
0.662111
0.809416
0.863234
0.802737
0.800828
0.775662
0.871282
0.800544
0.87713
0.806832
0.817346
0.820779
0.802436
0.803945
0.812832
0.816072
0.80367
0.81354
0.816921
0.881409
0.820759
0.809329
0.800339
0.828535
0.810516
0.839124
0.808921
0.806971
0.812338
0.816733
0.830026
0.813866
0.82268
0.832621
0.814379
0.700436
0.692035
0.813268
0.817922
0.804018
0.813338
0.515653
0.854951
0.799921
0.806254
0.814128
0.813692
0.803993
0.812697
0.80064
0.801332
0.808185
0.814874
0.757199
0.784814
0.823096
0.842987
0.83491
0.800436
0.805258
0.803376
0.812953
0.805811
0.799708
0.799959
0.801122
0.811035
0.797861
0.802944
0.835616
0.831572
0.730346
0.687687
0.807627
0.69951
0.799697
0.57442
0.804445
0.80702
0.803278
0.818338
0.834027
0.81413
0.813086
0.810302
0.803883
0.88158
0.816452
0.805009
0.772389
0.587771
0.810269
0.806821
0.769514
0.814614
0.814081
0.791533
0.80075
0.804063
0.627824
0.830549
0.803524
0.781739
0.77942
0.852795
0.810017
0.803074
0.802811
0.810399
0.811105
0.520096
0.801888
0.839608
0.81413
0.798628
0.589587
0.814659
0.814272
0.813181
0.833857
0.814121
0.803984
0.82205
0.805803
0.576408
0.808686
0.736947
0.798539
0.813843
0.722454
0.815119
0.846291
0.831679
0.664896
0.890949
0.785673
0.777659
0.796921
0.779566
0.808733
0.85028
0.808164
0.802923
0.813758
0.809063
0.782711
0.78601
0.81408
0.80852
0.834911
0.821418
0.835751
0.801477
0.799817
0.81327
0.856702
0.816607
0.81852
0.813559
0.607841
0.79558
0.824026
0.829444
0.865975
0.812833
0.81905
0.510143
0.809947
0.800751
0.812817
0.814948
0.847678
0.81327
0.811119
0.881553
0.764749
0.812611
0.813447
0.80922
0.805246
0.814425
0.656311
0.800542
0.849628
0.833575
0.810775
0.81373
0.813578
0.809593
0.699818
0.81267
0.800369
0.838684
0.818639
0.811812
0.831433
0.792919
0.811729
0.81798
0.80901
0.819453
0.744663
0.855049
0.819129
0.813983
0.813274
0.812924
0.815888
0.817323
0.812972
0.810969
0.84118
0.81876
0.800343
0.825343
0.827071
0.816241
0.814526
0.800539
0.801614
0.813266
0.81919
0.829473
0.81302
0.816626
0.80003
0.810147
0.813058
0.813016
0.802519
0.814856
0.813536
0.80329
0.813083
0.835771
0.800059
0.809622
0.821746
0.56084
0.814406
0.818331
0.815669
0.815181
0.822116
0.828943
0.8158
0.819001
0.701764
0.813278
0.801453
0.815799
0.819191
0.835132
0.821719
0.815654
0.829503
0.825084
0.810891
0.819217
0.819745
0.804405
0.813371
0.815786
0.819524
0.832239
0.812841
0.815879
0.802738
0.813157
0.813265
0.52424
0.628523
0.814381
0.821594
0.801882
0.822609
0.816086
0.841957
0.708426
0.813946
0.730869
0.817529
0.810506
0.813375
0.82946
0.813857
0.805084
0.813141
0.830185
0.839604
0.813006
0.719481
0.819301
0.816206
0.800083
0.803042
0.815494
0.856006
0.812864
0.81358
0.849787
0.829101
0.843349
0.574865
0.829238
0.81414
0.811083
0.81757
0.850841
0.817932
0.718671
0.799728
0.831809
0.799981
0.799905
0.805482
0.748063
0.813604
0.814533
0.725862
0.814543
0.82739
0.813521
0.81422
0.799418
0.818539
0.813206
0.82376
0.808728
0.808363
0.815141
0.706
0.819237
0.81427
0.813192
0.640573
0.718216
0.599894
0.823326
0.531712
0.854149
0.727586
0.842891
0.812735
0.72344
0.821515
0.816052
0.742791
0.807735
0.818518
0.794427
0.81669
0.816042
0.815971
0.813206
0.808084
0.803684
0.73754
0.836392
0.820317
0.816778
0.799401
0.815475
0.80222
0.816184
0.813659
0.854924
0.817936
0.498801
0.813473
0.81895
0.818825
0.778146
0.815784
0.806749
0.818612
0.845647
0.597037
0.809304
0.799507
0.815502
0.817786
0.817854
0.812663
0.818762
0.814028
0.814756
0.803092
0.814451
0.84621
0.814119
0.792028
0.811687
0.623029
0.718561
0.813279
0.817163
0.803003
0.822449
0.735487
0.803161
0.803193
0.820361
0.657989
0.817762
0.799558
0.815596
0.865042
0.78557
0.822096
0.818141
0.822992
0.814214
0.769733
0.802462
0.813765
0.902334
0.827223
0.816601
0.832264
0.809816
0.868602
0.719064
0.697666
0.852588
0.802718
0.683531
0.85054
0.786127
0.832054