# vtk DataFile Version 1.0
unstructured grid
ascii
DATASET UNSTRUCTURED_GRID
points 7812 float
-1 0 0
-1 1 0
2 0 0
2 1 0
0 0 0
1 0 0
-1 1 0.1
-1 0 0.1
0 0 0.1
1 0 0.1
2 0 0.1
2 1 0.1
-0.99 0 0
-0.98 0 0
-0.97 0 0
-0.96 0 0
-0.95 0 0
-0.94 0 0
-0.93 0 0
-0.92 0 0
-0.91 0 0
-0.9 0 0
-0.89 0 0
-0.88 0 0
-0.87 0 0
-0.86 0 0
-0.85 0 0
-0.84 0 0
-0.83 0 0
-0.82 0 0
-0.81 0 0
-0.8 0 0
-0.79 0 0
-0.78 0 0
-0.77 0 0
-0.76 0 0
-0.75 0 0
-0.74 0 0
-0.73 0 0
-0.72 0 0
-0.71 0 0
-0.7 0 0
-0.69 0 0
-0.68 0 0
-0.67 0 0
-0.66 0 0
-0.65 0 0
-0.64 0 0
-0.63 0 0
-0.62 0 0
-0.61 0 0
-0.6 0 0
-0.59 0 0
-0.58 0 0
-0.57 0 0
-0.56 0 0
-0.55 0 0
-0.54 0 0
-0.53 0 0
-0.52 0 0
-0.51 0 0
-0.5 0 0
-0.49 0 0
-0.48 0 0
-0.47 0 0
-0.46 0 0
-0.45 0 0
-0.44 0 0
-0.43 0 0
-0.42 0 0
-0.41 0 0
-0.4 0 0
-0.39 0 0
-0.38 0 0
-0.37 0 0
-0.36 0 0
-0.35 0 0
-0.34 0 0
-0.33 0 0
-0.32 0 0
-0.31 0 0
-0.3 0 0
-0.29 0 0
-0.28 0 0
-0.27 0 0
-0.26 0 0
-0.25 0 0
-0.24 0 0
-0.23 0 0
-0.22 0 0
-0.21 0 0
-0.2 0 0
-0.19 0 0
-0.18 0 0
-0.17 0 0
-0.16 0 0
-0.15 0 0
-0.14 0 0
-0.13 0 0
-0.12 0 0
-0.11 0 0
-0.1 0 0
-0.09 0 0
-0.08 0 0
-0.07 0 0
-0.06 0 0
-0.05 0 0
-0.04 0 0
-0.03 0 0
-0.02 0 0
-0.01 0 0
1.01 0 0
1.02 0 0
1.03 0 0
1.04 0 0
1.05 0 0
1.06 0 0
1.07 0 0
1.08 0 0
1.09 0 0
1.1 0 0
1.11 0 0
1.12 0 0
1.13 0 0
1.14 0 0
1.15 0 0
1.16 0 0
1.17 0 0
1.18 0 0
1.19 0 0
1.2 0 0
1.21 0 0
1.22 0 0
1.23 0 0
1.24 0 0
1.25 0 0
1.26 0 0
1.27 0 0
1.28 0 0
1.29 0 0
1.3 0 0
1.31 0 0
1.32 0 0
1.33 0 0
1.34 0 0
1.35 0 0
1.36 0 0
1.37 0 0
1.38 0 0
1.39 0 0
1.4 0 0
1.41 0 0
1.42 0 0
1.43 0 0
1.44 0 0
1.45 0 0
1.46 0 0
1.47 0 0
1.48 0 0
1.49 0 0
1.5 0 0
1.51 0 0
1.52 0 0
1.53 0 0
1.54 0 0
1.55 0 0
1.56 0 0
1.57 0 0
1.58 0 0
1.59 0 0
1.6 0 0
1.61 0 0
1.62 0 0
1.63 0 0
1.64 0 0
1.65 0 0
1.66 0 0
1.67 0 0
1.68 0 0
1.69 0 0
1.7 0 0
1.71 0 0
1.72 0 0
1.73 0 0
1.74 0 0
1.75 0 0
1.76 0 0
1.77 0 0
1.78 0 0
1.79 0 0
1.8 0 0
1.81 0 0
1.82 0 0
1.83 0 0
1.84 0 0
1.85 0 0
1.86 0 0
1.87 0 0
1.88 0 0
1.89 0 0
1.9 0 0
1.91 0 0
1.92 0 0
1.93 0 0
1.94 0 0
1.95 0 0
1.96 0 0
1.97 0 0
1.98 0 0
1.99 0 0
2 0.010289 0
2 0.0215307 0
2 0.0338135 0
2 0.0472336 0
2 0.0618965 0
2 0.0779171 0
2 0.0954213 0
2 0.114546 0
2 0.135442 0
2 0.158274 0
2 0.183219 0
2 0.210474 0
2 0.240253 0
2 0.27279 0
2 0.308339 0
2 0.347181 0
2 0.389619 0
2 0.435987 0
2 0.486649 0
2 0.542002 0
2 0.602481 0
2 0.66856 0
2 0.740758 0
2 0.819642 0
2 0.90583 0
1.9 1 0
1.8 1 0
1.7 1 0
1.6 1 0
1.5 1 0
1.4 1 0
1.3 1 0
1.2 1 0
1.1 1 0
1 1 0
0.9 1 0
0.8 1 0
0.7 1 0
0.6 1 0
0.5 1 0
0.4 1 0
0.3 1 0
0.2 1 0
0.1 1 0
3.69793e-12 1 0
-0.1 1 0
-0.2 1 0
-0.3 1 0
-0.4 1 0
-0.5 1 0
-0.6 1 0
-0.7 1 0
-0.8 1 0
-0.9 1 0
-1 0.90583 0
-1 0.819642 0
-1 0.740758 0
-1 0.66856 0
-1 0.602481 0
-1 0.542002 0
-1 0.486649 0
-1 0.435987 0
-1 0.389619 0
-1 0.347181 0
-1 0.308339 0
-1 0.27279 0
-1 0.240253 0
-1 0.210474 0
-1 0.183219 0
-1 0.158274 0
-1 0.135442 0
-1 0.114546 0
-1 0.0954213 0
-1 0.0779171 0
-1 0.0618965 0
-1 0.0472336 0
-1 0.0338135 0
-1 0.0215307 0
-1 0.010289 0
0.00921362 0.00379763 0
0.0184561 0.00752451 0
0.0277268 0.0111804 0
0.0370253 0.0147652 0
0.0463511 0.0182786 0
0.0557034 0.0217203 0
0.0650819 0.0250903 0
0.074486 0.0283883 0
0.083915 0.0316141 0
0.0933685 0.0347675 0
0.102846 0.0378484 0
0.112347 0.0408565 0
0.12187 0.0437917 0
0.131416 0.0466538 0
0.140983 0.0494427 0
0.150572 0.0521581 0
0.160181 0.0547999 0
0.16981 0.0573681 0
0.179458 0.0598623 0
0.189125 0.0622825 0
0.198811 0.0646285 0
0.208514 0.0669001 0
0.218234 0.0690974 0
0.227971 0.07122 0
0.237724 0.073268 0
0.247493 0.0752411 0
0.257276 0.0771393 0
0.267073 0.0789625 0
0.276884 0.0807105 0
0.286708 0.0823832 0
0.296545 0.0839806 0
0.306394 0.0855025 0
0.316254 0.0869488 0
0.326125 0.0883196 0
0.336006 0.0896146 0
0.345896 0.0908339 0
0.355796 0.0919773 0
0.365704 0.0930447 0
0.375621 0.0940362 0
0.385544 0.0949517 0
0.395474 0.095791 0
0.40541 0.0965542 0
0.415352 0.0972412 0
0.425299 0.097852 0
0.43525 0.0983865 0
0.445205 0.0988447 0
0.455164 0.0992266 0
0.465125 0.0995321 0
0.475088 0.0997613 0
0.485052 0.0999141 0
0.495017 0.0999904 0
0.504983 0.0999904 0
0.514948 0.0999141 0
0.524912 0.0997613 0
0.534875 0.0995321 0
0.544836 0.0992266 0
0.554795 0.0988447 0
0.56475 0.0983865 0
0.574701 0.097852 0
0.584648 0.0972412 0
0.59459 0.0965542 0
0.604526 0.095791 0
0.614456 0.0949517 0
0.624379 0.0940362 0
0.634296 0.0930447 0
0.644204 0.0919773 0
0.654104 0.0908339 0
0.663994 0.0896146 0
0.673875 0.0883196 0
0.683746 0.0869488 0
0.693606 0.0855025 0
0.703455 0.0839806 0
0.713292 0.0823832 0
0.723116 0.0807105 0
0.732927 0.0789625 0
0.742724 0.0771393 0
0.752508 0.0752411 0
0.762276 0.073268 0
0.772029 0.07122 0
0.781766 0.0690974 0
0.791486 0.0669001 0
0.801189 0.0646285 0
0.810875 0.0622825 0
0.820542 0.0598623 0
0.83019 0.0573681 0
0.839819 0.0547999 0
0.849428 0.0521581 0
0.859017 0.0494427 0
0.868584 0.0466538 0
0.87813 0.0437917 0
0.887653 0.0408565 0
0.897154 0.0378484 0
0.906631 0.0347675 0
0.916085 0.0316141 0
0.925514 0.0283883 0
0.934918 0.0250903 0
0.944297 0.0217203 0
0.953649 0.0182786 0
0.962975 0.0147652 0
0.972273 0.0111804 0
0.981544 0.00752451 0
0.990786 0.00379763 0
-1 0.90583 0.1
-1 0.819642 0.1
-1 0.740758 0.1
-1 0.66856 0.1
-1 0.602481 0.1
-1 0.542002 0.1
-1 0.486649 0.1
-1 0.435987 0.1
-1 0.389619 0.1
-1 0.347181 0.1
-1 0.308339 0.1
-1 0.27279 0.1
-1 0.240253 0.1
-1 0.210474 0.1
-1 0.183219 0.1
-1 0.158274 0.1
-1 0.135442 0.1
-1 0.114546 0.1
-1 0.0954213 0.1
-1 0.0779171 0.1
-1 0.0618965 0.1
-1 0.0472336 0.1
-1 0.0338135 0.1
-1 0.0215307 0.1
-1 0.010289 0.1
-0.99 0 0.1
-0.98 0 0.1
-0.97 0 0.1
-0.96 0 0.1
-0.95 0 0.1
-0.94 0 0.1
-0.93 0 0.1
-0.92 0 0.1
-0.91 0 0.1
-0.9 0 0.1
-0.89 0 0.1
-0.88 0 0.1
-0.87 0 0.1
-0.86 0 0.1
-0.85 0 0.1
-0.84 0 0.1
-0.83 0 0.1
-0.82 0 0.1
-0.81 0 0.1
-0.8 0 0.1
-0.79 0 0.1
-0.78 0 0.1
-0.77 0 0.1
-0.76 0 0.1
-0.75 0 0.1
-0.74 0 0.1
-0.73 0 0.1
-0.72 0 0.1
-0.71 0 0.1
-0.7 0 0.1
-0.69 0 0.1
-0.68 0 0.1
-0.67 0 0.1
-0.66 0 0.1
-0.65 0 0.1
-0.64 0 0.1
-0.63 0 0.1
-0.62 0 0.1
-0.61 0 0.1
-0.6 0 0.1
-0.59 0 0.1
-0.58 0 0.1
-0.57 0 0.1
-0.56 0 0.1
-0.55 0 0.1
-0.54 0 0.1
-0.53 0 0.1
-0.52 0 0.1
-0.51 0 0.1
-0.5 0 0.1
-0.49 0 0.1
-0.48 0 0.1
-0.47 0 0.1
-0.46 0 0.1
-0.45 0 0.1
-0.44 0 0.1
-0.43 0 0.1
-0.42 0 0.1
-0.41 0 0.1
-0.4 0 0.1
-0.39 0 0.1
-0.38 0 0.1
-0.37 0 0.1
-0.36 0 0.1
-0.35 0 0.1
-0.34 0 0.1
-0.33 0 0.1
-0.32 0 0.1
-0.31 0 0.1
-0.3 0 0.1
-0.29 0 0.1
-0.28 0 0.1
-0.27 0 0.1
-0.26 0 0.1
-0.25 0 0.1
-0.24 0 0.1
-0.23 0 0.1
-0.22 0 0.1
-0.21 0 0.1
-0.2 0 0.1
-0.19 0 0.1
-0.18 0 0.1
-0.17 0 0.1
-0.16 0 0.1
-0.15 0 0.1
-0.14 0 0.1
-0.13 0 0.1
-0.12 0 0.1
-0.11 0 0.1
-0.1 0 0.1
-0.09 0 0.1
-0.08 0 0.1
-0.07 0 0.1
-0.06 0 0.1
-0.05 0 0.1
-0.04 0 0.1
-0.03 0 0.1
-0.02 0 0.1
-0.01 0 0.1
0.00921362 0.00379763 0.1
0.0184561 0.00752451 0.1
0.0277268 0.0111804 0.1
0.0370253 0.0147652 0.1
0.0463511 0.0182786 0.1
0.0557034 0.0217203 0.1
0.0650819 0.0250903 0.1
0.074486 0.0283883 0.1
0.083915 0.0316141 0.1
0.0933685 0.0347675 0.1
0.102846 0.0378484 0.1
0.112347 0.0408565 0.1
0.12187 0.0437917 0.1
0.131416 0.0466538 0.1
0.140983 0.0494427 0.1
0.150572 0.0521581 0.1
0.160181 0.0547999 0.1
0.16981 0.0573681 0.1
0.179458 0.0598623 0.1
0.189125 0.0622825 0.1
0.198811 0.0646285 0.1
0.208514 0.0669001 0.1
0.218234 0.0690974 0.1
0.227971 0.07122 0.1
0.237724 0.073268 0.1
0.247493 0.0752411 0.1
0.257276 0.0771393 0.1
0.267073 0.0789625 0.1
0.276884 0.0807105 0.1
0.286708 0.0823832 0.1
0.296545 0.0839806 0.1
0.306394 0.0855025 0.1
0.316254 0.0869488 0.1
0.326125 0.0883196 0.1
0.336006 0.0896146 0.1
0.345896 0.0908339 0.1
0.355796 0.0919773 0.1
0.365704 0.0930447 0.1
0.375621 0.0940362 0.1
0.385544 0.0949517 0.1
0.395474 0.095791 0.1
0.40541 0.0965542 0.1
0.415352 0.0972412 0.1
0.425299 0.097852 0.1
0.43525 0.0983865 0.1
0.445205 0.0988447 0.1
0.455164 0.0992266 0.1
0.465125 0.0995321 0.1
0.475088 0.0997613 0.1
0.485052 0.0999141 0.1
0.495017 0.0999904 0.1
0.504983 0.0999904 0.1
0.514948 0.0999141 0.1
0.524912 0.0997613 0.1
0.534875 0.0995321 0.1
0.544836 0.0992266 0.1
0.554795 0.0988447 0.1
0.56475 0.0983865 0.1
0.574701 0.097852 0.1
0.584648 0.0972412 0.1
0.59459 0.0965542 0.1
0.604526 0.095791 0.1
0.614456 0.0949517 0.1
0.624379 0.0940362 0.1
0.634296 0.0930447 0.1
0.644204 0.0919773 0.1
0.654104 0.0908339 0.1
0.663994 0.0896146 0.1
0.673875 0.0883196 0.1
0.683746 0.0869488 0.1
0.693606 0.0855025 0.1
0.703455 0.0839806 0.1
0.713292 0.0823832 0.1
0.723116 0.0807105 0.1
0.732927 0.0789625 0.1
0.742724 0.0771393 0.1
0.752508 0.0752411 0.1
0.762276 0.073268 0.1
0.772029 0.07122 0.1
0.781766 0.0690974 0.1
0.791486 0.0669001 0.1
0.801189 0.0646285 0.1
0.810875 0.0622825 0.1
0.820542 0.0598623 0.1
0.83019 0.0573681 0.1
0.839819 0.0547999 0.1
0.849428 0.0521581 0.1
0.859017 0.0494427 0.1
0.868584 0.0466538 0.1
0.87813 0.0437917 0.1
0.887653 0.0408565 0.1
0.897154 0.0378484 0.1
0.906631 0.0347675 0.1
0.916085 0.0316141 0.1
0.925514 0.0283883 0.1
0.934918 0.0250903 0.1
0.944297 0.0217203 0.1
0.953649 0.0182786 0.1
0.962975 0.0147652 0.1
0.972273 0.0111804 0.1
0.981544 0.00752451 0.1
0.990786 0.00379763 0.1
1.01 0 0.1
1.02 0 0.1
1.03 0 0.1
1.04 0 0.1
1.05 0 0.1
1.06 0 0.1
1.07 0 0.1
1.08 0 0.1
1.09 0 0.1
1.1 0 0.1
1.11 0 0.1
1.12 0 0.1
1.13 0 0.1
1.14 0 0.1
1.15 0 0.1
1.16 0 0.1
1.17 0 0.1
1.18 0 0.1
1.19 0 0.1
1.2 0 0.1
1.21 0 0.1
1.22 0 0.1
1.23 0 0.1
1.24 0 0.1
1.25 0 0.1
1.26 0 0.1
1.27 0 0.1
1.28 0 0.1
1.29 0 0.1
1.3 0 0.1
1.31 0 0.1
1.32 0 0.1
1.33 0 0.1
1.34 0 0.1
1.35 0 0.1
1.36 0 0.1
1.37 0 0.1
1.38 0 0.1
1.39 0 0.1
1.4 0 0.1
1.41 0 0.1
1.42 0 0.1
1.43 0 0.1
1.44 0 0.1
1.45 0 0.1
1.46 0 0.1
1.47 0 0.1
1.48 0 0.1
1.49 0 0.1
1.5 0 0.1
1.51 0 0.1
1.52 0 0.1
1.53 0 0.1
1.54 0 0.1
1.55 0 0.1
1.56 0 0.1
1.57 0 0.1
1.58 0 0.1
1.59 0 0.1
1.6 0 0.1
1.61 0 0.1
1.62 0 0.1
1.63 0 0.1
1.64 0 0.1
1.65 0 0.1
1.66 0 0.1
1.67 0 0.1
1.68 0 0.1
1.69 0 0.1
1.7 0 0.1
1.71 0 0.1
1.72 0 0.1
1.73 0 0.1
1.74 0 0.1
1.75 0 0.1
1.76 0 0.1
1.77 0 0.1
1.78 0 0.1
1.79 0 0.1
1.8 0 0.1
1.81 0 0.1
1.82 0 0.1
1.83 0 0.1
1.84 0 0.1
1.85 0 0.1
1.86 0 0.1
1.87 0 0.1
1.88 0 0.1
[...]
CELL_DATA 7425
SCALARS rho float
LOOKUP_TABLE default
0.905908
0.892123
0.949425
0.95296
0.851454
0.950443
0.951084
0.944825
0.942472
0.92894
0.962303
0.921009
0.944391
0.952928
0.901955
0.947847
0.812314
0.943115
0.859574
0.924309
0.953907
0.93423
0.925664
0.952994
0.874818
0.929038
0.954007
0.946627
0.897424
0.916784
0.950909
0.917245
0.862758
0.919021
0.9026
0.952971
0.872108
0.944741
0.922901
0.953243
0.931261
0.922193
0.942229
0.907345
0.910014
0.923156
0.948545
0.944306
0.917406
0.912568
0.919097
0.895777
0.931643
0.827295
0.911021
0.90325
0.951054
0.814078
0.929061
0.923782
0.927886
0.915715
0.943058
0.827024
0.895392
0.948354
0.905479
0.93842
0.90345
0.916329
0.900127
0.826693
0.967652
0.933709
0.933927
0.942503
0.893781
0.893
0.94313
0.921792
0.946835
0.914415
0.947038
0.929513
0.954135
0.869791
0.901587
0.953637
0.90442
0.958375
0.909109
0.926757
0.945582
0.846662
0.948232
0.941493
0.940621
0.918753
0.952139
0.896193
0.951933
0.917182
0.86895
0.953251
0.905866
0.923209
0.952338
0.928412
0.945822
0.839507
0.948227
0.928164
0.929714
0.926801
0.942289
0.918881
0.954061
0.821564
0.907713
0.913424
0.896627
0.93919
0.94238
0.923872
0.961163
0.942351
0.912665
0.946283
0.917337
0.899571
0.945998
0.919178
0.901802
0.952881
0.916995
0.853989
0.931061
0.929667
0.902315
0.923103
0.932756
0.922463
0.946382
0.910055
0.88994
0.926924
0.899836
0.949644
0.92798
0.95287
0.950069
0.909739
0.895761
0.918244
0.909157
0.879316
0.921784
0.953678
0.94498
0.921385
0.854873
0.907519
0.871326
0.95351
0.950055
0.816025
0.942661
0.941
0.921078
0.868879
0.94952
0.909919
0.95035
0.837841
0.813435
0.923731
0.902861
0.941518
0.912601
0.907219
0.845721
0.945803
0.966636
0.954047
0.909128
0.951056
0.82096
0.937567
0.846528
0.943745
0.941736
0.849526
0.92226
0.909091
0.945955
0.950319
0.924275
0.94689
0.949666
0.912859
0.925278
0.943105
0.907964
0.9424
0.900511
0.903931
0.90506
0.914945
0.937638
0.96656
0.912712
0.895152
0.955805
0.942222
0.948367
0.950192
0.946205
0.908057
0.910516
0.944073
0.904954
0.911596
0.908622
0.949798
0.945516
0.942499
0.954526
0.941759
0.951281
0.911386
0.940081
0.928789
0.921828
0.873202
0.826406
0.928285
0.922654
0.905685
0.910162
0.962501
0.955125
0.952929
0.913511
0.94904
0.9255
0.923231
0.950457
0.870211
0.952418
0.918111
0.945128
0.913325
0.94181
0.951442
0.924475
0.899566
0.821932
0.916265
0.942873
0.945904
0.917687
0.946843
0.945643
0.957821
0.948781
0.911795
0.846388
0.95216
0.961729
0.913925
0.905397
0.958457
0.928848
0.899108
0.952907
0.954653
0.943522
0.951364
0.924239
0.945909
0.95201
0.958412
0.937238
0.955216
0.856093
0.947851
0.830643
0.922374
0.92884
0.902143
0.907691
0.950244
0.942426
0.946848
0.948003
0.924662
0.911984
0.952682
0.90343
0.938048
0.868551
0.912556
0.903858
0.908836
0.946042
0.943083
0.942227
0.945474
0.952522
0.925607
0.925803
0.889618
0.941731
0.956285
0.952645
0.954654
0.86694
0.908258
0.944866
0.953597
0.922473
0.821479
0.820181
0.962502
0.947768
0.902104
0.94378
0.924555
0.947159
0.933351
0.947317
0.975602
0.861798
0.931202
0.917029
0.910803
0.911732
0.947341
0.952636
0.945874
0.944013
0.95746
0.948406
0.852909
0.944445
0.936426
0.935092
0.927304
0.967142
0.866913
0.913973
0.869856
0.820641
0.943662
0.946617
0.94738
0.91725
0.938284
0.920515
0.934396
0.917636
0.949771
0.819652
0.941985
0.933659
0.933748
0.951646
0.947923
0.822356
0.81666
0.93407
0.925079
0.935839
0.942672
0.943701
0.875372
0.920933
0.899254
0.911595
0.943758
0.843216
0.941866
0.931059
0.904087
0.943977
0.943662
0.873416
0.941465
0.943134
0.902668
0.889255
0.947077
0.913739
0.951044
0.922014
0.948243
0.91348
0.901357
0.902029
0.909337
0.954698
0.911246
0.946851
0.966687
0.91411
0.931904
0.934702
0.904153
0.964991
0.904996
0.951451
0.950778
0.877013
0.952198
0.924382
0.951314
0.953744
0.952166
0.924179
0.952817
0.922888
0.923184
0.915421
0.944063
0.936235
0.899579
0.849304
0.950165
0.940018
0.89991
0.90704
0.908941
0.926531
0.943516
0.957239
0.962944
0.953618
0.823859
0.941815
0.903325
0.951451
0.919147
0.859875
0.92291
0.951264
0.947927
0.917521
0.912167
0.930801
0.901676
0.903754
0.872055
0.90465
0.947344
0.923535
0.92132
0.917373
0.937274
0.939865
0.947891
0.945737
0.949457
0.943181
0.930333
0.9157
0.956015
0.952103
0.923974
0.925572
0.86596
0.955205
0.92672
0.960084
0.922998
0.926823
0.940145
0.949508
0.904089
0.823802
0.956495
0.927784
0.944166
0.94853
0.848725
0.947506
0.954153
0.840275
0.95669
0.919382
0.910093
0.81321
0.944693
0.950893
0.928887
0.957976
0.878382
0.947575
0.813506
0.924206
0.922484
0.9025
0.918163
0.909212
0.945698
0.945499
0.952643
0.931771
0.923943
0.945577
0.950085
0.834657
0.933957
0.952235
0.930333
0.839657
0.92498
0.943917
0.950463
0.941864
0.943698
0.952041
0.961741
0.960122
0.936395
0.904242
0.954659
0.909947
0.956606
0.944937
0.934986
0.943712
0.944208
0.91417
0.917301
0.951002
0.941751
0.942948
0.947689
0.909581
0.950057
0.824985
0.941685
0.945618
0.964923
0.903743
0.943829
0.94362
0.96759
0.900007
0.947418
0.938347
0.913923
0.933287
0.944439
0.96367
0.949286
0.953954
0.928966
0.908546
0.834879
0.878864
0.926974
0.959281
0.923281
0.926703
0.944976
0.943099
0.949553
0.91167
0.954012
0.954839
0.948322
0.936118
0.943362
0.854409
0.925542
0.918821
0.896893
0.950379
0.821775
0.957462
0.924613
0.933364
0.861746
0.949632
0.931255
0.941987
0.948689
0.932881
0.943933
0.951049
0.937783
0.952162
0.865608
0.834484
0.958536
0.924635
0.936966
0.957258
0.902035
0.900524
0.942535
0.953027
0.958915
0.948987
0.827763
0.934224
0.95934
0.927253
0.888501
0.865176
0.942044
0.926877
0.88316
0.938203
0.923805
0.916677
0.951511
0.956986
0.910404
0.956697
0.852241
0.951616
0.945047
0.878133
0.956154
0.942579
0.925126
0.948945
0.913795
0.944942
0.974973
0.828966
0.951154
0.810177
0.829532
0.947171
0.83312
0.861089
0.927999
0.91926
0.952845
0.941944
0.935861
0.949578
0.951464
0.927206
0.950804
0.909724
0.952233
0.965801
0.95377
0.912308
0.922326
0.956404
0.948001
0.957123
0.946741
0.958387
0.919721
0.948469
0.830711
0.955798
0.961807
0.959474
0.933159
0.944658
0.951569
0.919398
0.93229
0.926014
0.810768
0.932919
0.947069
0.953794
0.935284
0.950503
0.945655
0.943245
0.949478
0.946458
0.95469
0.925296
0.811105
0.923377
0.934751
0.942877
0.925888
0.954206
0.928403
0.908669
0.924787
0.92585
0.823515
0.949523
0.895655
0.946386
0.947996
0.901246
0.949882
0.890532
0.917122
0.913213
0.957744
0.952115
0.952513
0.930339
0.877515
0.922227
0.922037
0.975544
0.946068
0.88696
0.944703
0.923348
0.92097
0.946067
0.950319
0.928485
0.943123
0.947078
0.904675
0.942137
0.940291
0.94313
0.905803
0.886025
0.908985
0.916455
0.894284
0.928603
0.94176
0.94806
0.874501
0.918658
0.807343
0.948809
0.949674
0.943205
0.94183
0.922419
0.953946
0.919708
0.921268
0.943047
0.932262
0.947722
0.84591
0.92073
0.952246
0.94631
0.950684
0.923081
0.918135
0.950122
0.921149
0.951113
0.920622
0.965035
0.9249
0.957397
0.953158
0.965136
0.930802
0.840344
0.94999
0.941459
0.941052
0.952659
0.949554
0.948172
0.950239
0.9224
0.916311
0.927939
0.938855
0.890067
0.912659
0.953608
0.906314
0.869128
0.949772
0.89877
0.922469
0.927243
0.944668
0.909197
0.928482
0.949764
0.953514
0.952418
0.911466
0.92608
0.930839
0.891642
0.941992
0.860561
0.930129
0.945598
0.94662
0.941985
0.938253
0.848778
0.885648
0.91093
0.899897
0.941768
0.939536
0.909849
0.946042
0.94697
0.945631
0.948697
0.945572
0.951874
0.848069
0.903089
0.925649
0.934713
0.937849
0.935807
0.94249
0.920701
0.949194
0.93183
0.924986
0.922391
0.950202
0.943538
0.880799
0.948968
0.942043
0.952771
0.947747
0.94785
0.946206
0.955314
0.945301
0.942448
0.924953
0.944372
0.877914
0.950515
0.872206
0.950996
0.943622
0.909323
0.94371
0.954786
0.948706
0.941497
0.900601
0.947752
0.946969
0.899141
0.923431
0.920329
0.95452
0.947631
0.925147
0.94329
0.822135
0.947614
0.923824
0.902203
0.926642
0.93163
0.907916
0.946992
0.86072
0.920783
0.944117
0.950926
0.808793
0.926573
0.948794
0.82367
0.928208
0.944741
0.933557
0.900207
0.954389
0.927674
0.918809
0.833283
0.921597
0.913008
0.939108
0.947103
0.952871
0.948942
0.937343
0.889492
0.926875
0.91156
0.900628
0.952026
0.923798
0.927879
0.942481
0.94349
0.948368
0.965019
0.934597
0.950466
0.946233
0.952409
0.968357
0.945692
0.944991
0.91544
0.928003
0.926297
0.953018
0.822998
0.926794
0.833778
0.925746
0.959744
0.950995
0.955456
0.950454
0.922701
0.923798
0.906146
0.949879
0.825585
0.900771
0.918323
0.942695
0.946238
0.921468
0.934681
0.913426
0.945274
0.914484
0.91783
0.950811
0.951392
0.929534
0.930963
0.93556
0.956721
0.877152
0.941744
0.937483
0.873498
0.945068
0.883186
0.903977
0.933903
0.944844
0.953149
0.945387
0.952637
0.922515
0.914546
0.943289
0.937605
0.927991
0.95513
0.903907
0.921852
0.941992
0.9308
0.950736
0.937139
0.941789
0.833746
0.948556
0.933141
0.906053
0.938784
0.949758
0.818392
0.908548
0.927011
0.889363
0.946004
0.945172
0.953173
0.903038
0.93593
0.928425
0.961146
0.884985
0.931725
0.874557
0.942396
0.817006
0.952707
0.953899
0.934356
0.948854
0.909829
0.940933
0.95064
0.899619
0.943558
0.890719
0.910099
0.943664
0.889231
0.925954
0.939469
0.958458
0.954056
0.94362
0.846486
0.902676
0.872531
0.920241
0.907632
0.952216
0.933951
0.91801
0.951889
0.80829
0.926716
0.848516
0.933176
0.92626
0.941163
0.938362
0.948294
0.947928
0.951212
0.950087
0.943461
0.948102
0.922712
0.922553
0.910146
0.953358
0.964163
0.948783
0.942209
0.958133
0.962332
0.925591
0.951187
0.961993
0.950898
0.941659
0.950788
0.932728
0.94913
0.91976
0.917447
0.900116
0.942292
0.923542
0.943343
0.931479
0.859631
0.909435
0.943439
0.906529
0.935955
0.883642
0.950506
0.960087
0.858531
0.912188
0.95016
0.947025
0.905352
0.923757
0.90131
0.950556
0.90827
0.938684
0.952334
0.95342
0.909807
0.954292
0.930408
0.902117
0.968821
0.948691
0.946558
0.897333
0.910998
0.815908
0.853786
0.945927
0.93585
0.910651
0.967912
0.927472
0.955371
0.945295
0.954428
0.956954
0.950278
0.88868
0.944784
0.959261
0.929466
0.963975
0.944649
0.901917
0.899238
0.921574
0.959447
0.938831
0.894476
0.882354
0.830156
0.826248
0.949332
0.941822
0.947669
0.915606
0.811929
0.863639
0.842757
0.94143
0.947627
0.81106
0.941502
0.958333
0.813276
0.941676
0.810351
0.94248
0.931938
0.943987
0.94512
0.913045
0.927434
0.924165
0.951832
0.911996
0.900757
0.948507
0.946197
0.940065
0.896048
0.84724
0.808615
0.94403
0.901968
0.92049
0.946963
0.940545
0.949917
0.942133
0.952724
0.923446
0.93102
0.943036
0.924328
0.834598
0.909336
0.920633
0.858108
0.935541
0.947606
0.953377
0.945809
0.904023
0.956465
0.941612
0.93344
0.87779
0.934692
0.94068
0.97155
0.944782
0.952244
0.920059
0.93866
0.961777
0.897891
0.883962
0.952207
0.914197
0.909946
0.855097
0.871336
0.904421
0.912678
0.881319
0.951696
0.942471
0.950924
0.922776
0.950394
0.942997
0.952347
0.951121
0.925596
0.941621
0.934111
0.905874
0.947454
0.940791
0.915614
0.903533
0.941641
0.9121
0.925211
0.90165
0.956645
0.849523
0.904605
0.904485
0.951819
0.975558
0.948777
0.911957
0.945334
0.942661
0.874967
0.928714
0.934666
0.951226
0.924959
0.951152
0.952104
0.90677
0.9486
0.938532
0.948211
0.907903
0.950945
0.944612
0.945024
0.862574
0.914882
0.956122
0.947011
0.918298
0.89973
0.947732
0.847032
0.947025
0.910934
0.947868
0.913467
0.930162
0.866346
0.945385
0.934713
0.930395
0.913191
0.902273
0.913919
0.866994
0.903395
0.950911
0.906802
0.93428
0.924031
0.915229
0.906008
0.931731
0.836383
0.913412
0.950316
0.830342
0.884176
0.935459
0.970008
0.835463
0.951886
0.862898
0.941796
0.923528
0.919213
0.930138
0.95062
0.96906
0.954269
0.93445
0.951259
0.9389
0.966716
0.880041
0.934223
0.95886
0.940534
0.881729
0.915744
0.934407
0.938158
0.918127
0.893304
0.843228
0.949971
0.954641
0.904511
0.922021
0.904535
0.9145
0.916539
0.933231
0.95041
0.949928
0.888843
0.906035
0.964564
0.809643
0.8102
0.962536
0.941368
0.919836
0.941247
0.80937
0.948392
0.811354
0.925892
0.891776
0.921913
0.816536
0.949906
0.80767
0.909215
0.94951
0.947848
0.919615
0.932537
0.904104
0.9023
0.90449
0.921449
0.926515
0.902227
0.932188
0.944043
0.910588
0.923783
0.91293
0.948149
0.916255
0.935594
0.910582
0.94963
0.919884
0.812911
0.97175
0.926561
0.947553
0.912378
0.922823
0.952659
0.942094
0.945216
0.958564
0.943383
0.918086
0.907149
0.853052
0.928248
0.912808
0.909263
0.94132
0.906625
0.914996
0.949073
0.946294
0.916171
0.844524
0.908099
0.950345
0.884938
0.904769
0.90553
0.931668
0.886098
0.9507
0.902533
0.93186
0.905149
0.93034
0.908447
0.935696
0.878962
0.907284
0.906168
0.963622
0.922325
0.936705
0.930786
0.917007
0.913405
0.911785
0.948478
0.934337
0.924331
0.910256
0.935874
0.950522
0.946694
0.941798
0.946361
0.951017
0.93729
0.949567
0.919799
0.958762
0.941655
0.82703
0.943101
0.915249
0.950204
0.950246
0.94872
0.950286
0.948828
0.850027
0.949256
0.950406
0.950521
0.949089
0.89035
0.948952
0.949186
0.915247
0.949058
0.963891
0.948886
0.913065
0.912716
0.961095
0.948956
0.95188
0.843
0.941117
0.922122
0.959316
0.911054
0.933007
0.923895
0.946632
0.891551
0.854994
0.954128
0.933853
0.904979
0.946143
0.939398
0.955777
0.956694
0.951059
0.915607
0.916598
0.946786
0.948629
0.949879
0.958548
0.957745
0.92673
0.949667
0.940975
0.946219
0.948981
0.94587
0.949015
0.928779
0.946743
0.958965
0.946851
0.948649
0.948134
0.948739
0.914342
0.949135
0.906594
0.912412
0.907099
0.948846
0.941836
0.943373
0.921569
0.944268
0.907688
0.950171
0.906605
0.960118
0.894838
0.946594
0.942485
0.907652
0.90232
0.873224
0.942318
0.930618
0.92172
0.942197
0.943811
0.942735
0.921885
0.96205
0.901058
0.942097
0.956537
0.942686
0.856657
0.91708
0.94583
0.956138
0.862962
0.890697
0.948208
0.905277
0.942005
0.91958
0.920219
0.943712
0.942586
0.942843
0.943382
0.902303
0.935101
0.924226
0.968706
0.95137
0.917043
0.915255
0.946234
0.93331
0.932783
0.910683
0.841964
0.943306
0.911378
0.851983
0.882199
0.931274
0.946537
0.960531
0.921992
0.905313
0.847588
0.92619
0.928249
0.969867
0.947073
0.9313
0.932905
0.953272
0.943449
0.95083
0.95529
0.911366
0.948503
0.913507
0.944259
0.944156
0.911732
0.944033
0.951085
0.911607
0.951086
0.919075
0.961782
0.928339
0.944961
0.942046
0.943922
0.921628
0.943947
0.908015
0.826245
0.925427
0.951224
0.946004
0.919964
0.924165
0.953594
0.943857
0.950393
0.950646
0.94354
0.952064
0.828222
0.901085
0.922647
0.921998
0.917114
0.955445
0.935573
0.94055
0.946299
0.873742
0.942439
0.942097
0.942157
0.920136
0.902872
0.862327
0.905554
0.948457
0.936468
0.844052
0.883582
0.92933
0.922644
0.942956
0.920939
0.943461
0.960563
0.950287
0.819358
0.919104
0.935091
0.916367
0.953881
0.90308
0.908935
0.952809
0.818997
0.914008
0.943008
0.951139
0.948568
0.901538
0.911369
0.851557
0.944438
0.91604
0.942838
0.848454
0.8525
0.870209
0.943033
0.943229
0.948159
0.942498
0.913902
0.88477
0.842067
0.94227
0.971889
0.942938
0.939895
0.942743
0.888785
0.828377
0.905325
0.942114
0.858844
0.93702
0.932669
0.963253
0.950767
0.947081
0.86206
0.950306
0.923139
0.903334
0.937724
0.947554
0.953123
0.9285
0.944924
0.902673
0.961649
0.948688
0.941582
0.923709
0.91726
0.928361
0.945132
0.942207
0.928155
0.942215
0.889775
0.91472
0.884636
0.818348
0.923786
0.951924
0.951124
0.961491
0.947712
0.942155
0.907527
0.919219
0.942132
0.846461
0.93853
0.932713
0.834279
0.94403
0.952618
0.919952
0.892694
0.840656
0.951127
0.956023
0.891865
0.808584
0.889142
0.924673
0.949635
0.904507
0.963365
0.868011
0.900807
0.893873
0.946668
0.93353
0.914714
0.908044
0.868303
0.904569
0.862409
0.960791
0.927117
0.950884
0.881069
0.951544
0.890887
0.885457
0.951756
0.950689
0.934121
0.950765
0.950341
0.962775
0.928633
0.958578
0.94862
0.912697
0.881167
0.887401
0.893182
0.950277
0.951684
0.895409
0.863396
0.843896
0.950982
0.887212
0.866287
0.839873
0.951696
0.874296
0.84129
0.908156
0.953126
0.876305
0.869475
0.936587
0.818821
0.946264
0.911887
0.95244
0.958272
0.901
0.949403
0.857612
0.953218
0.955597
0.853677
0.950602
0.825616
0.917711
0.928247
0.842773
0.886099
0.906222
0.908211
0.90631
0.949402
0.945523
0.923327
0.953991
0.890962
0.825522
0.8409
0.92938
0.954691
0.855792
0.949314
0.946123
0.912801
0.906782
0.818367
0.955904
0.951173
0.838216
0.916553
0.834111
0.956718
0.947597
0.912916
0.883628
0.932958
0.957152
0.916025
0.938472
0.94696
0.946998
0.94929
0.924768
0.927171
0.920646
0.872297
0.926083
0.917438
0.903551
0.958154
0.930869
0.944759
0.959957
0.949257
0.93556
0.918607
0.945134
0.949347
0.932008
0.914921
0.923695
0.962378
0.946121
0.826796
0.942848
0.964103
0.808002
0.966002
0.946686
0.948153
0.950014
0.898034
0.894408
0.94291
0.946954
0.903934
0.944007
0.931671
0.967454
0.937258
0.921988
0.864343
0.953206
0.925638
0.942157
0.919939
0.910673
0.927809
0.94733
0.953233
0.945017
0.951979
0.939179
0.929744
0.928334
0.914462
0.942965
0.948281
0.907903
0.944062
0.904978
0.959135
0.819814
0.906923
0.94706
0.944612
0.875172
0.944123
0.849011
0.846978
0.919
0.950168
0.939006
0.940713
0.951214
0.944617
0.940036
0.851416
0.950712
0.856329
0.930371
0.907315
0.832562
0.827723
0.832745
0.94758
0.921223
0.897641
0.955098
0.939461
0.923694
0.90583
0.930771
0.926471
0.848251
0.912925
0.884379
0.911991
0.896702
0.94856
0.940385
0.944404
0.942323
0.921056
0.917372
0.967692
0.947093
0.912263
0.92329
0.914329
0.921248
0.917112
0.923346
0.945244
0.944271
0.915388
0.920613
0.877084
0.916503
0.952713
0.862185
0.946648
0.919698
0.958915
0.921347
0.898431
0.900002
0.935232
0.922695
0.904218
0.855088
0.956003
0.944348
0.926278
0.910972
0.929136
0.944729
0.941861
0.954624
0.944497
0.88167
0.950582
0.933898
0.904764
0.916677
0.935326
0.931723
0.943873
0.919858
0.94572
0.944817
0.939429
0.915713
0.970075
0.922883
0.943873
0.929337
0.926685
0.919326
0.94614
0.920078
0.860273
0.943707
0.950647
0.919998
0.917954
0.945434
0.921622
0.940213
0.951547
0.940355
0.950769
0.932342
0.942375
0.960563
0.951223
0.932447
0.943297
0.905005
0.921312
0.952327
0.952449
0.963206
0.941812
0.932571
0.903123
0.949309
0.850105
0.94477
0.930698
0.957858
0.942736
0.925292
0.967185
0.921407
0.925575
0.943526
0.950825
0.91965
0.944972
0.914102
0.918062
0.958591
0.939437
0.925187
0.950321
0.943379
0.921389
0.918625
0.950387
0.865114
0.955869
0.949464
0.927373
0.953601
0.94802
0.950471
0.949294
0.923175
0.949337
0.937237
0.947364
0.949215
0.929366
0.942645
0.942494
0.948925
0.949158
0.942322
0.950579
0.956412
0.949077
0.854689
0.936026
0.952994
0.931219
0.928454
0.852458
0.845187
0.942431
0.949079
0.937869
0.94219
0.949036
0.856713
0.95076
0.94209
0.942846
0.882937
0.94539
0.943673
0.930229
0.941998
0.955147
0.93033
0.950858
0.934958
0.904984
0.945375
0.948916
0.950998
0.948845
0.950996
0.953321
0.947496
0.948978
0.922844
0.942412
0.848206
0.946495
0.933143
0.940056
0.950468
0.948977
0.953402
0.951897
0.944147
0.932827
0.933775
0.952503
0.942743
0.946503
0.932656
0.954177
0.943429
0.946646
0.825613
0.941974
0.94285
0.90528
0.917128
0.930539
0.950347
0.871385
0.951833
0.946745
0.942442
0.923924
0.94415
0.92262
0.95102
0.949911
0.942854
0.953297
0.944046
0.914487
0.942038
0.953048
0.943542
0.943585
0.926319
0.936841
0.947634
0.828829
0.821896
0.94615
0.960076
0.942695
0.943309
0.958507
0.952589
0.956469
0.911441
0.953454
0.944654
0.949871
0.947996
0.946772
0.948248
0.924693
0.833482
0.938756
0.860304
0.83121
0.90373
0.931771
0.943383
0.946023
0.932392
0.946396
0.936963
0.943837
0.946302
0.830092
0.949129
0.942095
0.935903
0.919839
0.951005
0.949188
0.908796
0.949133
0.945949
0.941979
0.918332
0.913657
0.902885
0.935011
0.90724
0.947433
0.92673
0.942741
0.943778
0.929249
0.950467
0.948551
0.930472
0.914952
0.94863
0.930303
0.948691
0.946756
0.946805
0.942152
0.951529
0.864135
0.929232
0.941286
0.950749
0.948395
0.809295
0.929234
0.898478
0.94686
0.944407
0.947441
0.949023
0.902939
0.949855
0.949029
0.948844
0.925091
0.92967
0.911122
0.931982
0.944549
0.906682
0.922899
0.840358
0.946362
0.948549
0.948766
0.943188
0.948861
0.949301
0.948294
0.871882
0.948793
0.957536
0.946716
0.930238
0.94718
0.909911
0.912794
0.942439
0.947962
0.866083
0.950764
0.916679
0.825795
0.817363
0.949709
0.904128
0.948148
0.843659
0.946246
0.951105
0.925172
0.950611
0.948419
0.935504
0.944611
0.923925
0.830396
0.944239
0.973629
0.936788
0.94721
0.939596
0.946384
0.952337
0.913404
0.906822
0.946212
0.856754
0.904965
0.945688
0.925623
0.938719