# vtk DataFile Version 1.0
unstructured grid
ascii
DATASET UNSTRUCTURED_GRID
points 7812 float
-1 0 0
-1 1 0
2 0 0
2 1 0
0 0 0
1 0 0
-1 1 0.1
-1 0 0.1
0 0 0.1
1 0 0.1
2 0 0.1
2 1 0.1
-0.99 0 0
-0.98 0 0
-0.97 0 0
-0.96 0 0
-0.95 0 0
-0.94 0 0
-0.93 0 0
-0.92 0 0
-0.91 0 0
-0.9 0 0
-0.89 0 0
-0.88 0 0
-0.87 0 0
-0.86 0 0
-0.85 0 0
-0.84 0 0
-0.83 0 0
-0.82 0 0
-0.81 0 0
-0.8 0 0
-0.79 0 0
-0.78 0 0
-0.77 0 0
-0.76 0 0
-0.75 0 0
-0.74 0 0
-0.73 0 0
-0.72 0 0
-0.71 0 0
-0.7 0 0
-0.69 0 0
-0.68 0 0
-0.67 0 0
-0.66 0 0
-0.65 0 0
-0.64 0 0
-0.63 0 0
-0.62 0 0
-0.61 0 0
-0.6 0 0
-0.59 0 0
-0.58 0 0
-0.57 0 0
-0.56 0 0
-0.55 0 0
-0.54 0 0
-0.53 0 0
-0.52 0 0
-0.51 0 0
-0.5 0 0
-0.49 0 0
-0.48 0 0
-0.47 0 0
-0.46 0 0
-0.45 0 0
-0.44 0 0
-0.43 0 0
-0.42 0 0
-0.41 0 0
-0.4 0 0
-0.39 0 0
-0.38 0 0
-0.37 0 0
-0.36 0 0
-0.35 0 0
-0.34 0 0
-0.33 0 0
-0.32 0 0
-0.31 0 0
-0.3 0 0
-0.29 0 0
-0.28 0 0
-0.27 0 0
-0.26 0 0
-0.25 0 0
-0.24 0 0
-0.23 0 0
-0.22 0 0
-0.21 0 0
-0.2 0 0
-0.19 0 0
-0.18 0 0
-0.17 0 0
-0.16 0 0
-0.15 0 0
-0.14 0 0
-0.13 0 0
-0.12 0 0
-0.11 0 0
-0.1 0 0
-0.09 0 0
-0.08 0 0
-0.07 0 0
-0.06 0 0
-0.05 0 0
-0.04 0 0
-0.03 0 0
-0.02 0 0
-0.01 0 0
1.01 0 0
1.02 0 0
1.03 0 0
1.04 0 0
1.05 0 0
1.06 0 0
1.07 0 0
1.08 0 0
1.09 0 0
1.1 0 0
1.11 0 0
1.12 0 0
1.13 0 0
1.14 0 0
1.15 0 0
1.16 0 0
1.17 0 0
1.18 0 0
1.19 0 0
1.2 0 0
1.21 0 0
1.22 0 0
1.23 0 0
1.24 0 0
1.25 0 0
1.26 0 0
1.27 0 0
1.28 0 0
1.29 0 0
1.3 0 0
1.31 0 0
1.32 0 0
1.33 0 0
1.34 0 0
1.35 0 0
1.36 0 0
1.37 0 0
1.38 0 0
1.39 0 0
1.4 0 0
1.41 0 0
1.42 0 0
1.43 0 0
1.44 0 0
1.45 0 0
1.46 0 0
1.47 0 0
1.48 0 0
1.49 0 0
1.5 0 0
1.51 0 0
1.52 0 0
1.53 0 0
1.54 0 0
1.55 0 0
1.56 0 0
1.57 0 0
1.58 0 0
1.59 0 0
1.6 0 0
1.61 0 0
1.62 0 0
1.63 0 0
1.64 0 0
1.65 0 0
1.66 0 0
1.67 0 0
1.68 0 0
1.69 0 0
1.7 0 0
1.71 0 0
1.72 0 0
1.73 0 0
1.74 0 0
1.75 0 0
1.76 0 0
1.77 0 0
1.78 0 0
1.79 0 0
1.8 0 0
1.81 0 0
1.82 0 0
1.83 0 0
1.84 0 0
1.85 0 0
1.86 0 0
1.87 0 0
1.88 0 0
1.89 0 0
1.9 0 0
1.91 0 0
1.92 0 0
1.93 0 0
1.94 0 0
1.95 0 0
1.96 0 0
1.97 0 0
1.98 0 0
1.99 0 0
2 0.010289 0
2 0.0215307 0
2 0.0338135 0
2 0.0472336 0
2 0.0618965 0
2 0.0779171 0
2 0.0954213 0
2 0.114546 0
2 0.135442 0
2 0.158274 0
2 0.183219 0
2 0.210474 0
2 0.240253 0
2 0.27279 0
2 0.308339 0
2 0.347181 0
2 0.389619 0
2 0.435987 0
2 0.486649 0
2 0.542002 0
2 0.602481 0
2 0.66856 0
2 0.740758 0
2 0.819642 0
2 0.90583 0
1.9 1 0
1.8 1 0
1.7 1 0
1.6 1 0
1.5 1 0
1.4 1 0
1.3 1 0
1.2 1 0
1.1 1 0
1 1 0
0.9 1 0
0.8 1 0
0.7 1 0
0.6 1 0
0.5 1 0
0.4 1 0
0.3 1 0
0.2 1 0
0.1 1 0
3.69793e-12 1 0
-0.1 1 0
-0.2 1 0
-0.3 1 0
-0.4 1 0
-0.5 1 0
-0.6 1 0
-0.7 1 0
-0.8 1 0
-0.9 1 0
-1 0.90583 0
-1 0.819642 0
-1 0.740758 0
-1 0.66856 0
-1 0.602481 0
-1 0.542002 0
-1 0.486649 0
-1 0.435987 0
-1 0.389619 0
-1 0.347181 0
-1 0.308339 0
-1 0.27279 0
-1 0.240253 0
-1 0.210474 0
-1 0.183219 0
-1 0.158274 0
-1 0.135442 0
-1 0.114546 0
-1 0.0954213 0
-1 0.0779171 0
-1 0.0618965 0
-1 0.0472336 0
-1 0.0338135 0
-1 0.0215307 0
-1 0.010289 0
0.00921362 0.00379763 0
0.0184561 0.00752451 0
0.0277268 0.0111804 0
0.0370253 0.0147652 0
0.0463511 0.0182786 0
0.0557034 0.0217203 0
0.0650819 0.0250903 0
0.074486 0.0283883 0
0.083915 0.0316141 0
0.0933685 0.0347675 0
0.102846 0.0378484 0
0.112347 0.0408565 0
0.12187 0.0437917 0
0.131416 0.0466538 0
0.140983 0.0494427 0
0.150572 0.0521581 0
0.160181 0.0547999 0
0.16981 0.0573681 0
0.179458 0.0598623 0
0.189125 0.0622825 0
0.198811 0.0646285 0
0.208514 0.0669001 0
0.218234 0.0690974 0
0.227971 0.07122 0
0.237724 0.073268 0
0.247493 0.0752411 0
0.257276 0.0771393 0
0.267073 0.0789625 0
0.276884 0.0807105 0
0.286708 0.0823832 0
0.296545 0.0839806 0
0.306394 0.0855025 0
0.316254 0.0869488 0
0.326125 0.0883196 0
0.336006 0.0896146 0
0.345896 0.0908339 0
0.355796 0.0919773 0
0.365704 0.0930447 0
0.375621 0.0940362 0
0.385544 0.0949517 0
0.395474 0.095791 0
0.40541 0.0965542 0
0.415352 0.0972412 0
0.425299 0.097852 0
0.43525 0.0983865 0
0.445205 0.0988447 0
0.455164 0.0992266 0
0.465125 0.0995321 0
0.475088 0.0997613 0
0.485052 0.0999141 0
0.495017 0.0999904 0
0.504983 0.0999904 0
0.514948 0.0999141 0
0.524912 0.0997613 0
0.534875 0.0995321 0
0.544836 0.0992266 0
0.554795 0.0988447 0
0.56475 0.0983865 0
0.574701 0.097852 0
0.584648 0.0972412 0
0.59459 0.0965542 0
0.604526 0.095791 0
0.614456 0.0949517 0
0.624379 0.0940362 0
0.634296 0.0930447 0
0.644204 0.0919773 0
0.654104 0.0908339 0
0.663994 0.0896146 0
0.673875 0.0883196 0
0.683746 0.0869488 0
0.693606 0.0855025 0
0.703455 0.0839806 0
0.713292 0.0823832 0
0.723116 0.0807105 0
0.732927 0.0789625 0
0.742724 0.0771393 0
0.752508 0.0752411 0
0.762276 0.073268 0
0.772029 0.07122 0
0.781766 0.0690974 0
0.791486 0.0669001 0
0.801189 0.0646285 0
0.810875 0.0622825 0
0.820542 0.0598623 0
0.83019 0.0573681 0
0.839819 0.0547999 0
0.849428 0.0521581 0
0.859017 0.0494427 0
0.868584 0.0466538 0
0.87813 0.0437917 0
0.887653 0.0408565 0
0.897154 0.0378484 0
0.906631 0.0347675 0
0.916085 0.0316141 0
0.925514 0.0283883 0
0.934918 0.0250903 0
0.944297 0.0217203 0
0.953649 0.0182786 0
0.962975 0.0147652 0
0.972273 0.0111804 0
0.981544 0.00752451 0
0.990786 0.00379763 0
-1 0.90583 0.1
-1 0.819642 0.1
-1 0.740758 0.1
-1 0.66856 0.1
-1 0.602481 0.1
-1 0.542002 0.1
-1 0.486649 0.1
-1 0.435987 0.1
-1 0.389619 0.1
-1 0.347181 0.1
-1 0.308339 0.1
-1 0.27279 0.1
-1 0.240253 0.1
-1 0.210474 0.1
-1 0.183219 0.1
-1 0.158274 0.1
-1 0.135442 0.1
-1 0.114546 0.1
-1 0.0954213 0.1
-1 0.0779171 0.1
-1 0.0618965 0.1
-1 0.0472336 0.1
-1 0.0338135 0.1
-1 0.0215307 0.1
-1 0.010289 0.1
-0.99 0 0.1
-0.98 0 0.1
-0.97 0 0.1
-0.96 0 0.1
-0.95 0 0.1
-0.94 0 0.1
-0.93 0 0.1
-0.92 0 0.1
-0.91 0 0.1
-0.9 0 0.1
-0.89 0 0.1
-0.88 0 0.1
-0.87 0 0.1
-0.86 0 0.1
-0.85 0 0.1
-0.84 0 0.1
-0.83 0 0.1
-0.82 0 0.1
-0.81 0 0.1
-0.8 0 0.1
-0.79 0 0.1
-0.78 0 0.1
-0.77 0 0.1
-0.76 0 0.1
-0.75 0 0.1
-0.74 0 0.1
-0.73 0 0.1
-0.72 0 0.1
-0.71 0 0.1
-0.7 0 0.1
-0.69 0 0.1
-0.68 0 0.1
-0.67 0 0.1
-0.66 0 0.1
-0.65 0 0.1
-0.64 0 0.1
-0.63 0 0.1
-0.62 0 0.1
-0.61 0 0.1
-0.6 0 0.1
-0.59 0 0.1
-0.58 0 0.1
-0.57 0 0.1
-0.56 0 0.1
-0.55 0 0.1
-0.54 0 0.1
-0.53 0 0.1
-0.52 0 0.1
-0.51 0 0.1
-0.5 0 0.1
-0.49 0 0.1
-0.48 0 0.1
-0.47 0 0.1
-0.46 0 0.1
-0.45 0 0.1
-0.44 0 0.1
-0.43 0 0.1
-0.42 0 0.1
-0.41 0 0.1
-0.4 0 0.1
-0.39 0 0.1
-0.38 0 0.1
-0.37 0 0.1
-0.36 0 0.1
-0.35 0 0.1
-0.34 0 0.1
-0.33 0 0.1
-0.32 0 0.1
-0.31 0 0.1
-0.3 0 0.1
-0.29 0 0.1
-0.28 0 0.1
-0.27 0 0.1
-0.26 0 0.1
-0.25 0 0.1
-0.24 0 0.1
-0.23 0 0.1
-0.22 0 0.1
-0.21 0 0.1
-0.2 0 0.1
-0.19 0 0.1
-0.18 0 0.1
-0.17 0 0.1
-0.16 0 0.1
-0.15 0 0.1
-0.14 0 0.1
-0.13 0 0.1
-0.12 0 0.1
-0.11 0 0.1
-0.1 0 0.1
-0.09 0 0.1
-0.08 0 0.1
-0.07 0 0.1
-0.06 0 0.1
-0.05 0 0.1
-0.04 0 0.1
-0.03 0 0.1
-0.02 0 0.1
-0.01 0 0.1
0.00921362 0.00379763 0.1
0.0184561 0.00752451 0.1
0.0277268 0.0111804 0.1
0.0370253 0.0147652 0.1
0.0463511 0.0182786 0.1
0.0557034 0.0217203 0.1
0.0650819 0.0250903 0.1
0.074486 0.0283883 0.1
0.083915 0.0316141 0.1
0.0933685 0.0347675 0.1
0.102846 0.0378484 0.1
0.112347 0.0408565 0.1
0.12187 0.0437917 0.1
0.131416 0.0466538 0.1
0.140983 0.0494427 0.1
0.150572 0.0521581 0.1
0.160181 0.0547999 0.1
0.16981 0.0573681 0.1
0.179458 0.0598623 0.1
0.189125 0.0622825 0.1
0.198811 0.0646285 0.1
0.208514 0.0669001 0.1
0.218234 0.0690974 0.1
0.227971 0.07122 0.1
0.237724 0.073268 0.1
0.247493 0.0752411 0.1
0.257276 0.0771393 0.1
0.267073 0.0789625 0.1
0.276884 0.0807105 0.1
0.286708 0.0823832 0.1
0.296545 0.0839806 0.1
0.306394 0.0855025 0.1
0.316254 0.0869488 0.1
0.326125 0.0883196 0.1
0.336006 0.0896146 0.1
0.345896 0.0908339 0.1
0.355796 0.0919773 0.1
0.365704 0.0930447 0.1
0.375621 0.0940362 0.1
0.385544 0.0949517 0.1
0.395474 0.095791 0.1
0.40541 0.0965542 0.1
0.415352 0.0972412 0.1
0.425299 0.097852 0.1
0.43525 0.0983865 0.1
0.445205 0.0988447 0.1
0.455164 0.0992266 0.1
0.465125 0.0995321 0.1
0.475088 0.0997613 0.1
0.485052 0.0999141 0.1
0.495017 0.0999904 0.1
0.504983 0.0999904 0.1
0.514948 0.0999141 0.1
0.524912 0.0997613 0.1
0.534875 0.0995321 0.1
0.544836 0.0992266 0.1
0.554795 0.0988447 0.1
0.56475 0.0983865 0.1
0.574701 0.097852 0.1
0.584648 0.0972412 0.1
0.59459 0.0965542 0.1
0.604526 0.095791 0.1
0.614456 0.0949517 0.1
0.624379 0.0940362 0.1
0.634296 0.0930447 0.1
0.644204 0.0919773 0.1
0.654104 0.0908339 0.1
0.663994 0.0896146 0.1
0.673875 0.0883196 0.1
0.683746 0.0869488 0.1
0.693606 0.0855025 0.1
0.703455 0.0839806 0.1
0.713292 0.0823832 0.1
0.723116 0.0807105 0.1
0.732927 0.0789625 0.1
0.742724 0.0771393 0.1
0.752508 0.0752411 0.1
0.762276 0.073268 0.1
0.772029 0.07122 0.1
0.781766 0.0690974 0.1
0.791486 0.0669001 0.1
0.801189 0.0646285 0.1
0.810875 0.0622825 0.1
0.820542 0.0598623 0.1
0.83019 0.0573681 0.1
0.839819 0.0547999 0.1
0.849428 0.0521581 0.1
0.859017 0.0494427 0.1
0.868584 0.0466538 0.1
0.87813 0.0437917 0.1
0.887653 0.0408565 0.1
0.897154 0.0378484 0.1
0.906631 0.0347675 0.1
0.916085 0.0316141 0.1
0.925514 0.0283883 0.1
0.934918 0.0250903 0.1
0.944297 0.0217203 0.1
0.953649 0.0182786 0.1
0.962975 0.0147652 0.1
0.972273 0.0111804 0.1
0.981544 0.00752451 0.1
0.990786 0.00379763 0.1
1.01 0 0.1
1.02 0 0.1
1.03 0 0.1
1.04 0 0.1
1.05 0 0.1
1.06 0 0.1
1.07 0 0.1
1.08 0 0.1
1.09 0 0.1
1.1 0 0.1
1.11 0 0.1
1.12 0 0.1
1.13 0 0.1
1.14 0 0.1
1.15 0 0.1
1.16 0 0.1
1.17 0 0.1
1.18 0 0.1
1.19 0 0.1
1.2 0 0.1
1.21 0 0.1
1.22 0 0.1
1.23 0 0.1
1.24 0 0.1
1.25 0 0.1
1.26 0 0.1
1.27 0 0.1
1.28 0 0.1
1.29 0 0.1
1.3 0 0.1
1.31 0 0.1
1.32 0 0.1
1.33 0 0.1
1.34 0 0.1
1.35 0 0.1
1.36 0 0.1
1.37 0 0.1
1.38 0 0.1
1.39 0 0.1
1.4 0 0.1
1.41 0 0.1
1.42 0 0.1
1.43 0 0.1
1.44 0 0.1
1.45 0 0.1
1.46 0 0.1
1.47 0 0.1
1.48 0 0.1
1.49 0 0.1
1.5 0 0.1
1.51 0 0.1
1.52 0 0.1
1.53 0 0.1
1.54 0 0.1
1.55 0 0.1
1.56 0 0.1
1.57 0 0.1
1.58 0 0.1
1.59 0 0.1
1.6 0 0.1
1.61 0 0.1
1.62 0 0.1
1.63 0 0.1
1.64 0 0.1
1.65 0 0.1
1.66 0 0.1
1.67 0 0.1
1.68 0 0.1
1.69 0 0.1
1.7 0 0.1
1.71 0 0.1
1.72 0 0.1
1.73 0 0.1
1.74 0 0.1
1.75 0 0.1
1.76 0 0.1
1.77 0 0.1
1.78 0 0.1
1.79 0 0.1
1.8 0 0.1
1.81 0 0.1
1.82 0 0.1
1.83 0 0.1
1.84 0 0.1
1.85 0 0.1
1.86 0 0.1
1.87 0 0.1
1.88 0 0.1
[...]
CELL_DATA 7425
SCALARS rho float
LOOKUP_TABLE default
0.58951
0.805169
0.82024
0.828082
0.800062
0.81981
0.821406
0.814981
0.813944
0.739438
0.86375
0.810336
0.81476
0.827939
0.804283
0.817889
0.799347
0.814189
0.803579
0.767783
0.831811
0.822278
0.725652
0.828618
0.803989
0.705195
0.83173
0.849303
0.800317
0.808349
0.819877
0.724796
0.803727
0.654014
0.523832
0.828585
0.803606
0.81496
0.811446
0.828528
0.717754
0.706306
0.790545
0.697658
0.58931
0.748923
0.799966
0.814698
0.668305
0.718722
0.746387
0.805287
0.812569
0.799678
0.707828
0.700954
0.823546
0.800538
0.739313
0.702067
0.712221
0.807811
0.814162
0.799953
0.798933
0.818331
0.586616
0.773936
0.699337
0.808285
0.804654
0.803261
0.883583
0.821353
0.811089
0.814001
0.805186
0.800581
0.814166
0.757903
0.81675
0.807393
0.811178
0.789137
0.836288
0.801652
0.576663
0.830452
0.545893
0.848866
0.701879
0.730583
0.846225
0.803281
0.818125
0.759411
0.836584
0.788359
0.826225
0.803092
0.808833
0.73863
0.803385
0.828763
0.599165
0.81136
0.824943
0.708932
0.815803
0.799793
0.817442
0.785021
0.790202
0.812595
0.79028
0.786679
0.831776
0.80316
0.697353
0.644866
0.805182
0.777894
0.813913
0.790721
0.859272
0.839658
0.807857
0.804801
0.662642
0.5087
0.815288
0.656977
0.519461
0.868977
0.669119
0.800156
0.811316
0.724633
0.584244
0.726722
0.724948
0.810105
0.81056
0.705109
0.80362
0.78
0.567645
0.789306
0.782697
0.82834
0.817268
0.702071
0.803477
0.744494
0.703611
0.803384
0.810737
0.830954
0.798129
0.655895
0.80278
0.699009
0.801666
0.830295
0.821123
0.802491
0.814015
0.785407
0.806455
0.801248
0.820391
0.805104
0.791954
0.799754
0.800351
0.741666
0.804274
0.759902
0.597285
0.699982
0.800277
0.79337
0.879991
0.832325
0.66088
0.823558
0.799263
0.82795
0.800452
0.814303
0.813609
0.803302
0.807124
0.702992
0.815816
0.819916
0.770622
0.797784
0.862184
0.807959
0.812256
0.812127
0.614692
0.839716
0.575289
0.535987
0.597441
0.605731
0.828675
0.879532
0.807675
0.798811
0.841722
0.813946
0.817412
0.821427
0.815998
0.639433
0.563153
0.814605
0.549077
0.595662
0.701573
0.812464
0.814898
0.814002
0.833638
0.813919
0.865386
0.707619
0.835717
0.71527
0.805355
0.804035
0.80218
0.715091
0.722456
0.620957
0.702584
0.863926
0.876808
0.807028
0.807853
0.799538
0.811993
0.718296
0.822258
0.800831
0.826275
0.794883
0.810786
0.7209
0.813813
0.824356
0.741408
0.531507
0.800361
0.736374
0.843833
0.815162
0.725936
0.816354
0.815655
0.850257
0.810381
0.80457
0.803346
0.826249
0.861085
0.806063
0.620673
0.849265
0.812715
0.805748
0.828106
0.837724
0.813907
0.822049
0.793787
0.815877
0.867838
0.850255
0.827863
0.837225
0.802919
0.817897
0.803251
0.759889
0.703422
0.583095
0.697852
0.803015
0.813858
0.816757
0.855726
0.78007
0.647132
0.82766
0.525327
0.774915
0.801538
0.647802
0.506036
0.640506
0.815997
0.814163
0.813945
0.813591
0.827299
0.774803
0.811644
0.802791
0.813916
0.841163
0.868411
0.834053
0.803051
0.700565
0.796484
0.834671
0.692836
0.799361
0.80223
0.86506
0.817839
0.594913
0.814291
0.742113
0.853292
0.733246
0.810999
0.907752
0.800504
0.796143
0.660421
0.637027
0.709624
0.781451
0.827116
0.815742
0.814574
0.883957
0.859085
0.800169
0.799683
0.826272
0.740447
0.802763
0.879611
0.801477
0.805384
0.801296
0.802671
0.813881
0.8165
0.817127
0.63846
0.830519
0.649476
0.808858
0.641556
0.803276
0.802388
0.840767
0.730546
0.816555
0.809309
0.817718
0.800042
0.802596
0.811526
0.700147
0.824708
0.814011
0.813844
0.800794
0.7371
0.562124
0.806565
0.811968
0.803276
0.813896
0.795239
0.514096
0.846623
0.81422
0.803959
0.786318
0.814187
0.80514
0.803522
0.817001
0.807661
0.82314
0.769275
0.813141
0.807955
0.564903
0.803743
0.641516
0.839109
0.637696
0.81549
0.878133
0.597887
0.818492
0.749827
0.804554
0.873561
0.537904
0.823737
0.822899
0.803603
0.826332
0.811492
0.82408
0.831177
0.825425
0.741272
0.828093
0.761648
0.810701
0.794497
0.79422
0.759386
0.805781
0.802163
0.81517
0.753558
0.805115
0.606355
0.616077
0.691724
0.813735
0.844607
0.86514
0.830379
0.79922
0.813644
0.805329
0.819117
0.681796
0.801506
0.743873
0.82447
0.815563
0.8061
0.70955
0.728317
0.536901
0.607256
0.801837
0.612967
0.793288
0.765656
0.770691
0.726271
0.763245
0.768368
0.81033
0.815743
0.820235
0.812425
0.712532
0.607633
0.839479
0.807662
0.783537
0.810524
0.802906
0.837045
0.720678
0.85564
0.763966
0.730504
0.765435
0.812294
0.548169
0.799444
0.842063
0.813788
0.814661
0.810587
0.79982
0.781173
0.836096
0.803197
0.843411
0.721951
0.705577
0.80075
0.795749
0.822657
0.71021
0.848363
0.801087
0.816808
0.799327
0.779597
0.808929
0.596504
0.678728
0.633839
0.813792
0.804314
0.826926
0.750007
0.810758
0.815617
0.821059
0.799608
0.73121
0.797634
0.814984
0.803282
0.706306
0.814482
0.819568
0.840554
0.811732
0.825937
0.862555
0.857571
0.745147
0.605241
0.838392
0.806275
0.843721
0.815073
0.823381
0.814421
0.814678
0.647336
0.8059
0.809961
0.813832
0.792466
0.811081
0.805363
0.861656
0.799295
0.813747
0.815534
0.872184
0.599485
0.814357
0.843255
0.883502
0.533582
0.817161
0.830486
0.796373
0.814955
0.795544
0.867879
0.812739
0.831885
0.813417
0.621024
0.802579
0.804284
0.693575
0.853441
0.759703
0.802047
0.814829
0.813658
0.860808
0.795583
0.834042
0.835225
0.785127
0.825639
0.843122
0.800365
0.811127
0.807588
0.805462
0.815537
0.802729
0.845623
0.769583
0.809956
0.803355
0.815728
0.724419
0.813892
0.819066
0.75335
0.814477
0.816931
0.828223
0.825712
0.801297
0.801107
0.850811
0.767928
0.825863
0.844618
0.804694
0.510258
0.813864
0.828848
0.852689
0.813422
0.803208
0.808845
0.855353
0.780197
0.802709
0.80176
0.813931
0.729351
0.803192
0.83048
0.808744
0.795228
0.794293
0.843636
0.806756
0.845649
0.8021
0.824866
0.813648
0.804343
0.8422
0.813833
0.681637
0.819484
0.807255
0.81372
0.906246
0.801221
0.816521
0.800868
0.800864
0.816972
0.800965
0.803519
0.783767
0.747435
0.807301
0.813899
0.75881
0.792171
0.823644
0.813187
0.822902
0.806726
0.826371
0.875523
0.831193
0.579971
0.709775
0.84121
0.818028
0.844561
0.815561
0.850455
0.807977
0.812902
0.799939
0.838863
0.861256
0.853164
0.732792
0.814949
0.822793
0.743623
0.817779
0.776314
0.800643
0.734226
0.816837
0.831409
0.823716
0.86305
0.81505
0.814226
0.811019
0.815452
0.836225
0.812384
0.799269
0.810399
0.738802
0.812321
0.774218
0.833311
0.813416
0.640234
0.77805
0.811737
0.799769
0.820514
0.803095
0.815485
0.818039
0.804932
0.820078
0.80429
0.806526
0.60083
0.847456
0.82573
0.827293
0.815561
0.80333
0.702907
0.807215
0.907935
0.814428
0.801704
0.813777
0.782689
0.807947
0.814132
0.821949
0.814838
0.814163
0.81701
0.695354
0.778619
0.765524
0.813611
0.805753
0.801692
0.623022
0.806374
0.803221
0.709629
0.837785
0.81794
0.802666
0.808038
0.799915
0.817973
0.814471
0.814219
0.81389
0.710646
0.832169
0.800499
0.808102
0.843434
0.818235
0.817052
0.800734
0.753854
0.824413
0.788172
0.822087
0.789744
0.806358
0.821622
0.737869
0.818039
0.655515
0.872294
0.705502
0.845432
0.801568
0.875376
0.794156
0.802015
0.821345
0.836835
0.838885
0.826023
0.820517
0.815479
0.801821
0.804384
0.8086
0.728042
0.827675
0.800227
0.719102
0.831013
0.699523
0.800668
0.861508
0.805754
0.704672
0.79811
0.814951
0.702814
0.785735
0.82007
0.832298
0.807783
0.591639
0.730792
0.812598
0.802008
0.813929
0.801233
0.738081
0.814859
0.816507
0.813491
0.775999
0.803356
0.804658
0.804291
0.56264
0.813726
0.834546
0.583267
0.815976
0.816881
0.815526
0.819079
0.815257
0.825149
0.799749
0.795334
0.771004
0.823306
0.830085
0.825512
0.83576
0.766157
0.809886
0.726646
0.77276
0.809427
0.821741
0.814206
0.801096
0.859333
0.81393
0.801091
0.8105
0.816854
0.815996
0.837122
0.815335
0.813786
0.812143
0.814699
0.800835
0.821654
0.803928
0.82347
0.81438
0.578903
0.814422
0.834975
0.859098
0.838693
0.496351
0.817561
0.805087
0.501242
0.671885
0.648244
0.834754
0.808513
0.811816
0.813744
0.803254
0.817505
0.811388
0.537772
0.689128
0.81861
0.806773
0.816399
0.803617
0.810479
0.811865
0.820883
0.800024
0.695299
0.857036
0.803203
0.814921
0.814498
0.758493
0.491393
0.833419
0.813994
0.741573
0.802758
0.806958
0.59537
0.828014
0.815577
0.8283
0.819491
0.826698
0.804868
0.721934
0.644949
0.564277
0.825924
0.809229
0.783105
0.813946
0.780582
0.818619
0.873539
0.763059
0.822268
0.814366
0.826427
0.883775
0.815275
0.81275
0.803442
0.814032
0.693616
0.828782
0.800386
0.810896
0.802419
0.784587
0.85453
0.822682
0.840838
0.822183
0.757465
0.756526
0.80398
0.818791
0.80313
0.805384
0.80278
0.776483
0.8155
0.762484
0.82182
0.663387
0.814826
0.803136
0.735105
0.823676
0.818584
0.740803
0.801347
0.758011
0.882163
0.800839
0.813859
0.76348
0.800764
0.815123
0.80407
0.591933
0.821415
0.799222
0.802111
0.815363
0.826178
0.758125
0.806163
0.842471
0.827626
0.814492
0.836337
0.69403
0.701215
0.813929
0.744956
0.822867
0.772022
0.813849
0.802678
0.810939
0.752723
0.794424
0.765181
0.810729
0.803197
0.632599
0.779405
0.799382
0.849966
0.815214
0.829219
0.530315
0.825579
0.78558
0.859076
0.801069
0.818418
0.800942
0.786439
0.799358
0.826264
0.836137
0.822231
0.817843
0.705393
0.774614
0.81604
0.805518
0.810953
0.804029
0.703848
0.793425
0.803901
0.8113
0.827762
0.851518
0.832387
0.814377
0.800058
0.804762
0.802495
0.780107
0.613419
0.801067
0.732747
0.663379
0.823406
0.799423
0.777288
0.800561
0.754903
0.785621
0.812475
0.822748
0.803962
0.816766
0.81793
0.821097
0.814309
0.809024
0.713093
0.700505
0.642269
0.829839
0.869839
0.815821
0.841905
0.848224
0.864
0.737521
0.817212
0.8633
0.810842
0.813897
0.816753
0.733952
0.813208
0.807349
0.806847
0.521131
0.813949
0.761908
0.814088
0.813993
0.803645
0.703676
0.814123
0.612386
0.82549
0.802799
0.822665
0.855524
0.803544
0.795604
0.8216
0.812444
0.806081
0.762953
0.514658
0.821553
0.803241
0.82969
0.826355
0.802868
0.807177
0.834901
0.722088
0.505573
0.886448
0.801244
0.816479
0.804453
0.708948
0.799249
0.800603
0.815877
0.737802
0.647886
0.883434
0.715283
0.837039
0.812886
0.833412
0.843099
0.792951
0.804872
0.814468
0.853085
0.739133
0.870934
0.814882
0.565011
0.803113
0.748614
0.853285
0.761236
0.804344
0.804069
0.800186
0.801869
0.809757
0.81392
0.856455
0.80661
0.802925
0.801406
0.800562
0.813259
0.817625
0.802691
0.813505
0.849605
0.803146
0.784105
0.802355
0.840342
0.727225
0.814522
0.814683
0.654496
0.714237
0.805748
0.823624
0.80428
0.516068
0.857352
0.814058
0.833727
0.805444
0.803399
0.801588
0.786949
0.588898
0.804482
0.816875
0.836449
0.821239
0.813942
0.798925
0.748308
0.801763
0.766833
0.787875
0.799931
0.791236
0.75114
0.801364
0.812085
0.811254
0.832621
0.849968
0.556315
0.842353
0.813868
0.82104
0.802506
0.82289
0.812098
0.894769
0.800758
0.868333
0.805866
0.760708
0.862388
0.802418
0.800372
0.824742
0.661792
0.646702
0.803496
0.803994
0.697921
0.655671
0.800027
0.824465
0.814
0.823228
0.734388
0.817707
0.813791
0.826726
0.817582
0.812114
0.813889
0.755339
0.804505
0.816447
0.812352
0.677418
0.56873
0.813926
0.651331
0.722819
0.557566
0.84184
0.800687
0.531749
0.602611
0.827934
0.908168
0.81886
0.653726
0.815001
0.787082
0.802234
0.786834
0.821362
0.810778
0.788618
0.821686
0.80174
0.589999
0.818546
0.767453
0.816677
0.698882
0.822861
0.790312
0.814806
0.800672
0.664223
0.843855
0.807075
0.807257
0.498815
0.817581
0.800909
0.85315
0.710217
0.81783
0.590091
0.721325
0.801906
0.79727
0.734596
0.717003
0.714364
0.511994
0.599972
0.800636
0.522479
0.823239
0.527961
0.757921
0.673783
0.607571
0.545094
0.746229
0.803144
0.713424
0.821956
0.801327
0.80338
0.761909
0.889856
0.799669
0.825088
0.803577
0.813799
0.707
0.808149
0.737551
0.82256
0.886234
0.834027
0.748614
0.823417
0.77122
0.880096
0.804319
0.759377
0.851072
0.777559
0.800054
0.805974
0.758955
0.746126
0.671654
0.805117
0.803093
0.818593
0.833996
0.613003
0.808589
0.541731
0.669847
0.620896
0.819192
0.8217
0.809855
0.804098
0.617239
0.872682
0.802745
0.802999
0.863828
0.813447
0.772653
0.813183
0.802465
0.818626
0.80319
0.718011
0.803841
0.65914
0.799581
0.804748
0.801761
0.64051
0.812086
0.810813
0.725998
0.818424
0.552159
0.578928
0.804287
0.697587
0.726823
0.57423
0.72505
0.814513
0.704507
0.7735
0.715451
0.813268
0.671515
0.762816
0.806837
0.811418
0.656618
0.802116
0.89531
0.796966
0.817548
0.589099
0.695036
0.801681
0.813938
0.814858
0.851985
0.813583
0.804432
0.803875
0.803439
0.714995
0.716637
0.617462
0.772309
0.538193
0.722875
0.810774
0.815223
0.806746
0.799894
0.554911
0.809901
0.803876
0.557071
0.547255
0.747376
0.803689
0.806839
0.551959
0.798565
0.57198
0.722866
0.609705
0.81395
0.802744
0.599101
0.610071
0.86817
0.810473
0.76611
0.719306
0.625334
0.656665
0.707326
0.816752
0.760478
0.765446
0.625721
0.754739
0.810126
0.816155
0.813458
0.816266
0.866741
0.755647
0.81962
0.803523
0.851628
0.813879
0.802866
0.814016
0.721355
0.813676
0.812736
0.815928
0.811916
0.816624
0.803358
0.818628
0.811167
0.810537
0.817978
0.800253
0.817315
0.819649
0.668786
0.819311
0.868694
0.818877
0.79319
0.647303
0.858915
0.819492
0.825494
0.800143
0.812224
0.75745
0.852919
0.568192
0.728702
0.810031
0.816451
0.803999
0.80346
0.832576
0.805603
0.805648
0.816064
0.781315
0.839024
0.842371
0.815802
0.66564
0.619073
0.816545
0.817349
0.78911
0.85002
0.847626
0.811526
0.814365
0.778466
0.814909
0.818541
0.814941
0.819477
0.813733
0.816603
0.851423
0.816744
0.815256
0.818284
0.818482
0.785271
0.814864
0.804653
0.804822
0.805166
0.819275
0.812477
0.788993
0.753785
0.813575
0.806423
0.809633
0.806527
0.858057
0.803851
0.814808
0.813663
0.805679
0.670122
0.804022
0.813715
0.815666
0.8105
0.813764
0.814201
0.813974
0.810338
0.86465
0.506417
0.8138
0.842077
0.813609
0.80316
0.808742
0.815809
0.840137
0.801032
0.801887
0.813078
0.698911
0.813823
0.808729
0.807998
0.813476
0.813842
0.81397
0.814272
0.516533
0.812199
0.718312
0.886025
0.821672
0.732768
0.678174
0.816156
0.803987
0.819256
0.647906
0.801988
0.814247
0.649353
0.800451
0.804311
0.816128
0.806766
0.857084
0.810004
0.608699
0.801303
0.775242
0.811409
0.889249
0.803856
0.815702
0.819779
0.832582
0.814305
0.823036
0.836804
0.636466
0.803253
0.657143
0.814618
0.814524
0.710914
0.814416
0.805497
0.711894
0.815558
0.704015
0.861393
0.784475
0.815136
0.813878
0.814318
0.669728
0.814536
0.634632
0.800668
0.792662
0.822917
0.815979
0.717592
0.766711
0.830592
0.813663
0.821727
0.822545
0.814339
0.825927
0.800055
0.554452
0.754744
0.760152
0.730656
0.838082
0.823069
0.834826
0.776953
0.802863
0.813988
0.813931
0.813931
0.775195
0.566032
0.803292
0.533216
0.808755
0.824979
0.800286
0.803871
0.813661
0.806201
0.783331
0.732871
0.814292
0.859432
0.814254
0.799842
0.736476
0.810191
0.789044
0.834091
0.509726
0.796192
0.806659
0.799468
0.693435
0.813778
0.811407
0.858071
0.571182
0.807522
0.803352
0.813711
0.616272
0.814025
0.803414
0.803497
0.803124
0.814125
0.814212
0.816842
0.813994
0.716301
0.804655
0.80328
0.813956
0.896304
0.814076
0.7747
0.841762
0.799322
0.8032
0.603173
0.81386
0.803442
0.826344
0.802242
0.866512
0.815392
0.854261
0.800933
0.821283
0.77835
0.560801
0.753753
0.79493
0.804682
0.814097
0.814651
0.557978
0.862044
0.858893
0.769376
0.757947
0.738497
0.812759
0.84914
0.813892
0.814149
0.813926
0.804396
0.726417
0.803613
0.799677
0.764169
0.824851
0.823615
0.862098
0.816398
0.813942
0.538579
0.809039
0.813903
0.801196
0.774616
0.818259
0.803172
0.813775
0.827454
0.798677
0.804033
0.80161
0.815778
0.839556
0.802951
0.7997
0.802132
0.766026
0.82053
0.569394
0.86861
0.803821
0.548334
0.803681
0.803682
0.820154
0.602613
0.608058
0.802053
0.804242
0.801393
0.860993
0.780273
0.815277
0.803046
0.866934
0.804842
0.804572
0.826734
0.816597
0.820755
0.8219
0.820965
0.867713
0.730159
0.852452
0.817902
0.655078
0.803002
0.803301
0.803759
0.821759
0.824095
0.804396
0.801607
0.800599
0.82329
0.803624
0.803749
0.800239
0.824974
0.804089
0.802272
0.806219
0.828397
0.801181
0.802023
0.824991
0.800105
0.816155
0.652701
0.826953
0.850174
0.805256
0.820237
0.803379
0.829286
0.837952
0.803489
0.8221
0.800962
0.807555
0.789783
0.802412
0.803593
0.806494
0.8063
0.805066
0.819213
0.815545
0.81145
0.831919
0.802773
0.802389
0.800456
0.789195
0.834254
0.803306
0.819968
0.815984
0.807463
0.805536
0.803008
0.839327
0.865867
0.800151
0.680123
0.801548
0.84257
0.817317
0.805748
0.804583
0.820091
0.844966
0.610118
0.829473
0.795159
0.851357
0.819399
0.812263
0.813652
0.8088
0.804074
0.81309
0.809003
0.593532
0.848363
0.794915
0.815005
0.854927
0.819944
0.763869
0.809016
0.815261
0.816154
0.803126
0.663078
0.809837
0.863444
0.803116
0.801112
0.776236
0.87144
0.800804
0.877275
0.807185
0.817869
0.821253
0.802876
0.804266
0.813527
0.816626
0.804083
0.81419
0.817309
0.881546
0.821069
0.809452
0.800757
0.828878
0.810649
0.839605
0.809246
0.807085
0.812757
0.817275
0.83034
0.814487
0.823093
0.832979
0.814791
0.702164
0.694665
0.813954
0.818439
0.804452
0.813991
0.51961
0.855153
0.800261
0.806363
0.814705
0.814325
0.804114
0.813362
0.800998
0.801631
0.808543
0.815252
0.757918
0.78522
0.823538
0.84352
0.835278
0.800814
0.805724
0.803447
0.813103
0.806123
0.80009
0.800314
0.801397
0.811367
0.798043
0.803352
0.835962
0.832021
0.731638
0.70072
0.807796
0.701661
0.800114
0.579903
0.804581
0.807308
0.803657
0.818848
0.834481
0.814759
0.813799
0.810451
0.804017
0.881721
0.817
0.805436
0.772785
0.592338
0.810392
0.80722
0.769958
0.815217
0.814713
0.791747
0.800912
0.80418
0.635114
0.830835
0.803601
0.782322
0.779768
0.853019
0.810134
0.803479
0.803245
0.810814
0.811287
0.523524
0.802158
0.839931
0.81476
0.79882
0.591577
0.814998
0.814891
0.813917
0.834214
0.814748
0.80417
0.822509
0.806133
0.577866
0.808896
0.737922
0.798749
0.81449
0.723145
0.815706
0.846836
0.832033
0.665835
0.891052
0.78595
0.778234
0.797097
0.779751
0.809063
0.850841
0.808554
0.803101
0.814411
0.809661
0.783021
0.786283
0.814688
0.808928
0.835283
0.821848
0.836116
0.801964
0.800201
0.813979
0.85694
0.817026
0.818878
0.814228
0.609013
0.795777
0.824422
0.829719
0.866175
0.813566
0.819384
0.513611
0.81056
0.801102
0.813464
0.815395
0.847935
0.813964
0.811246
0.881682
0.765332
0.81288
0.814112
0.809803
0.805379
0.815036
0.657241
0.800698
0.849898
0.833927
0.811164
0.814236
0.814244
0.809713
0.701844
0.813187
0.800787
0.839012
0.819131
0.812248
0.831748
0.79342
0.812258
0.818479
0.809441
0.819944
0.745607
0.855586
0.819624
0.814404
0.813972
0.813631
0.816409
0.817829
0.813685
0.811513
0.841476
0.819259
0.800733
0.825664
0.827432
0.816651
0.814817
0.800911
0.801877
0.813973
0.819687
0.829806
0.813739
0.817138
0.800448
0.810703
0.813781
0.813711
0.802607
0.815452
0.814195
0.803461
0.81381
0.836103
0.800203
0.810192
0.822186
0.562871
0.81501
0.818835
0.816127
0.81571
0.822565
0.82929
0.816348
0.819501
0.702518
0.813986
0.801742
0.816364
0.819582
0.835496
0.822181
0.815967
0.829893
0.825511
0.811582
0.819357
0.820183
0.80492
0.814063
0.816351
0.819836
0.832609
0.813521
0.816441
0.802811
0.813886
0.813955
0.52824
0.630564
0.814526
0.822059
0.802225
0.823028
0.816644
0.842359
0.709136
0.814584
0.731916
0.817913
0.811086
0.814063
0.829788
0.8145
0.805538
0.813867
0.830487
0.840149
0.813679
0.720144
0.81959
0.816748
0.800431
0.803089
0.816069
0.856228
0.813565
0.814249
0.850039
0.829398
0.84358
0.578321
0.829618
0.814763
0.81165
0.818095
0.851439
0.81845
0.719304
0.800111
0.832148
0.800409
0.80027
0.805757
0.748596
0.814269
0.815124
0.726858
0.815126
0.827719
0.814176
0.81481
0.799815
0.819038
0.813929
0.824178
0.808847
0.808825
0.815662
0.702179
0.819732
0.814865
0.813922
0.642165
0.717363
0.601123
0.823642
0.537168
0.854765
0.728187
0.843291
0.813408
0.725097
0.821812
0.816579
0.743342
0.808002
0.819026
0.794532
0.817209
0.8166
0.816529
0.813926
0.808679
0.803765
0.738107
0.836876
0.820773
0.817301
0.799757
0.815763
0.802672
0.816739
0.814298
0.855473
0.81844
0.503094
0.813997
0.819449
0.819327
0.778439
0.816071
0.806861
0.818894
0.846195
0.598468
0.809705
0.799918
0.816072
0.8183
0.818364
0.813352
0.819265
0.81456
0.815301
0.803169
0.814989
0.846499
0.814703
0.792212
0.812307
0.624198
0.718089
0.813986
0.817692
0.803209
0.822904
0.7354
0.803199
0.803222
0.820842
0.702514
0.818282
0.799972
0.816168
0.865812
0.785829
0.822555
0.818655
0.823422
0.814836
0.770134
0.802578
0.814404
0.902406
0.827551
0.817146
0.832619
0.810486
0.869436
0.718287
0.701078
0.853092
0.802782
0.700445
0.851027