# vtk DataFile Version 1.0
unstructured grid
ascii
DATASET UNSTRUCTURED_GRID
points 7812 float
-1 0 0
-1 1 0
2 0 0
2 1 0
0 0 0
1 0 0
-1 1 0.1
-1 0 0.1
0 0 0.1
1 0 0.1
2 0 0.1
2 1 0.1
-0.99 0 0
-0.98 0 0
-0.97 0 0
-0.96 0 0
-0.95 0 0
-0.94 0 0
-0.93 0 0
-0.92 0 0
-0.91 0 0
-0.9 0 0
-0.89 0 0
-0.88 0 0
-0.87 0 0
-0.86 0 0
-0.85 0 0
-0.84 0 0
-0.83 0 0
-0.82 0 0
-0.81 0 0
-0.8 0 0
-0.79 0 0
-0.78 0 0
-0.77 0 0
-0.76 0 0
-0.75 0 0
-0.74 0 0
-0.73 0 0
-0.72 0 0
-0.71 0 0
-0.7 0 0
-0.69 0 0
-0.68 0 0
-0.67 0 0
-0.66 0 0
-0.65 0 0
-0.64 0 0
-0.63 0 0
-0.62 0 0
-0.61 0 0
-0.6 0 0
-0.59 0 0
-0.58 0 0
-0.57 0 0
-0.56 0 0
-0.55 0 0
-0.54 0 0
-0.53 0 0
-0.52 0 0
-0.51 0 0
-0.5 0 0
-0.49 0 0
-0.48 0 0
-0.47 0 0
-0.46 0 0
-0.45 0 0
-0.44 0 0
-0.43 0 0
-0.42 0 0
-0.41 0 0
-0.4 0 0
-0.39 0 0
-0.38 0 0
-0.37 0 0
-0.36 0 0
-0.35 0 0
-0.34 0 0
-0.33 0 0
-0.32 0 0
-0.31 0 0
-0.3 0 0
-0.29 0 0
-0.28 0 0
-0.27 0 0
-0.26 0 0
-0.25 0 0
-0.24 0 0
-0.23 0 0
-0.22 0 0
-0.21 0 0
-0.2 0 0
-0.19 0 0
-0.18 0 0
-0.17 0 0
-0.16 0 0
-0.15 0 0
-0.14 0 0
-0.13 0 0
-0.12 0 0
-0.11 0 0
-0.1 0 0
-0.09 0 0
-0.08 0 0
-0.07 0 0
-0.06 0 0
-0.05 0 0
-0.04 0 0
-0.03 0 0
-0.02 0 0
-0.01 0 0
1.01 0 0
1.02 0 0
1.03 0 0
1.04 0 0
1.05 0 0
1.06 0 0
1.07 0 0
1.08 0 0
1.09 0 0
1.1 0 0
1.11 0 0
1.12 0 0
1.13 0 0
1.14 0 0
1.15 0 0
1.16 0 0
1.17 0 0
1.18 0 0
1.19 0 0
1.2 0 0
1.21 0 0
1.22 0 0
1.23 0 0
1.24 0 0
1.25 0 0
1.26 0 0
1.27 0 0
1.28 0 0
1.29 0 0
1.3 0 0
1.31 0 0
1.32 0 0
1.33 0 0
1.34 0 0
1.35 0 0
1.36 0 0
1.37 0 0
1.38 0 0
1.39 0 0
1.4 0 0
1.41 0 0
1.42 0 0
1.43 0 0
1.44 0 0
1.45 0 0
1.46 0 0
1.47 0 0
1.48 0 0
1.49 0 0
1.5 0 0
1.51 0 0
1.52 0 0
1.53 0 0
1.54 0 0
1.55 0 0
1.56 0 0
1.57 0 0
1.58 0 0
1.59 0 0
1.6 0 0
1.61 0 0
1.62 0 0
1.63 0 0
1.64 0 0
1.65 0 0
1.66 0 0
1.67 0 0
1.68 0 0
1.69 0 0
1.7 0 0
1.71 0 0
1.72 0 0
1.73 0 0
1.74 0 0
1.75 0 0
1.76 0 0
1.77 0 0
1.78 0 0
1.79 0 0
1.8 0 0
1.81 0 0
1.82 0 0
1.83 0 0
1.84 0 0
1.85 0 0
1.86 0 0
1.87 0 0
1.88 0 0
1.89 0 0
1.9 0 0
1.91 0 0
1.92 0 0
1.93 0 0
1.94 0 0
1.95 0 0
1.96 0 0
1.97 0 0
1.98 0 0
1.99 0 0
2 0.010289 0
2 0.0215307 0
2 0.0338135 0
2 0.0472336 0
2 0.0618965 0
2 0.0779171 0
2 0.0954213 0
2 0.114546 0
2 0.135442 0
2 0.158274 0
2 0.183219 0
2 0.210474 0
2 0.240253 0
2 0.27279 0
2 0.308339 0
2 0.347181 0
2 0.389619 0
2 0.435987 0
2 0.486649 0
2 0.542002 0
2 0.602481 0
2 0.66856 0
2 0.740758 0
2 0.819642 0
2 0.90583 0
1.9 1 0
1.8 1 0
1.7 1 0
1.6 1 0
1.5 1 0
1.4 1 0
1.3 1 0
1.2 1 0
1.1 1 0
1 1 0
0.9 1 0
0.8 1 0
0.7 1 0
0.6 1 0
0.5 1 0
0.4 1 0
0.3 1 0
0.2 1 0
0.1 1 0
3.69793e-12 1 0
-0.1 1 0
-0.2 1 0
-0.3 1 0
-0.4 1 0
-0.5 1 0
-0.6 1 0
-0.7 1 0
-0.8 1 0
-0.9 1 0
-1 0.90583 0
-1 0.819642 0
-1 0.740758 0
-1 0.66856 0
-1 0.602481 0
-1 0.542002 0
-1 0.486649 0
-1 0.435987 0
-1 0.389619 0
-1 0.347181 0
-1 0.308339 0
-1 0.27279 0
-1 0.240253 0
-1 0.210474 0
-1 0.183219 0
-1 0.158274 0
-1 0.135442 0
-1 0.114546 0
-1 0.0954213 0
-1 0.0779171 0
-1 0.0618965 0
-1 0.0472336 0
-1 0.0338135 0
-1 0.0215307 0
-1 0.010289 0
0.00921362 0.00379763 0
0.0184561 0.00752451 0
0.0277268 0.0111804 0
0.0370253 0.0147652 0
0.0463511 0.0182786 0
0.0557034 0.0217203 0
0.0650819 0.0250903 0
0.074486 0.0283883 0
0.083915 0.0316141 0
0.0933685 0.0347675 0
0.102846 0.0378484 0
0.112347 0.0408565 0
0.12187 0.0437917 0
0.131416 0.0466538 0
0.140983 0.0494427 0
0.150572 0.0521581 0
0.160181 0.0547999 0
0.16981 0.0573681 0
0.179458 0.0598623 0
0.189125 0.0622825 0
0.198811 0.0646285 0
0.208514 0.0669001 0
0.218234 0.0690974 0
0.227971 0.07122 0
0.237724 0.073268 0
0.247493 0.0752411 0
0.257276 0.0771393 0
0.267073 0.0789625 0
0.276884 0.0807105 0
0.286708 0.0823832 0
0.296545 0.0839806 0
0.306394 0.0855025 0
0.316254 0.0869488 0
0.326125 0.0883196 0
0.336006 0.0896146 0
0.345896 0.0908339 0
0.355796 0.0919773 0
0.365704 0.0930447 0
0.375621 0.0940362 0
0.385544 0.0949517 0
0.395474 0.095791 0
0.40541 0.0965542 0
0.415352 0.0972412 0
0.425299 0.097852 0
0.43525 0.0983865 0
0.445205 0.0988447 0
0.455164 0.0992266 0
0.465125 0.0995321 0
0.475088 0.0997613 0
0.485052 0.0999141 0
0.495017 0.0999904 0
0.504983 0.0999904 0
0.514948 0.0999141 0
0.524912 0.0997613 0
0.534875 0.0995321 0
0.544836 0.0992266 0
0.554795 0.0988447 0
0.56475 0.0983865 0
0.574701 0.097852 0
0.584648 0.0972412 0
0.59459 0.0965542 0
0.604526 0.095791 0
0.614456 0.0949517 0
0.624379 0.0940362 0
0.634296 0.0930447 0
0.644204 0.0919773 0
0.654104 0.0908339 0
0.663994 0.0896146 0
0.673875 0.0883196 0
0.683746 0.0869488 0
0.693606 0.0855025 0
0.703455 0.0839806 0
0.713292 0.0823832 0
0.723116 0.0807105 0
0.732927 0.0789625 0
0.742724 0.0771393 0
0.752508 0.0752411 0
0.762276 0.073268 0
0.772029 0.07122 0
0.781766 0.0690974 0
0.791486 0.0669001 0
0.801189 0.0646285 0
0.810875 0.0622825 0
0.820542 0.0598623 0
0.83019 0.0573681 0
0.839819 0.0547999 0
0.849428 0.0521581 0
0.859017 0.0494427 0
0.868584 0.0466538 0
0.87813 0.0437917 0
0.887653 0.0408565 0
0.897154 0.0378484 0
0.906631 0.0347675 0
0.916085 0.0316141 0
0.925514 0.0283883 0
0.934918 0.0250903 0
0.944297 0.0217203 0
0.953649 0.0182786 0
0.962975 0.0147652 0
0.972273 0.0111804 0
0.981544 0.00752451 0
0.990786 0.00379763 0
-1 0.90583 0.1
-1 0.819642 0.1
-1 0.740758 0.1
-1 0.66856 0.1
-1 0.602481 0.1
-1 0.542002 0.1
-1 0.486649 0.1
-1 0.435987 0.1
-1 0.389619 0.1
-1 0.347181 0.1
-1 0.308339 0.1
-1 0.27279 0.1
-1 0.240253 0.1
-1 0.210474 0.1
-1 0.183219 0.1
-1 0.158274 0.1
-1 0.135442 0.1
-1 0.114546 0.1
-1 0.0954213 0.1
-1 0.0779171 0.1
-1 0.0618965 0.1
-1 0.0472336 0.1
-1 0.0338135 0.1
-1 0.0215307 0.1
-1 0.010289 0.1
-0.99 0 0.1
-0.98 0 0.1
-0.97 0 0.1
-0.96 0 0.1
-0.95 0 0.1
-0.94 0 0.1
-0.93 0 0.1
-0.92 0 0.1
-0.91 0 0.1
-0.9 0 0.1
-0.89 0 0.1
-0.88 0 0.1
-0.87 0 0.1
-0.86 0 0.1
-0.85 0 0.1
-0.84 0 0.1
-0.83 0 0.1
-0.82 0 0.1
-0.81 0 0.1
-0.8 0 0.1
-0.79 0 0.1
-0.78 0 0.1
-0.77 0 0.1
-0.76 0 0.1
-0.75 0 0.1
-0.74 0 0.1
-0.73 0 0.1
-0.72 0 0.1
-0.71 0 0.1
-0.7 0 0.1
-0.69 0 0.1
-0.68 0 0.1
-0.67 0 0.1
-0.66 0 0.1
-0.65 0 0.1
-0.64 0 0.1
-0.63 0 0.1
-0.62 0 0.1
-0.61 0 0.1
-0.6 0 0.1
-0.59 0 0.1
-0.58 0 0.1
-0.57 0 0.1
-0.56 0 0.1
-0.55 0 0.1
-0.54 0 0.1
-0.53 0 0.1
-0.52 0 0.1
-0.51 0 0.1
-0.5 0 0.1
-0.49 0 0.1
-0.48 0 0.1
-0.47 0 0.1
-0.46 0 0.1
-0.45 0 0.1
-0.44 0 0.1
-0.43 0 0.1
-0.42 0 0.1
-0.41 0 0.1
-0.4 0 0.1
-0.39 0 0.1
-0.38 0 0.1
-0.37 0 0.1
-0.36 0 0.1
-0.35 0 0.1
-0.34 0 0.1
-0.33 0 0.1
-0.32 0 0.1
-0.31 0 0.1
-0.3 0 0.1
-0.29 0 0.1
-0.28 0 0.1
-0.27 0 0.1
-0.26 0 0.1
-0.25 0 0.1
-0.24 0 0.1
-0.23 0 0.1
-0.22 0 0.1
-0.21 0 0.1
-0.2 0 0.1
-0.19 0 0.1
-0.18 0 0.1
-0.17 0 0.1
-0.16 0 0.1
-0.15 0 0.1
-0.14 0 0.1
-0.13 0 0.1
-0.12 0 0.1
-0.11 0 0.1
-0.1 0 0.1
-0.09 0 0.1
-0.08 0 0.1
-0.07 0 0.1
-0.06 0 0.1
-0.05 0 0.1
-0.04 0 0.1
-0.03 0 0.1
-0.02 0 0.1
-0.01 0 0.1
0.00921362 0.00379763 0.1
0.0184561 0.00752451 0.1
0.0277268 0.0111804 0.1
0.0370253 0.0147652 0.1
0.0463511 0.0182786 0.1
0.0557034 0.0217203 0.1
0.0650819 0.0250903 0.1
0.074486 0.0283883 0.1
0.083915 0.0316141 0.1
0.0933685 0.0347675 0.1
0.102846 0.0378484 0.1
0.112347 0.0408565 0.1
0.12187 0.0437917 0.1
0.131416 0.0466538 0.1
0.140983 0.0494427 0.1
0.150572 0.0521581 0.1
0.160181 0.0547999 0.1
0.16981 0.0573681 0.1
0.179458 0.0598623 0.1
0.189125 0.0622825 0.1
0.198811 0.0646285 0.1
0.208514 0.0669001 0.1
0.218234 0.0690974 0.1
0.227971 0.07122 0.1
0.237724 0.073268 0.1
0.247493 0.0752411 0.1
0.257276 0.0771393 0.1
0.267073 0.0789625 0.1
0.276884 0.0807105 0.1
0.286708 0.0823832 0.1
0.296545 0.0839806 0.1
0.306394 0.0855025 0.1
0.316254 0.0869488 0.1
0.326125 0.0883196 0.1
0.336006 0.0896146 0.1
0.345896 0.0908339 0.1
0.355796 0.0919773 0.1
0.365704 0.0930447 0.1
0.375621 0.0940362 0.1
0.385544 0.0949517 0.1
0.395474 0.095791 0.1
0.40541 0.0965542 0.1
0.415352 0.0972412 0.1
0.425299 0.097852 0.1
0.43525 0.0983865 0.1
0.445205 0.0988447 0.1
0.455164 0.0992266 0.1
0.465125 0.0995321 0.1
0.475088 0.0997613 0.1
0.485052 0.0999141 0.1
0.495017 0.0999904 0.1
0.504983 0.0999904 0.1
0.514948 0.0999141 0.1
0.524912 0.0997613 0.1
0.534875 0.0995321 0.1
0.544836 0.0992266 0.1
0.554795 0.0988447 0.1
0.56475 0.0983865 0.1
0.574701 0.097852 0.1
0.584648 0.0972412 0.1
0.59459 0.0965542 0.1
0.604526 0.095791 0.1
0.614456 0.0949517 0.1
0.624379 0.0940362 0.1
0.634296 0.0930447 0.1
0.644204 0.0919773 0.1
0.654104 0.0908339 0.1
0.663994 0.0896146 0.1
0.673875 0.0883196 0.1
0.683746 0.0869488 0.1
0.693606 0.0855025 0.1
0.703455 0.0839806 0.1
0.713292 0.0823832 0.1
0.723116 0.0807105 0.1
0.732927 0.0789625 0.1
0.742724 0.0771393 0.1
0.752508 0.0752411 0.1
0.762276 0.073268 0.1
0.772029 0.07122 0.1
0.781766 0.0690974 0.1
0.791486 0.0669001 0.1
0.801189 0.0646285 0.1
0.810875 0.0622825 0.1
0.820542 0.0598623 0.1
0.83019 0.0573681 0.1
0.839819 0.0547999 0.1
0.849428 0.0521581 0.1
0.859017 0.0494427 0.1
0.868584 0.0466538 0.1
0.87813 0.0437917 0.1
0.887653 0.0408565 0.1
0.897154 0.0378484 0.1
0.906631 0.0347675 0.1
0.916085 0.0316141 0.1
0.925514 0.0283883 0.1
0.934918 0.0250903 0.1
0.944297 0.0217203 0.1
0.953649 0.0182786 0.1
0.962975 0.0147652 0.1
0.972273 0.0111804 0.1
0.981544 0.00752451 0.1
0.990786 0.00379763 0.1
1.01 0 0.1
1.02 0 0.1
1.03 0 0.1
1.04 0 0.1
1.05 0 0.1
1.06 0 0.1
1.07 0 0.1
1.08 0 0.1
1.09 0 0.1
1.1 0 0.1
1.11 0 0.1
1.12 0 0.1
1.13 0 0.1
1.14 0 0.1
1.15 0 0.1
1.16 0 0.1
1.17 0 0.1
1.18 0 0.1
1.19 0 0.1
1.2 0 0.1
1.21 0 0.1
1.22 0 0.1
1.23 0 0.1
1.24 0 0.1
1.25 0 0.1
1.26 0 0.1
1.27 0 0.1
1.28 0 0.1
1.29 0 0.1
1.3 0 0.1
1.31 0 0.1
1.32 0 0.1
1.33 0 0.1
1.34 0 0.1
1.35 0 0.1
1.36 0 0.1
1.37 0 0.1
1.38 0 0.1
1.39 0 0.1
1.4 0 0.1
1.41 0 0.1
1.42 0 0.1
1.43 0 0.1
1.44 0 0.1
1.45 0 0.1
1.46 0 0.1
1.47 0 0.1
1.48 0 0.1
1.49 0 0.1
1.5 0 0.1
1.51 0 0.1
1.52 0 0.1
1.53 0 0.1
1.54 0 0.1
1.55 0 0.1
1.56 0 0.1
1.57 0 0.1
1.58 0 0.1
1.59 0 0.1
1.6 0 0.1
1.61 0 0.1
1.62 0 0.1
1.63 0 0.1
1.64 0 0.1
1.65 0 0.1
1.66 0 0.1
1.67 0 0.1
1.68 0 0.1
1.69 0 0.1
1.7 0 0.1
1.71 0 0.1
1.72 0 0.1
1.73 0 0.1
1.74 0 0.1
1.75 0 0.1
1.76 0 0.1
1.77 0 0.1
1.78 0 0.1
1.79 0 0.1
1.8 0 0.1
1.81 0 0.1
1.82 0 0.1
1.83 0 0.1
1.84 0 0.1
1.85 0 0.1
1.86 0 0.1
1.87 0 0.1
1.88 0 0.1
[...]
CELL_DATA 7425
SCALARS rho float
LOOKUP_TABLE default
0.587536
0.805052
0.819646
0.827596
0.799527
0.819239
0.820978
0.814243
0.813107
0.738753
0.863525
0.810068
0.814008
0.827452
0.803806
0.817249
0.798854
0.813385
0.803483
0.767322
0.831347
0.822077
0.724915
0.828126
0.803889
0.703354
0.831277
0.848421
0.800183
0.807991
0.819437
0.725366
0.803629
0.652397
0.519967
0.828092
0.803518
0.814221
0.811178
0.828079
0.716252
0.703678
0.790059
0.70151
0.586916
0.748311
0.7994
0.813942
0.662605
0.719158
0.746338
0.805169
0.812381
0.799177
0.709524
0.643594
0.822998
0.800164
0.738624
0.701088
0.709895
0.807676
0.813355
0.799477
0.798793
0.817704
0.584714
0.773376
0.704236
0.807914
0.804247
0.80321
0.883427
0.82115
0.810874
0.813166
0.805066
0.800456
0.813361
0.757816
0.81608
0.807256
0.810404
0.788768
0.835956
0.801183
0.574792
0.830024
0.543029
0.848532
0.705787
0.729867
0.845381
0.803191
0.817494
0.758391
0.836123
0.788061
0.825708
0.802577
0.808193
0.738636
0.803298
0.828311
0.597533
0.811104
0.824449
0.70768
0.815101
0.79927
0.816805
0.784596
0.789887
0.812449
0.789792
0.786361
0.831326
0.803112
0.699654
0.632815
0.805064
0.777356
0.813071
0.790443
0.858982
0.838979
0.807714
0.804345
0.661419
0.504788
0.814581
0.655353
0.515805
0.867875
0.663032
0.799621
0.811127
0.723712
0.582354
0.725091
0.723514
0.809679
0.809762
0.707015
0.803216
0.779657
0.565811
0.788623
0.782548
0.827844
0.816831
0.704477
0.802996
0.74431
0.704919
0.803288
0.810469
0.830483
0.797639
0.652675
0.802547
0.702788
0.80119
0.829817
0.820546
0.802391
0.813188
0.784897
0.806298
0.800747
0.819799
0.80458
0.791286
0.799233
0.799956
0.740338
0.803788
0.758893
0.594568
0.705185
0.799778
0.792799
0.879822
0.831908
0.623935
0.823011
0.798741
0.827439
0.799968
0.813522
0.812739
0.803207
0.806964
0.704281
0.815116
0.819343
0.770163
0.797231
0.861309
0.807788
0.811881
0.811292
0.613159
0.839033
0.573378
0.532434
0.595793
0.601322
0.828227
0.879357
0.807544
0.798671
0.841425
0.813097
0.816778
0.820854
0.815307
0.638241
0.551174
0.81384
0.546094
0.593013
0.703128
0.811798
0.814173
0.813167
0.833202
0.813042
0.864372
0.709581
0.835281
0.713033
0.805191
0.803936
0.801991
0.714089
0.720739
0.619742
0.704979
0.863659
0.875585
0.806344
0.807714
0.798956
0.811591
0.7162
0.821694
0.800294
0.825771
0.794654
0.809973
0.72136
0.812942
0.823819
0.740009
0.528977
0.79994
0.736384
0.843357
0.814451
0.726479
0.815679
0.814947
0.84999
0.809626
0.803979
0.803266
0.825732
0.860803
0.80554
0.619494
0.848937
0.812095
0.80562
0.827616
0.837386
0.81311
0.821513
0.793535
0.815177
0.86678
0.849985
0.827413
0.836803
0.802704
0.817257
0.803199
0.759766
0.701583
0.581241
0.700437
0.802435
0.813018
0.816087
0.854855
0.779706
0.645973
0.827158
0.521526
0.774372
0.801065
0.646635
0.496778
0.639334
0.815302
0.813357
0.813095
0.812837
0.826793
0.774472
0.811496
0.802681
0.813038
0.84077
0.867274
0.833622
0.802779
0.705216
0.795974
0.834335
0.691778
0.798847
0.802073
0.86482
0.817197
0.593349
0.813511
0.740728
0.852441
0.732178
0.810226
0.907668
0.799972
0.795737
0.659194
0.635808
0.711354
0.780709
0.826616
0.81504
0.813808
0.882621
0.858328
0.79964
0.799234
0.826061
0.739396
0.802553
0.879415
0.801392
0.804808
0.800796
0.802582
0.813088
0.815823
0.816471
0.636556
0.830065
0.64617
0.808523
0.639668
0.80271
0.802257
0.84031
0.728969
0.816371
0.808669
0.817077
0.799589
0.802509
0.811283
0.697288
0.824499
0.813184
0.81305
0.800694
0.736847
0.5603
0.806432
0.811147
0.803201
0.813026
0.794812
0.50464
0.846102
0.813434
0.803862
0.785808
0.813383
0.804739
0.803105
0.816338
0.807528
0.822592
0.768693
0.812721
0.807793
0.563034
0.80322
0.640344
0.838804
0.63647
0.814803
0.87793
0.593943
0.818126
0.749081
0.80443
0.873371
0.534379
0.823202
0.822343
0.803509
0.825816
0.811114
0.82354
0.830708
0.824913
0.739928
0.827596
0.761652
0.810282
0.794271
0.79371
0.758706
0.805622
0.802097
0.81456
0.752425
0.804759
0.604746
0.614525
0.689446
0.812934
0.844251
0.864877
0.829944
0.798688
0.812775
0.804948
0.818599
0.680713
0.801068
0.743073
0.824109
0.8149
0.805505
0.711352
0.727395
0.534196
0.605879
0.801378
0.611642
0.792684
0.765426
0.770129
0.726941
0.762573
0.767652
0.809556
0.815038
0.819641
0.811593
0.710803
0.603082
0.83909
0.80703
0.783195
0.809946
0.802612
0.836622
0.718546
0.855332
0.763718
0.728662
0.764649
0.811614
0.545517
0.79893
0.841675
0.813368
0.813901
0.809833
0.799274
0.780425
0.835753
0.80312
0.843031
0.721214
0.707195
0.800403
0.795236
0.822105
0.70895
0.848015
0.800532
0.816153
0.79883
0.779227
0.808374
0.594928
0.677642
0.632649
0.813048
0.803885
0.826431
0.749365
0.810616
0.814907
0.820482
0.799082
0.729621
0.796986
0.81441
0.80321
0.703679
0.81371
0.818997
0.840082
0.810906
0.825417
0.862329
0.857313
0.744116
0.603714
0.83808
0.805871
0.843428
0.81434
0.822975
0.813642
0.813919
0.636239
0.805298
0.809397
0.812958
0.791983
0.810659
0.804863
0.860709
0.798769
0.812872
0.814824
0.871957
0.597939
0.813579
0.842576
0.883344
0.530979
0.816506
0.830033
0.796171
0.814774
0.795038
0.867636
0.812275
0.831422
0.812829
0.619629
0.802422
0.804166
0.691283
0.853182
0.759748
0.801839
0.814091
0.812841
0.859888
0.795381
0.833671
0.83479
0.784417
0.825241
0.842504
0.799847
0.810603
0.807068
0.805335
0.814939
0.802647
0.845278
0.76932
0.809803
0.803189
0.815287
0.723342
0.813029
0.818451
0.752716
0.813705
0.816433
0.827688
0.825198
0.800817
0.800732
0.850543
0.767907
0.825251
0.844263
0.804575
0.506404
0.81303
0.828357
0.852429
0.812752
0.803158
0.808561
0.85509
0.780083
0.802601
0.801323
0.813071
0.727483
0.802797
0.830064
0.808128
0.795006
0.793629
0.84326
0.806627
0.845365
0.802032
0.824335
0.812886
0.804235
0.841902
0.812999
0.679801
0.818876
0.80712
0.812958
0.90616
0.800875
0.815982
0.800548
0.800478
0.81631
0.800582
0.803383
0.783729
0.747397
0.806618
0.813034
0.758143
0.791519
0.823109
0.81304
0.822347
0.806373
0.825856
0.875336
0.830725
0.575644
0.708961
0.840818
0.817391
0.844214
0.814873
0.850152
0.80745
0.812473
0.799453
0.838473
0.860978
0.852844
0.73173
0.814207
0.822264
0.743889
0.817226
0.776018
0.800296
0.733259
0.816172
0.830942
0.823502
0.862043
0.814331
0.813427
0.810303
0.814756
0.835854
0.812225
0.798772
0.810254
0.737753
0.811483
0.774161
0.832906
0.812883
0.639039
0.777694
0.811248
0.799286
0.819923
0.802585
0.814789
0.817403
0.804534
0.819494
0.804181
0.805967
0.597842
0.847102
0.825216
0.826787
0.815038
0.803236
0.702016
0.806596
0.90785
0.813707
0.801149
0.81301
0.782337
0.807375
0.813405
0.821381
0.814665
0.813358
0.816348
0.700911
0.777969
0.764734
0.812794
0.805382
0.801144
0.621612
0.80583
0.802736
0.708433
0.837288
0.817304
0.802274
0.807559
0.799494
0.817352
0.814013
0.813419
0.813019
0.709839
0.831763
0.800311
0.807531
0.842909
0.817736
0.816401
0.800276
0.753713
0.823918
0.787533
0.821527
0.789459
0.805759
0.821048
0.737567
0.817494
0.651377
0.872067
0.704524
0.845067
0.80092
0.87519
0.793804
0.801731
0.820767
0.836322
0.838458
0.82555
0.819926
0.81482
0.801235
0.804209
0.808291
0.726111
0.827284
0.800103
0.719551
0.830603
0.704656
0.800119
0.860586
0.805605
0.701962
0.797881
0.81421
0.704669
0.785663
0.819482
0.831921
0.807084
0.576222
0.728977
0.812415
0.801446
0.813066
0.80077
0.737359
0.814135
0.81583
0.812632
0.775461
0.803278
0.804516
0.803695
0.5608
0.812855
0.83415
0.58037
0.815281
0.816214
0.814815
0.818463
0.81454
0.824626
0.799199
0.795151
0.771018
0.822943
0.829708
0.825149
0.835019
0.76547
0.809131
0.724773
0.772419
0.808916
0.821169
0.813416
0.800989
0.858487
0.81307
0.80045
0.809726
0.816204
0.815304
0.836701
0.814614
0.812946
0.812002
0.813944
0.800262
0.82109
0.80379
0.822922
0.813597
0.576084
0.813643
0.834537
0.858262
0.838238
0.491633
0.816916
0.804612
0.497313
0.669779
0.644038
0.834364
0.808057
0.811672
0.812934
0.803212
0.816857
0.811016
0.535084
0.686915
0.818279
0.806645
0.815727
0.803523
0.810269
0.811046
0.820331
0.799607
0.692769
0.85611
0.803159
0.814744
0.813748
0.757891
0.486588
0.83297
0.813607
0.741901
0.80271
0.80632
0.591637
0.827594
0.814897
0.827804
0.818883
0.826105
0.804749
0.719822
0.643781
0.562422
0.825404
0.808639
0.78297
0.81311
0.779919
0.817994
0.873347
0.762476
0.821704
0.813646
0.825922
0.883595
0.814561
0.811966
0.803288
0.813887
0.692029
0.828291
0.799969
0.810286
0.80224
0.784295
0.854215
0.822133
0.840535
0.821618
0.757565
0.75599
0.803427
0.818201
0.803074
0.805263
0.802612
0.775781
0.814801
0.761711
0.821274
0.662275
0.814095
0.802983
0.735562
0.823316
0.818064
0.740119
0.801187
0.75734
0.880883
0.800738
0.812984
0.762807
0.800204
0.814394
0.803965
0.590193
0.821009
0.798746
0.801463
0.814645
0.825694
0.757279
0.805636
0.841777
0.827062
0.814145
0.83591
0.699854
0.700316
0.813066
0.744286
0.822311
0.771471
0.812975
0.802542
0.81048
0.752077
0.794227
0.764463
0.810013
0.803151
0.631418
0.779099
0.799255
0.849168
0.814489
0.828732
0.52707
0.82537
0.785214
0.858786
0.800957
0.818039
0.800398
0.785886
0.798855
0.825791
0.835818
0.821832
0.817222
0.706742
0.773954
0.815458
0.805398
0.810116
0.803923
0.706368
0.79292
0.803534
0.810769
0.827286
0.851255
0.831928
0.813594
0.79954
0.804318
0.802102
0.7797
0.611896
0.800438
0.73152
0.662139
0.822891
0.798947
0.777266
0.800078
0.754277
0.785338
0.811599
0.822291
0.803435
0.816116
0.817436
0.820724
0.81352
0.808557
0.712298
0.699568
0.641118
0.829358
0.869607
0.815431
0.841423
0.847893
0.863776
0.735959
0.816676
0.863054
0.810288
0.813015
0.816274
0.732968
0.812536
0.806773
0.806307
0.517849
0.813103
0.761279
0.813288
0.813811
0.803555
0.70528
0.813328
0.61089
0.825093
0.802363
0.822301
0.855216
0.803445
0.7954
0.821027
0.811701
0.805756
0.762349
0.510563
0.820989
0.803104
0.829049
0.825846
0.802214
0.807043
0.834528
0.72102
0.501169
0.886289
0.800683
0.8158
0.804338
0.710268
0.798738
0.800106
0.815178
0.73634
0.646719
0.883276
0.714328
0.836618
0.812111
0.832962
0.842724
0.792293
0.804761
0.813718
0.852824
0.738442
0.870737
0.814138
0.563144
0.802568
0.748862
0.852966
0.760437
0.804233
0.803968
0.799724
0.801631
0.809002
0.813047
0.855722
0.806093
0.802875
0.801322
0.800098
0.812382
0.816978
0.802628
0.812626
0.849263
0.803105
0.783549
0.802254
0.839734
0.725357
0.813753
0.813946
0.640666
0.713276
0.80557
0.823107
0.803668
0.512373
0.856497
0.813331
0.833129
0.805323
0.803324
0.801377
0.786348
0.58744
0.804317
0.816209
0.836031
0.820659
0.813087
0.798274
0.747143
0.801591
0.765939
0.787579
0.799433
0.790997
0.751129
0.800924
0.811573
0.810493
0.832259
0.849233
0.553714
0.841966
0.812985
0.820872
0.80208
0.82269
0.811217
0.894637
0.800312
0.867293
0.805708
0.75991
0.862161
0.802295
0.800259
0.824241
0.660614
0.645504
0.803408
0.803873
0.704091
0.654513
0.799916
0.823937
0.813164
0.822677
0.733163
0.817259
0.812972
0.826214
0.817036
0.811963
0.813005
0.754696
0.803996
0.815785
0.811471
0.676405
0.566787
0.813042
0.650205
0.722062
0.555494
0.841458
0.800214
0.527667
0.601048
0.827574
0.908082
0.818245
0.652531
0.814275
0.78653
0.801799
0.786476
0.820768
0.810198
0.788325
0.821142
0.801114
0.588022
0.817925
0.766789
0.816033
0.700561
0.822309
0.789739
0.814069
0.800151
0.663078
0.843561
0.806626
0.806723
0.494339
0.816936
0.800467
0.852324
0.711182
0.817189
0.584839
0.719274
0.801482
0.796753
0.733018
0.715762
0.715705
0.507719
0.591107
0.800094
0.518248
0.822688
0.521295
0.7573
0.671641
0.600509
0.541258
0.745552
0.80309
0.714839
0.821388
0.800996
0.803004
0.7613
0.889704
0.799149
0.824565
0.803449
0.812928
0.706118
0.807665
0.736825
0.822
0.886067
0.833635
0.74785
0.822876
0.7706
0.87993
0.804211
0.758771
0.850739
0.776964
0.799942
0.805401
0.75834
0.74484
0.666333
0.805001
0.803032
0.818003
0.83356
0.611713
0.808023
0.53864
0.668781
0.616988
0.818633
0.821133
0.809117
0.803991
0.615914
0.872491
0.802687
0.802953
0.863561
0.812565
0.772109
0.812302
0.802381
0.818002
0.803151
0.717187
0.803437
0.655903
0.7991
0.804188
0.801578
0.639368
0.811606
0.810377
0.725682
0.817909
0.549578
0.577035
0.804162
0.696648
0.726075
0.572419
0.723827
0.813745
0.706986
0.773044
0.716529
0.812868
0.670399
0.762212
0.8065
0.81072
0.654821
0.801971
0.895178
0.796731
0.8169
0.585746
0.693992
0.801043
0.81308
0.814126
0.851703
0.812774
0.804275
0.803745
0.803351
0.713976
0.717453
0.6159
0.771595
0.533551
0.723729
0.810038
0.814521
0.806231
0.799369
0.538667
0.809181
0.803772
0.554435
0.543899
0.746711
0.803586
0.806271
0.549718
0.798275
0.569947
0.720842
0.608066
0.813601
0.80233
0.59735
0.608557
0.867934
0.810095
0.765513
0.71807
0.622221
0.655528
0.709305
0.816114
0.75988
0.765484
0.624269
0.753999
0.809423
0.815474
0.812591
0.815581
0.865804
0.754831
0.819026
0.803356
0.851328
0.812997
0.802786
0.813206
0.722311
0.813049
0.812094
0.815286
0.811258
0.815993
0.803282
0.818021
0.810494
0.809849
0.817363
0.80013
0.816693
0.819047
0.667669
0.818704
0.868454
0.818264
0.79296
0.646118
0.858626
0.818884
0.824969
0.799641
0.811349
0.75749
0.852596
0.560568
0.726953
0.809881
0.815773
0.803889
0.803374
0.832119
0.805125
0.805265
0.815372
0.780802
0.838616
0.842003
0.815289
0.664514
0.613323
0.815872
0.816719
0.788421
0.849681
0.847308
0.810959
0.813729
0.77786
0.814199
0.817928
0.814225
0.818871
0.813202
0.815929
0.851094
0.816074
0.814604
0.817652
0.817863
0.784941
0.81422
0.804148
0.804237
0.8047
0.818664
0.811618
0.78844
0.753913
0.812792
0.806294
0.808895
0.806394
0.857808
0.803421
0.814105
0.812824
0.80526
0.58199
0.803903
0.812869
0.815124
0.810334
0.812913
0.813419
0.813149
0.810194
0.864426
0.502244
0.812944
0.841715
0.812776
0.802988
0.808451
0.815107
0.839739
0.80054
0.80132
0.812672
0.704986
0.812962
0.808293
0.807457
0.812675
0.813009
0.81315
0.813479
0.512488
0.811896
0.716154
0.885867
0.821137
0.733278
0.672441
0.815467
0.8036
0.818805
0.646702
0.801706
0.81345
0.648183
0.799948
0.804121
0.815545
0.80634
0.856784
0.809865
0.607188
0.800902
0.775158
0.811236
0.889097
0.803363
0.815534
0.819379
0.832253
0.813516
0.822482
0.836401
0.635188
0.802714
0.655981
0.813859
0.81376
0.712307
0.813646
0.80491
0.712968
0.815005
0.701678
0.861115
0.784168
0.814405
0.813018
0.813542
0.668158
0.813767
0.63349
0.800271
0.792402
0.822374
0.815283
0.716245
0.766698
0.830118
0.81287
0.821353
0.821986
0.813553
0.825407
0.799588
0.552436
0.754863
0.759335
0.731244
0.837667
0.822466
0.834384
0.776164
0.802772
0.813149
0.813074
0.813077
0.77471
0.564138
0.803213
0.529198
0.808274
0.824387
0.799796
0.803771
0.813066
0.806035
0.78272
0.732279
0.813502
0.85918
0.81377
0.799379
0.736834
0.809715
0.788759
0.833764
0.50471
0.796002
0.806004
0.79897
0.689786
0.812959
0.810838
0.857239
0.569383
0.807355
0.803279
0.812935
0.613072
0.813205
0.803343
0.803413
0.803038
0.813315
0.813412
0.816198
0.813159
0.717545
0.804519
0.80321
0.813109
0.896181
0.813261
0.774086
0.841233
0.799196
0.803142
0.601608
0.813004
0.803367
0.825768
0.80199
0.866259
0.814896
0.853561
0.800434
0.820713
0.777938
0.558667
0.752853
0.794336
0.804033
0.813952
0.813908
0.555875
0.861814
0.858086
0.768599
0.757694
0.738545
0.812171
0.848528
0.813042
0.813758
0.813076
0.804286
0.726738
0.803512
0.799199
0.764172
0.82433
0.823069
0.861871
0.815739
0.813088
0.526345
0.808903
0.813048
0.800783
0.77406
0.818088
0.803117
0.812989
0.826949
0.798474
0.803647
0.801276
0.815245
0.839165
0.802462
0.79925
0.801594
0.766069
0.819941
0.567415
0.868404
0.803703
0.546119
0.803238
0.8032
0.819664
0.593446
0.606434
0.801629
0.803731
0.800933
0.86076
0.780007
0.814704
0.802948
0.865916
0.804727
0.804463
0.826361
0.816021
0.820205
0.821343
0.820395
0.867504
0.729393
0.85218
0.817276
0.65388
0.802607
0.803196
0.803649
0.821189
0.823567
0.804025
0.801166
0.800137
0.822741
0.803255
0.803621
0.799754
0.824445
0.803984
0.802031
0.80609
0.827918
0.800643
0.801598
0.824369
0.799667
0.815466
0.651481
0.826444
0.849875
0.804916
0.819642
0.803247
0.8288
0.837538
0.803407
0.82154
0.800597
0.80707
0.789575
0.802189
0.803218
0.806369
0.805947
0.804597
0.818613
0.814832
0.811257
0.831457
0.802273
0.80224
0.79999
0.789009
0.83383
0.803163
0.81937
0.81529
0.807144
0.805107
0.802955
0.838945
0.864923
0.799664
0.679117
0.801234
0.842188
0.816667
0.805226
0.804475
0.819728
0.844627
0.602898
0.828871
0.79458
0.850525
0.818797
0.81202
0.813309
0.808319
0.803967
0.812798
0.808776
0.592085
0.848017
0.794651
0.814267
0.854617
0.819345
0.763277
0.808673
0.814536
0.815531
0.802979
0.661896
0.809305
0.863178
0.802645
0.800765
0.775528
0.871236
0.800486
0.877086
0.806745
0.817234
0.820675
0.802326
0.80388
0.812701
0.815956
0.803566
0.813414
0.81681
0.881367
0.820718
0.809308
0.800234
0.828453
0.810493
0.83898
0.808859
0.806953
0.812222
0.816619
0.829948
0.813743
0.822585
0.832554
0.814265
0.700057
0.691436
0.813138
0.817811
0.803909
0.813211
0.514844
0.854896
0.799839
0.806237
0.81401
0.813568
0.803974
0.812569
0.800555
0.801267
0.808101
0.814783
0.757033
0.784717
0.822996
0.842825
0.834844
0.800344
0.805151
0.803364
0.812926
0.805753
0.799613
0.799873
0.801063
0.810952
0.797831
0.802842
0.835534
0.831438
0.730084
0.677358
0.807597
0.699044
0.799593
0.573313
0.804424
0.806971
0.803188
0.818229
0.833891
0.814006
0.812954
0.810279
0.803861
0.881538
0.816337
0.8049
0.772317
0.586832
0.810249
0.806717
0.769431
0.814493
0.813956
0.791496
0.800723
0.804044
0.626247
0.830477
0.803511
0.781604
0.779357
0.852736
0.809998
0.802974
0.802703
0.810292
0.811078
0.519385
0.801834
0.839529
0.814006
0.798595
0.589158
0.814587
0.814149
0.813046
0.833772
0.813998
0.803954
0.821948
0.80569
0.57609
0.808655
0.736727
0.798517
0.813717
0.722322
0.815
0.846131
0.831631
0.664686
0.890914
0.785624
0.777525
0.796891
0.779538
0.808668
0.850112
0.808065
0.802892
0.813632
0.808941
0.782656
0.785962
0.813958
0.808413
0.834862
0.821321
0.835699
0.801365
0.799731
0.813138
0.85664
0.81651
0.818426
0.813431
0.607585
0.795546
0.823934
0.829373
0.865921
0.812699
0.818977
0.509423
0.809824
0.800669
0.812691
0.814829
0.847613
0.813139
0.811097
0.881513
0.764638
0.812573
0.81332
0.8091
0.805224
0.814303
0.656103
0.800516
0.84956
0.833527
0.810674
0.81362
0.81345
0.809574
0.699397
0.812558
0.800265
0.838605
0.818532
0.811695
0.831356
0.792802
0.811615
0.817872
0.808897
0.819346
0.744449
0.854884
0.819022
0.813868
0.813143
0.812792
0.815777
0.817215
0.81284
0.810854
0.841106
0.818652
0.800246
0.825298
0.826986
0.816126
0.814485
0.800449
0.80156
0.813134
0.819082
0.829423
0.812887
0.816516
0.799927
0.81003
0.812925
0.812886
0.802506
0.814736
0.813409
0.803261
0.812949
0.835691
0.800036
0.809504
0.821623
0.560401
0.814285
0.818223
0.815566
0.815069
0.822016
0.828859
0.815686
0.818893
0.701593
0.813146
0.801392
0.815683
0.81908
0.835081
0.821616
0.815575
0.829413
0.824987
0.81076
0.819191
0.819623
0.804291
0.813241
0.81567
0.819474
0.832152
0.812711
0.815763
0.802725
0.813023
0.813135
0.523422
0.628083
0.814355
0.821491
0.801805
0.822513
0.815971
0.841892
0.708265
0.813821
0.730663
0.817438
0.810387
0.813245
0.82938
0.813732
0.80497
0.813008
0.830109
0.83944
0.812877
0.719329
0.819265
0.816093
0.8
0.803034
0.815377
0.855947
0.812733
0.813452
0.849722
0.829027
0.843287
0.574149
0.829149
0.814017
0.810965
0.817459
0.850665
0.817822
0.718526
0.799633
0.831763
0.799875
0.799816
0.805435
0.74794
0.813476
0.814414
0.725638
0.814424
0.827343
0.813394
0.8141
0.799318
0.818431
0.813072
0.823638
0.808708
0.808257
0.81503
0.705623
0.819129
0.814149
0.813058
0.640227
0.718467
0.599625
0.82328
0.530656
0.853972
0.727448
0.842826
0.812607
0.72308
0.82144
0.815941
0.742664
0.807693
0.818409
0.794413
0.81658
0.815926
0.815856
0.813073
0.807962
0.803671
0.73741
0.836251
0.820215
0.816667
0.799312
0.815434
0.802107
0.816069
0.813534
0.854757
0.817827
0.497921
0.813361
0.818843
0.818716
0.778095
0.815745
0.806731
0.818574
0.845488
0.596726
0.809199
0.799404
0.815385
0.817676
0.817745
0.812533
0.818653
0.813915
0.814642
0.80308
0.814337
0.846138
0.814
0.792011
0.811564
0.622773
0.718644
0.813147
0.817052
0.802967
0.822348
0.73547
0.803155
0.803188
0.820256
0.642274
0.817651
0.799453
0.815479
0.864839
0.785525
0.821995
0.818032
0.82287
0.81409
0.76966
0.802442
0.813639
0.902305
0.827174
0.816487
0.832216
0.809687
0.868387
0.719219
0.693012
0.852449
0.802709
0.673928
0.850406