# vtk DataFile Version 1.0
unstructured grid
ascii
DATASET UNSTRUCTURED_GRID
points 7812 float
-1 0 0
-1 1 0
2 0 0
2 1 0
0 0 0
1 0 0
-1 1 0.1
-1 0 0.1
0 0 0.1
1 0 0.1
2 0 0.1
2 1 0.1
-0.99 0 0
-0.98 0 0
-0.97 0 0
-0.96 0 0
-0.95 0 0
-0.94 0 0
-0.93 0 0
-0.92 0 0
-0.91 0 0
-0.9 0 0
-0.89 0 0
-0.88 0 0
-0.87 0 0
-0.86 0 0
-0.85 0 0
-0.84 0 0
-0.83 0 0
-0.82 0 0
-0.81 0 0
-0.8 0 0
-0.79 0 0
-0.78 0 0
-0.77 0 0
-0.76 0 0
-0.75 0 0
-0.74 0 0
-0.73 0 0
-0.72 0 0
-0.71 0 0
-0.7 0 0
-0.69 0 0
-0.68 0 0
-0.67 0 0
-0.66 0 0
-0.65 0 0
-0.64 0 0
-0.63 0 0
-0.62 0 0
-0.61 0 0
-0.6 0 0
-0.59 0 0
-0.58 0 0
-0.57 0 0
-0.56 0 0
-0.55 0 0
-0.54 0 0
-0.53 0 0
-0.52 0 0
-0.51 0 0
-0.5 0 0
-0.49 0 0
-0.48 0 0
-0.47 0 0
-0.46 0 0
-0.45 0 0
-0.44 0 0
-0.43 0 0
-0.42 0 0
-0.41 0 0
-0.4 0 0
-0.39 0 0
-0.38 0 0
-0.37 0 0
-0.36 0 0
-0.35 0 0
-0.34 0 0
-0.33 0 0
-0.32 0 0
-0.31 0 0
-0.3 0 0
-0.29 0 0
-0.28 0 0
-0.27 0 0
-0.26 0 0
-0.25 0 0
-0.24 0 0
-0.23 0 0
-0.22 0 0
-0.21 0 0
-0.2 0 0
-0.19 0 0
-0.18 0 0
-0.17 0 0
-0.16 0 0
-0.15 0 0
-0.14 0 0
-0.13 0 0
-0.12 0 0
-0.11 0 0
-0.1 0 0
-0.09 0 0
-0.08 0 0
-0.07 0 0
-0.06 0 0
-0.05 0 0
-0.04 0 0
-0.03 0 0
-0.02 0 0
-0.01 0 0
1.01 0 0
1.02 0 0
1.03 0 0
1.04 0 0
1.05 0 0
1.06 0 0
1.07 0 0
1.08 0 0
1.09 0 0
1.1 0 0
1.11 0 0
1.12 0 0
1.13 0 0
1.14 0 0
1.15 0 0
1.16 0 0
1.17 0 0
1.18 0 0
1.19 0 0
1.2 0 0
1.21 0 0
1.22 0 0
1.23 0 0
1.24 0 0
1.25 0 0
1.26 0 0
1.27 0 0
1.28 0 0
1.29 0 0
1.3 0 0
1.31 0 0
1.32 0 0
1.33 0 0
1.34 0 0
1.35 0 0
1.36 0 0
1.37 0 0
1.38 0 0
1.39 0 0
1.4 0 0
1.41 0 0
1.42 0 0
1.43 0 0
1.44 0 0
1.45 0 0
1.46 0 0
1.47 0 0
1.48 0 0
1.49 0 0
1.5 0 0
1.51 0 0
1.52 0 0
1.53 0 0
1.54 0 0
1.55 0 0
1.56 0 0
1.57 0 0
1.58 0 0
1.59 0 0
1.6 0 0
1.61 0 0
1.62 0 0
1.63 0 0
1.64 0 0
1.65 0 0
1.66 0 0
1.67 0 0
1.68 0 0
1.69 0 0
1.7 0 0
1.71 0 0
1.72 0 0
1.73 0 0
1.74 0 0
1.75 0 0
1.76 0 0
1.77 0 0
1.78 0 0
1.79 0 0
1.8 0 0
1.81 0 0
1.82 0 0
1.83 0 0
1.84 0 0
1.85 0 0
1.86 0 0
1.87 0 0
1.88 0 0
1.89 0 0
1.9 0 0
1.91 0 0
1.92 0 0
1.93 0 0
1.94 0 0
1.95 0 0
1.96 0 0
1.97 0 0
1.98 0 0
1.99 0 0
2 0.010289 0
2 0.0215307 0
2 0.0338135 0
2 0.0472336 0
2 0.0618965 0
2 0.0779171 0
2 0.0954213 0
2 0.114546 0
2 0.135442 0
2 0.158274 0
2 0.183219 0
2 0.210474 0
2 0.240253 0
2 0.27279 0
2 0.308339 0
2 0.347181 0
2 0.389619 0
2 0.435987 0
2 0.486649 0
2 0.542002 0
2 0.602481 0
2 0.66856 0
2 0.740758 0
2 0.819642 0
2 0.90583 0
1.9 1 0
1.8 1 0
1.7 1 0
1.6 1 0
1.5 1 0
1.4 1 0
1.3 1 0
1.2 1 0
1.1 1 0
1 1 0
0.9 1 0
0.8 1 0
0.7 1 0
0.6 1 0
0.5 1 0
0.4 1 0
0.3 1 0
0.2 1 0
0.1 1 0
3.69793e-12 1 0
-0.1 1 0
-0.2 1 0
-0.3 1 0
-0.4 1 0
-0.5 1 0
-0.6 1 0
-0.7 1 0
-0.8 1 0
-0.9 1 0
-1 0.90583 0
-1 0.819642 0
-1 0.740758 0
-1 0.66856 0
-1 0.602481 0
-1 0.542002 0
-1 0.486649 0
-1 0.435987 0
-1 0.389619 0
-1 0.347181 0
-1 0.308339 0
-1 0.27279 0
-1 0.240253 0
-1 0.210474 0
-1 0.183219 0
-1 0.158274 0
-1 0.135442 0
-1 0.114546 0
-1 0.0954213 0
-1 0.0779171 0
-1 0.0618965 0
-1 0.0472336 0
-1 0.0338135 0
-1 0.0215307 0
-1 0.010289 0
0.00921362 0.00379763 0
0.0184561 0.00752451 0
0.0277268 0.0111804 0
0.0370253 0.0147652 0
0.0463511 0.0182786 0
0.0557034 0.0217203 0
0.0650819 0.0250903 0
0.074486 0.0283883 0
0.083915 0.0316141 0
0.0933685 0.0347675 0
0.102846 0.0378484 0
0.112347 0.0408565 0
0.12187 0.0437917 0
0.131416 0.0466538 0
0.140983 0.0494427 0
0.150572 0.0521581 0
0.160181 0.0547999 0
0.16981 0.0573681 0
0.179458 0.0598623 0
0.189125 0.0622825 0
0.198811 0.0646285 0
0.208514 0.0669001 0
0.218234 0.0690974 0
0.227971 0.07122 0
0.237724 0.073268 0
0.247493 0.0752411 0
0.257276 0.0771393 0
0.267073 0.0789625 0
0.276884 0.0807105 0
0.286708 0.0823832 0
0.296545 0.0839806 0
0.306394 0.0855025 0
0.316254 0.0869488 0
0.326125 0.0883196 0
0.336006 0.0896146 0
0.345896 0.0908339 0
0.355796 0.0919773 0
0.365704 0.0930447 0
0.375621 0.0940362 0
0.385544 0.0949517 0
0.395474 0.095791 0
0.40541 0.0965542 0
0.415352 0.0972412 0
0.425299 0.097852 0
0.43525 0.0983865 0
0.445205 0.0988447 0
0.455164 0.0992266 0
0.465125 0.0995321 0
0.475088 0.0997613 0
0.485052 0.0999141 0
0.495017 0.0999904 0
0.504983 0.0999904 0
0.514948 0.0999141 0
0.524912 0.0997613 0
0.534875 0.0995321 0
0.544836 0.0992266 0
0.554795 0.0988447 0
0.56475 0.0983865 0
0.574701 0.097852 0
0.584648 0.0972412 0
0.59459 0.0965542 0
0.604526 0.095791 0
0.614456 0.0949517 0
0.624379 0.0940362 0
0.634296 0.0930447 0
0.644204 0.0919773 0
0.654104 0.0908339 0
0.663994 0.0896146 0
0.673875 0.0883196 0
0.683746 0.0869488 0
0.693606 0.0855025 0
0.703455 0.0839806 0
0.713292 0.0823832 0
0.723116 0.0807105 0
0.732927 0.0789625 0
0.742724 0.0771393 0
0.752508 0.0752411 0
0.762276 0.073268 0
0.772029 0.07122 0
0.781766 0.0690974 0
0.791486 0.0669001 0
0.801189 0.0646285 0
0.810875 0.0622825 0
0.820542 0.0598623 0
0.83019 0.0573681 0
0.839819 0.0547999 0
0.849428 0.0521581 0
0.859017 0.0494427 0
0.868584 0.0466538 0
0.87813 0.0437917 0
0.887653 0.0408565 0
0.897154 0.0378484 0
0.906631 0.0347675 0
0.916085 0.0316141 0
0.925514 0.0283883 0
0.934918 0.0250903 0
0.944297 0.0217203 0
0.953649 0.0182786 0
0.962975 0.0147652 0
0.972273 0.0111804 0
0.981544 0.00752451 0
0.990786 0.00379763 0
-1 0.90583 0.1
-1 0.819642 0.1
-1 0.740758 0.1
-1 0.66856 0.1
-1 0.602481 0.1
-1 0.542002 0.1
-1 0.486649 0.1
-1 0.435987 0.1
-1 0.389619 0.1
-1 0.347181 0.1
-1 0.308339 0.1
-1 0.27279 0.1
-1 0.240253 0.1
-1 0.210474 0.1
-1 0.183219 0.1
-1 0.158274 0.1
-1 0.135442 0.1
-1 0.114546 0.1
-1 0.0954213 0.1
-1 0.0779171 0.1
-1 0.0618965 0.1
-1 0.0472336 0.1
-1 0.0338135 0.1
-1 0.0215307 0.1
-1 0.010289 0.1
-0.99 0 0.1
-0.98 0 0.1
-0.97 0 0.1
-0.96 0 0.1
-0.95 0 0.1
-0.94 0 0.1
-0.93 0 0.1
-0.92 0 0.1
-0.91 0 0.1
-0.9 0 0.1
-0.89 0 0.1
-0.88 0 0.1
-0.87 0 0.1
-0.86 0 0.1
-0.85 0 0.1
-0.84 0 0.1
-0.83 0 0.1
-0.82 0 0.1
-0.81 0 0.1
-0.8 0 0.1
-0.79 0 0.1
-0.78 0 0.1
-0.77 0 0.1
-0.76 0 0.1
-0.75 0 0.1
-0.74 0 0.1
-0.73 0 0.1
-0.72 0 0.1
-0.71 0 0.1
-0.7 0 0.1
-0.69 0 0.1
-0.68 0 0.1
-0.67 0 0.1
-0.66 0 0.1
-0.65 0 0.1
-0.64 0 0.1
-0.63 0 0.1
-0.62 0 0.1
-0.61 0 0.1
-0.6 0 0.1
-0.59 0 0.1
-0.58 0 0.1
-0.57 0 0.1
-0.56 0 0.1
-0.55 0 0.1
-0.54 0 0.1
-0.53 0 0.1
-0.52 0 0.1
-0.51 0 0.1
-0.5 0 0.1
-0.49 0 0.1
-0.48 0 0.1
-0.47 0 0.1
-0.46 0 0.1
-0.45 0 0.1
-0.44 0 0.1
-0.43 0 0.1
-0.42 0 0.1
-0.41 0 0.1
-0.4 0 0.1
-0.39 0 0.1
-0.38 0 0.1
-0.37 0 0.1
-0.36 0 0.1
-0.35 0 0.1
-0.34 0 0.1
-0.33 0 0.1
-0.32 0 0.1
-0.31 0 0.1
-0.3 0 0.1
-0.29 0 0.1
-0.28 0 0.1
-0.27 0 0.1
-0.26 0 0.1
-0.25 0 0.1
-0.24 0 0.1
-0.23 0 0.1
-0.22 0 0.1
-0.21 0 0.1
-0.2 0 0.1
-0.19 0 0.1
-0.18 0 0.1
-0.17 0 0.1
-0.16 0 0.1
-0.15 0 0.1
-0.14 0 0.1
-0.13 0 0.1
-0.12 0 0.1
-0.11 0 0.1
-0.1 0 0.1
-0.09 0 0.1
-0.08 0 0.1
-0.07 0 0.1
-0.06 0 0.1
-0.05 0 0.1
-0.04 0 0.1
-0.03 0 0.1
-0.02 0 0.1
-0.01 0 0.1
0.00921362 0.00379763 0.1
0.0184561 0.00752451 0.1
0.0277268 0.0111804 0.1
0.0370253 0.0147652 0.1
0.0463511 0.0182786 0.1
0.0557034 0.0217203 0.1
0.0650819 0.0250903 0.1
0.074486 0.0283883 0.1
0.083915 0.0316141 0.1
0.0933685 0.0347675 0.1
0.102846 0.0378484 0.1
0.112347 0.0408565 0.1
0.12187 0.0437917 0.1
0.131416 0.0466538 0.1
0.140983 0.0494427 0.1
0.150572 0.0521581 0.1
0.160181 0.0547999 0.1
0.16981 0.0573681 0.1
0.179458 0.0598623 0.1
0.189125 0.0622825 0.1
0.198811 0.0646285 0.1
0.208514 0.0669001 0.1
0.218234 0.0690974 0.1
0.227971 0.07122 0.1
0.237724 0.073268 0.1
0.247493 0.0752411 0.1
0.257276 0.0771393 0.1
0.267073 0.0789625 0.1
0.276884 0.0807105 0.1
0.286708 0.0823832 0.1
0.296545 0.0839806 0.1
0.306394 0.0855025 0.1
0.316254 0.0869488 0.1
0.326125 0.0883196 0.1
0.336006 0.0896146 0.1
0.345896 0.0908339 0.1
0.355796 0.0919773 0.1
0.365704 0.0930447 0.1
0.375621 0.0940362 0.1
0.385544 0.0949517 0.1
0.395474 0.095791 0.1
0.40541 0.0965542 0.1
0.415352 0.0972412 0.1
0.425299 0.097852 0.1
0.43525 0.0983865 0.1
0.445205 0.0988447 0.1
0.455164 0.0992266 0.1
0.465125 0.0995321 0.1
0.475088 0.0997613 0.1
0.485052 0.0999141 0.1
0.495017 0.0999904 0.1
0.504983 0.0999904 0.1
0.514948 0.0999141 0.1
0.524912 0.0997613 0.1
0.534875 0.0995321 0.1
0.544836 0.0992266 0.1
0.554795 0.0988447 0.1
0.56475 0.0983865 0.1
0.574701 0.097852 0.1
0.584648 0.0972412 0.1
0.59459 0.0965542 0.1
0.604526 0.095791 0.1
0.614456 0.0949517 0.1
0.624379 0.0940362 0.1
0.634296 0.0930447 0.1
0.644204 0.0919773 0.1
0.654104 0.0908339 0.1
0.663994 0.0896146 0.1
0.673875 0.0883196 0.1
0.683746 0.0869488 0.1
0.693606 0.0855025 0.1
0.703455 0.0839806 0.1
0.713292 0.0823832 0.1
0.723116 0.0807105 0.1
0.732927 0.0789625 0.1
0.742724 0.0771393 0.1
0.752508 0.0752411 0.1
0.762276 0.073268 0.1
0.772029 0.07122 0.1
0.781766 0.0690974 0.1
0.791486 0.0669001 0.1
0.801189 0.0646285 0.1
0.810875 0.0622825 0.1
0.820542 0.0598623 0.1
0.83019 0.0573681 0.1
0.839819 0.0547999 0.1
0.849428 0.0521581 0.1
0.859017 0.0494427 0.1
0.868584 0.0466538 0.1
0.87813 0.0437917 0.1
0.887653 0.0408565 0.1
0.897154 0.0378484 0.1
0.906631 0.0347675 0.1
0.916085 0.0316141 0.1
0.925514 0.0283883 0.1
0.934918 0.0250903 0.1
0.944297 0.0217203 0.1
0.953649 0.0182786 0.1
0.962975 0.0147652 0.1
0.972273 0.0111804 0.1
0.981544 0.00752451 0.1
0.990786 0.00379763 0.1
1.01 0 0.1
1.02 0 0.1
1.03 0 0.1
1.04 0 0.1
1.05 0 0.1
1.06 0 0.1
1.07 0 0.1
1.08 0 0.1
1.09 0 0.1
1.1 0 0.1
1.11 0 0.1
1.12 0 0.1
1.13 0 0.1
1.14 0 0.1
1.15 0 0.1
1.16 0 0.1
1.17 0 0.1
1.18 0 0.1
1.19 0 0.1
1.2 0 0.1
1.21 0 0.1
1.22 0 0.1
1.23 0 0.1
1.24 0 0.1
1.25 0 0.1
1.26 0 0.1
1.27 0 0.1
1.28 0 0.1
1.29 0 0.1
1.3 0 0.1
1.31 0 0.1
1.32 0 0.1
1.33 0 0.1
1.34 0 0.1
1.35 0 0.1
1.36 0 0.1
1.37 0 0.1
1.38 0 0.1
1.39 0 0.1
1.4 0 0.1
1.41 0 0.1
1.42 0 0.1
1.43 0 0.1
1.44 0 0.1
1.45 0 0.1
1.46 0 0.1
1.47 0 0.1
1.48 0 0.1
1.49 0 0.1
1.5 0 0.1
1.51 0 0.1
1.52 0 0.1
1.53 0 0.1
1.54 0 0.1
1.55 0 0.1
1.56 0 0.1
1.57 0 0.1
1.58 0 0.1
1.59 0 0.1
1.6 0 0.1
1.61 0 0.1
1.62 0 0.1
1.63 0 0.1
1.64 0 0.1
1.65 0 0.1
1.66 0 0.1
1.67 0 0.1
1.68 0 0.1
1.69 0 0.1
1.7 0 0.1
1.71 0 0.1
1.72 0 0.1
1.73 0 0.1
1.74 0 0.1
1.75 0 0.1
1.76 0 0.1
1.77 0 0.1
1.78 0 0.1
1.79 0 0.1
1.8 0 0.1
1.81 0 0.1
1.82 0 0.1
1.83 0 0.1
1.84 0 0.1
1.85 0 0.1
1.86 0 0.1
1.87 0 0.1
1.88 0 0.1
[...]
CELL_DATA 7425
SCALARS rho float
LOOKUP_TABLE default
0.587429
0.805048
0.819612
0.827567
0.799494
0.819207
0.820953
0.814202
0.813062
0.738714
0.863511
0.810058
0.813966
0.827424
0.803777
0.817212
0.798822
0.813341
0.803479
0.767303
0.83132
0.822068
0.724873
0.828097
0.803885
0.703255
0.831251
0.848373
0.800178
0.807975
0.819411
0.725406
0.803625
0.652309
0.519766
0.828063
0.803515
0.81418
0.811168
0.828052
0.71617
0.703545
0.790031
0.701701
0.586788
0.748285
0.799367
0.813901
0.662305
0.719193
0.746334
0.805164
0.812374
0.799145
0.709611
0.639319
0.822967
0.800141
0.738585
0.701033
0.709772
0.807671
0.813311
0.799447
0.798787
0.817668
0.584611
0.773344
0.704388
0.807896
0.804225
0.803208
0.883416
0.821141
0.810866
0.813122
0.805061
0.800452
0.813317
0.757802
0.816042
0.807251
0.810361
0.788742
0.835936
0.801155
0.574691
0.829999
0.542878
0.848512
0.706048
0.729826
0.845335
0.803187
0.817458
0.758334
0.836099
0.788049
0.825678
0.802545
0.808157
0.738644
0.803295
0.828284
0.597444
0.811094
0.82442
0.707611
0.815062
0.799237
0.816769
0.784579
0.789861
0.812444
0.789763
0.786348
0.831299
0.80311
0.699784
0.632143
0.805059
0.777325
0.813026
0.790432
0.858964
0.838936
0.807709
0.804318
0.661352
0.504584
0.814541
0.655265
0.515615
0.867816
0.66271
0.799587
0.81112
0.72366
0.582252
0.725011
0.723436
0.809656
0.809718
0.707105
0.803194
0.779642
0.565712
0.788584
0.782548
0.827816
0.816806
0.704402
0.802967
0.744309
0.705004
0.803285
0.810459
0.830455
0.797611
0.652505
0.802536
0.702978
0.801162
0.829789
0.820513
0.802386
0.813143
0.784868
0.806292
0.800715
0.819765
0.804548
0.791248
0.7992
0.799931
0.740273
0.803759
0.758837
0.594425
0.705558
0.799747
0.792766
0.879811
0.831884
0.62177
0.822979
0.798707
0.827403
0.799937
0.813479
0.812693
0.803203
0.806958
0.70437
0.815077
0.81931
0.770144
0.797199
0.86125
0.807782
0.811865
0.811247
0.613075
0.83899
0.573275
0.532249
0.595704
0.601096
0.828201
0.879346
0.807539
0.798666
0.841407
0.813051
0.816742
0.820821
0.815268
0.638175
0.550633
0.813799
0.545937
0.592872
0.703219
0.811761
0.814133
0.813122
0.833176
0.812996
0.864316
0.709696
0.835261
0.712915
0.805185
0.803932
0.801982
0.714033
0.720655
0.619676
0.70514
0.863643
0.87552
0.806305
0.807709
0.798922
0.811571
0.716095
0.821661
0.800261
0.825742
0.794645
0.809929
0.721379
0.812896
0.823787
0.73994
0.528843
0.799914
0.736398
0.843337
0.814411
0.726517
0.815641
0.814908
0.849973
0.809584
0.803944
0.803262
0.825702
0.860786
0.805507
0.619429
0.848917
0.812061
0.805615
0.827588
0.837366
0.813066
0.821482
0.793525
0.815138
0.866723
0.849968
0.827387
0.836778
0.802694
0.817221
0.803197
0.759751
0.701484
0.58114
0.700576
0.802401
0.812973
0.816049
0.854805
0.779691
0.645909
0.827128
0.521329
0.77434
0.801036
0.64657
0.496376
0.639269
0.815263
0.813313
0.81305
0.812796
0.826763
0.774459
0.811491
0.802677
0.812992
0.840747
0.867217
0.833597
0.802766
0.705475
0.795945
0.834315
0.691719
0.798815
0.802065
0.864805
0.817161
0.593264
0.813468
0.740659
0.852393
0.732119
0.810184
0.907662
0.799939
0.795707
0.659126
0.635741
0.711461
0.780667
0.826587
0.815001
0.813766
0.882553
0.858276
0.799607
0.799208
0.826052
0.739338
0.802545
0.879403
0.801389
0.804774
0.800765
0.802578
0.813045
0.815785
0.816434
0.636453
0.830038
0.645996
0.808504
0.639567
0.802677
0.802251
0.840293
0.728883
0.816364
0.808632
0.817041
0.799561
0.802505
0.811272
0.697139
0.82449
0.81314
0.813007
0.80069
0.73684
0.560201
0.806427
0.811102
0.803197
0.81298
0.794786
0.50423
0.846073
0.813391
0.803859
0.785778
0.81334
0.804717
0.803082
0.816301
0.807524
0.822561
0.768667
0.812696
0.807787
0.562933
0.803188
0.64028
0.838785
0.636403
0.814764
0.877917
0.593739
0.818111
0.749038
0.804426
0.873359
0.534196
0.823171
0.822311
0.803506
0.825786
0.811097
0.823509
0.830681
0.824884
0.739862
0.827567
0.761656
0.81026
0.794262
0.793681
0.758667
0.805616
0.802094
0.814525
0.752363
0.804741
0.604658
0.61444
0.689324
0.81289
0.84423
0.864861
0.829918
0.798654
0.812729
0.804928
0.818569
0.680653
0.801042
0.743037
0.824088
0.814862
0.805469
0.71148
0.727344
0.534052
0.605803
0.801351
0.61157
0.792649
0.76541
0.770104
0.726986
0.762535
0.767611
0.809514
0.814999
0.819607
0.811549
0.710709
0.602849
0.839067
0.806994
0.783181
0.80991
0.802597
0.836598
0.718436
0.855313
0.763709
0.728568
0.764605
0.811576
0.545376
0.798897
0.841652
0.813345
0.813859
0.809791
0.79924
0.780382
0.835733
0.803117
0.843009
0.721182
0.707276
0.800382
0.795207
0.822073
0.70888
0.847994
0.800498
0.816116
0.798798
0.779212
0.808339
0.594842
0.677581
0.632584
0.813007
0.80386
0.826402
0.749329
0.81061
0.814867
0.820449
0.799049
0.729536
0.796948
0.814374
0.803207
0.703543
0.813668
0.818964
0.840063
0.810862
0.825387
0.862314
0.857297
0.744058
0.603631
0.838061
0.80585
0.84341
0.814299
0.822955
0.8136
0.813878
0.635634
0.805263
0.809364
0.812911
0.791955
0.810635
0.804833
0.860652
0.798736
0.812825
0.814784
0.871943
0.597855
0.813537
0.84253
0.883333
0.530841
0.816469
0.830007
0.796164
0.814767
0.795009
0.867621
0.812247
0.831395
0.812793
0.619553
0.802414
0.804161
0.691161
0.853166
0.759756
0.801831
0.814051
0.812797
0.859832
0.795373
0.833649
0.834764
0.784376
0.825222
0.84246
0.799815
0.810569
0.807035
0.80533
0.814905
0.802643
0.845258
0.769301
0.809798
0.803181
0.815261
0.723282
0.812984
0.818416
0.75268
0.813663
0.816404
0.827652
0.825168
0.800787
0.80071
0.850527
0.767916
0.825215
0.844242
0.804571
0.506203
0.812985
0.828329
0.852413
0.812714
0.803156
0.808553
0.855073
0.780084
0.802597
0.801297
0.813025
0.727388
0.802775
0.830045
0.808094
0.794998
0.793591
0.843237
0.806622
0.845347
0.802029
0.824304
0.812844
0.80423
0.841884
0.812954
0.679702
0.818841
0.807115
0.812916
0.906153
0.800855
0.815951
0.800529
0.800455
0.816273
0.800559
0.803377
0.783731
0.747386
0.806579
0.812988
0.758105
0.791482
0.823078
0.813034
0.822315
0.806357
0.825826
0.875324
0.830697
0.575424
0.708916
0.840794
0.817355
0.844193
0.814834
0.850134
0.807417
0.812448
0.799422
0.83845
0.860961
0.852825
0.731671
0.814166
0.822233
0.743914
0.81719
0.775997
0.800275
0.733205
0.816135
0.830914
0.823493
0.861984
0.814291
0.813384
0.810263
0.814717
0.835832
0.812219
0.798739
0.810249
0.737695
0.811438
0.774167
0.832882
0.812849
0.638973
0.777679
0.811218
0.799255
0.81989
0.802554
0.81475
0.817367
0.804512
0.81946
0.804177
0.805933
0.597684
0.847081
0.825186
0.826757
0.815004
0.803233
0.701966
0.806562
0.907844
0.813667
0.801115
0.812968
0.782323
0.807341
0.813364
0.821348
0.814659
0.813314
0.81631
0.701185
0.777932
0.764689
0.81275
0.805364
0.801111
0.621535
0.805797
0.802706
0.708367
0.837261
0.817268
0.802252
0.807529
0.799467
0.817317
0.813986
0.813375
0.812972
0.709793
0.831739
0.800304
0.807496
0.842879
0.817703
0.816365
0.800248
0.7537
0.823889
0.787496
0.821495
0.789448
0.805723
0.821015
0.737558
0.817463
0.651161
0.872052
0.704469
0.845046
0.800882
0.875178
0.793777
0.801715
0.820734
0.836293
0.838444
0.825522
0.819893
0.814783
0.801201
0.804203
0.808278
0.726011
0.82727
0.800098
0.719586
0.830579
0.705057
0.800085
0.86053
0.805599
0.701824
0.797872
0.814169
0.704766
0.785664
0.819449
0.831899
0.807044
0.57551
0.728885
0.812407
0.801412
0.81302
0.800741
0.737318
0.814094
0.815792
0.812586
0.77543
0.803275
0.80451
0.80366
0.5607
0.812809
0.834137
0.580216
0.815242
0.816177
0.814776
0.818428
0.814501
0.824596
0.799164
0.795144
0.771024
0.822929
0.829695
0.825136
0.834979
0.765438
0.809089
0.724674
0.772407
0.808883
0.821136
0.813373
0.800985
0.85843
0.813024
0.800413
0.809683
0.816167
0.815265
0.836676
0.814574
0.812901
0.811997
0.813903
0.800227
0.821057
0.803784
0.82289
0.813554
0.575934
0.813601
0.834511
0.858207
0.838222
0.491394
0.816879
0.804584
0.497109
0.669667
0.643818
0.834341
0.80803
0.811667
0.81289
0.80321
0.816821
0.811
0.534941
0.686797
0.818267
0.80664
0.815689
0.803519
0.810261
0.811001
0.820299
0.799581
0.692635
0.856055
0.803157
0.814737
0.813707
0.757857
0.486345
0.832943
0.813589
0.741927
0.802708
0.806286
0.591443
0.827573
0.814858
0.827775
0.818848
0.826069
0.804744
0.719713
0.643717
0.562321
0.825374
0.808603
0.782973
0.813065
0.779881
0.817959
0.873335
0.762443
0.821672
0.813606
0.825893
0.883584
0.814522
0.811923
0.803282
0.813881
0.691943
0.828262
0.799943
0.81025
0.802231
0.784283
0.854196
0.822102
0.840517
0.821586
0.757576
0.755968
0.803394
0.818167
0.803071
0.805258
0.802606
0.775741
0.814762
0.761675
0.821238
0.662213
0.814054
0.802978
0.735609
0.823295
0.818034
0.74008
0.801182
0.757302
0.880813
0.800734
0.812937
0.762769
0.800169
0.814353
0.803961
0.590099
0.820989
0.798718
0.801426
0.814605
0.825665
0.75724
0.805604
0.841733
0.827026
0.814131
0.835884
0.700133
0.700265
0.81302
0.744247
0.822279
0.77144
0.812929
0.802535
0.810453
0.75204
0.794219
0.764422
0.809973
0.803149
0.631353
0.779077
0.799251
0.84912
0.814448
0.828704
0.5269
0.82536
0.785192
0.858768
0.800953
0.818022
0.800364
0.785854
0.798822
0.825763
0.835799
0.821811
0.817187
0.706814
0.773917
0.815425
0.805393
0.810071
0.80392
0.706514
0.792891
0.803515
0.810735
0.827254
0.851239
0.831901
0.813552
0.799507
0.804293
0.80208
0.779683
0.611813
0.800402
0.731453
0.662071
0.822861
0.798916
0.77727
0.800048
0.754241
0.785327
0.811553
0.822261
0.803405
0.816079
0.817407
0.820702
0.813477
0.808529
0.712253
0.699515
0.641054
0.82933
0.869593
0.815408
0.841401
0.847873
0.863762
0.73588
0.816645
0.863039
0.810256
0.812968
0.816246
0.732913
0.812498
0.806738
0.806273
0.517677
0.813058
0.761251
0.813245
0.813804
0.803552
0.705366
0.813285
0.610808
0.825073
0.802338
0.82228
0.855197
0.803441
0.795392
0.820994
0.81166
0.805742
0.762322
0.510351
0.820957
0.803099
0.829011
0.825816
0.802177
0.807038
0.834505
0.720961
0.500948
0.886279
0.800651
0.815762
0.804334
0.710335
0.798705
0.800075
0.815139
0.73626
0.646654
0.883266
0.714274
0.836593
0.812069
0.832936
0.842702
0.792255
0.804756
0.813677
0.852808
0.738402
0.870724
0.814097
0.563043
0.802535
0.748883
0.852946
0.760392
0.804228
0.803964
0.799695
0.801619
0.808961
0.813001
0.855672
0.806061
0.802872
0.801319
0.800069
0.812335
0.816942
0.802625
0.812579
0.849243
0.803103
0.783517
0.802249
0.839691
0.725257
0.813711
0.813905
0.639812
0.713223
0.805563
0.823077
0.803633
0.512181
0.856444
0.81329
0.833089
0.805318
0.803321
0.801365
0.786314
0.58736
0.804311
0.816172
0.836017
0.820626
0.813041
0.798237
0.747086
0.801585
0.765889
0.787567
0.799402
0.790987
0.75112
0.800898
0.811538
0.810452
0.832237
0.849184
0.553577
0.841943
0.812938
0.820865
0.802056
0.822682
0.811171
0.894628
0.800286
0.867233
0.805702
0.759865
0.862146
0.802291
0.800255
0.824211
0.660548
0.645437
0.803404
0.803868
0.704359
0.654449
0.799912
0.823906
0.813119
0.822645
0.733104
0.817233
0.812928
0.826185
0.817005
0.811957
0.812959
0.75466
0.803965
0.815747
0.811425
0.676348
0.566682
0.812996
0.650143
0.722019
0.555378
0.841436
0.800185
0.527458
0.600963
0.827552
0.908076
0.81821
0.652465
0.814235
0.786498
0.801773
0.786449
0.820731
0.810165
0.788313
0.82111
0.801078
0.587915
0.817889
0.766751
0.815996
0.700671
0.822277
0.789706
0.814028
0.800119
0.663015
0.843543
0.8066
0.806689
0.49411
0.8169
0.80044
0.852274
0.711234
0.817153
0.584574
0.719165
0.801457
0.796723
0.732933
0.715694
0.715791
0.507499
0.590656
0.80006
0.518031
0.822656
0.520977
0.757265
0.671526
0.600147
0.54106
0.745513
0.803087
0.714944
0.821355
0.800977
0.802984
0.761265
0.889694
0.799116
0.824535
0.803443
0.812882
0.706068
0.807635
0.736784
0.821968
0.886056
0.833612
0.747807
0.822845
0.770565
0.879919
0.804207
0.758736
0.850719
0.77693
0.799938
0.805367
0.758305
0.744769
0.666053
0.804996
0.803029
0.817969
0.833534
0.611642
0.807989
0.538477
0.668721
0.616786
0.818596
0.8211
0.809076
0.803986
0.615841
0.872478
0.802684
0.802951
0.863544
0.812519
0.772084
0.812255
0.802376
0.817967
0.803149
0.717141
0.803415
0.655733
0.79907
0.804156
0.801568
0.639305
0.811578
0.810351
0.725673
0.817875
0.549442
0.576932
0.804158
0.696595
0.726033
0.572321
0.723759
0.813703
0.707152
0.773024
0.716584
0.812845
0.670337
0.762178
0.806484
0.81068
0.654724
0.801963
0.895169
0.796722
0.816863
0.58557
0.693934
0.801006
0.813035
0.814086
0.851686
0.81273
0.804269
0.80374
0.803347
0.713919
0.71749
0.615815
0.771555
0.533317
0.723789
0.809997
0.814482
0.806199
0.799335
0.537915
0.809141
0.803768
0.554296
0.543724
0.746673
0.803583
0.806238
0.5496
0.798258
0.569837
0.720735
0.607977
0.813581
0.802306
0.597255
0.608474
0.867919
0.810078
0.765479
0.718002
0.622057
0.655466
0.709443
0.816078
0.759845
0.765492
0.62419
0.753957
0.809384
0.815436
0.812545
0.815543
0.865743
0.754785
0.818992
0.80335
0.85131
0.812951
0.802782
0.813163
0.722387
0.813013
0.812058
0.81525
0.81122
0.815957
0.803279
0.817987
0.810456
0.80981
0.817328
0.800126
0.816657
0.819013
0.667607
0.818669
0.868439
0.818229
0.792951
0.646053
0.858609
0.818849
0.824939
0.799609
0.811302
0.757497
0.852577
0.560196
0.726859
0.809875
0.815735
0.803885
0.80337
0.832092
0.805094
0.805245
0.815333
0.780772
0.838592
0.841981
0.815259
0.664452
0.613026
0.815834
0.816683
0.788382
0.849661
0.847289
0.810924
0.813693
0.777826
0.81416
0.817893
0.814185
0.818836
0.813167
0.815891
0.851074
0.816036
0.814568
0.817616
0.817828
0.784927
0.814183
0.804117
0.804202
0.804673
0.818629
0.811572
0.788409
0.753931
0.812749
0.806289
0.808854
0.806389
0.857793
0.803397
0.814066
0.812779
0.805237
0.577051
0.803898
0.812824
0.815089
0.810328
0.812867
0.813377
0.813105
0.810189
0.864412
0.502029
0.812898
0.841694
0.812732
0.80298
0.808439
0.815068
0.839715
0.80051
0.801286
0.812648
0.705288
0.812916
0.808268
0.807423
0.812631
0.812964
0.813106
0.813436
0.512279
0.811887
0.716044
0.885857
0.821106
0.73332
0.672132
0.815429
0.803571
0.818777
0.646636
0.801691
0.813407
0.648118
0.799917
0.804113
0.815508
0.806315
0.856766
0.80986
0.607106
0.800878
0.775164
0.81123
0.889086
0.803334
0.815527
0.819358
0.832233
0.813473
0.82245
0.836377
0.635118
0.802683
0.655916
0.813817
0.813718
0.712378
0.813604
0.804876
0.713019
0.814973
0.701561
0.861098
0.784144
0.814364
0.812972
0.8135
0.668073
0.813725
0.633427
0.800246
0.792392
0.822343
0.815245
0.716181
0.766699
0.830091
0.812827
0.821331
0.821954
0.81351
0.825377
0.799559
0.552327
0.754876
0.759297
0.731297
0.837642
0.822428
0.834367
0.776119
0.802769
0.813104
0.813029
0.813032
0.774688
0.564036
0.80321
0.528993
0.808246
0.82435
0.799765
0.803767
0.81303
0.806028
0.782685
0.732255
0.813459
0.859165
0.813741
0.799349
0.736861
0.80968
0.788747
0.833745
0.504456
0.795995
0.805966
0.798938
0.689593
0.812915
0.810806
0.857184
0.569285
0.807348
0.803276
0.812892
0.612904
0.813161
0.80334
0.80341
0.803034
0.813271
0.813368
0.816161
0.813114
0.717639
0.804514
0.803207
0.813064
0.896172
0.813217
0.774051
0.841204
0.799191
0.803139
0.601522
0.812958
0.803364
0.825731
0.801983
0.866244
0.814867
0.853513
0.800403
0.82068
0.77792
0.55855
0.752802
0.794301
0.803996
0.813946
0.813867
0.55576
0.8618
0.858031
0.768555
0.757687
0.738539
0.812135
0.848489
0.812996
0.813739
0.813031
0.804282
0.726748
0.803509
0.799168
0.764185
0.8243
0.823037
0.861857
0.815702
0.813043
0.525801
0.808898
0.813002
0.800758
0.774028
0.818081
0.803115
0.812946
0.82692
0.798467
0.803627
0.801257
0.815214
0.839142
0.802433
0.799221
0.801561
0.766077
0.819907
0.567308
0.86839
0.803698
0.546001
0.803213
0.803172
0.819631
0.592976
0.606345
0.801604
0.8037
0.800905
0.860745
0.779984
0.814671
0.802944
0.865855
0.804722
0.804459
0.826339
0.815988
0.820169
0.821311
0.820362
0.867491
0.729349
0.852164
0.817241
0.653813
0.802586
0.803192
0.803645
0.821156
0.823537
0.804006
0.80114
0.800109
0.822709
0.803235
0.803616
0.799724
0.824414
0.80398
0.802018
0.806085
0.82789
0.800609
0.801574
0.824333
0.799639
0.815427
0.651413
0.826414
0.849857
0.804899
0.819608
0.803241
0.828772
0.837514
0.803404
0.821507
0.800575
0.807039
0.789568
0.802178
0.803197
0.806364
0.80593
0.80457
0.818579
0.814793
0.811249
0.83143
0.802243
0.802233
0.799961
0.789006
0.833805
0.803157
0.819336
0.815251
0.80713
0.805083
0.802952
0.838922
0.864863
0.799633
0.67906
0.801216
0.842165
0.81663
0.805193
0.804471
0.819714
0.844607
0.602528
0.828833
0.794547
0.850473
0.818763
0.81201
0.813295
0.80829
0.803962
0.812787
0.808767
0.592005
0.847996
0.794634
0.814226
0.854599
0.81931
0.763243
0.808659
0.814496
0.815495
0.802974
0.66183
0.809271
0.863162
0.802617
0.800745
0.775488
0.871223
0.800467
0.877074
0.806719
0.817198
0.820642
0.802292
0.803859
0.812657
0.815919
0.803534
0.813371
0.816777
0.881356
0.820707
0.809303
0.800202
0.828428
0.810487
0.838938
0.808841
0.806948
0.812188
0.816582
0.829925
0.813702
0.822556
0.832535
0.814231
0.699944
0.691257
0.813094
0.817776
0.803876
0.813169
0.514603
0.85488
0.799813
0.806232
0.813971
0.813526
0.803968
0.812526
0.800528
0.801246
0.808075
0.814756
0.756984
0.784688
0.822965
0.842778
0.834825
0.800315
0.805118
0.80336
0.812919
0.805734
0.799583
0.799845
0.801044
0.810928
0.797822
0.802811
0.835509
0.831399
0.730008
0.674255
0.807589
0.698907
0.79956
0.572987
0.804418
0.806956
0.80316
0.818193
0.833851
0.813965
0.812909
0.810273
0.803855
0.881526
0.8163
0.804866
0.772297
0.586555
0.810243
0.806686
0.769408
0.814453
0.813915
0.791486
0.800715
0.804039
0.625776
0.830456
0.803507
0.781563
0.779339
0.852719
0.809993
0.802944
0.80267
0.810261
0.81107
0.519172
0.801816
0.839506
0.813965
0.798586
0.589029
0.814565
0.814108
0.813
0.833746
0.813956
0.803945
0.821916
0.805657
0.575994
0.808645
0.736661
0.798512
0.813675
0.722286
0.814961
0.846083
0.831617
0.664623
0.890904
0.78561
0.777484
0.796884
0.779531
0.808649
0.850062
0.808035
0.802883
0.813589
0.808901
0.782641
0.785949
0.813917
0.808381
0.834848
0.82129
0.835684
0.801331
0.799707
0.813093
0.856622
0.81648
0.818397
0.813387
0.607507
0.795537
0.823906
0.829353
0.865905
0.812653
0.818955
0.509209
0.809783
0.800643
0.812649
0.814794
0.847593
0.813095
0.811091
0.881502
0.764606
0.812562
0.813276
0.80906
0.805218
0.814262
0.656041
0.800509
0.849539
0.833514
0.810644
0.813585
0.813407
0.809568
0.699274
0.812522
0.800232
0.838581
0.818498
0.81166
0.831333
0.792766
0.811579
0.817838
0.808863
0.819312
0.744385
0.854835
0.818988
0.813834
0.813099
0.812747
0.815741
0.81718
0.812795
0.810816
0.841084
0.818618
0.800216
0.825285
0.82696
0.816092
0.814472
0.800421
0.801543
0.813089
0.819048
0.829409
0.812842
0.81648
0.799894
0.809992
0.812879
0.812841
0.802502
0.814696
0.813366
0.803253
0.812903
0.835667
0.800031
0.809465
0.821586
0.560269
0.814245
0.818188
0.815534
0.815032
0.821984
0.828834
0.815648
0.818859
0.701541
0.813101
0.801372
0.815645
0.819046
0.835067
0.821584
0.815552
0.829385
0.824957
0.810716
0.819184
0.819586
0.804255
0.813196
0.815632
0.819459
0.832125
0.812668
0.815725
0.802721
0.812977
0.81309
0.523178
0.627951
0.814349
0.821459
0.80178
0.822483
0.815933
0.841874
0.708216
0.813779
0.730603
0.817411
0.810348
0.8132
0.829356
0.81369
0.804936
0.812962
0.830087
0.839392
0.812834
0.719284
0.819255
0.816056
0.799973
0.803031
0.815338
0.85593
0.812688
0.813409
0.849703
0.829004
0.843269
0.573937
0.829121
0.813976
0.810926
0.817423
0.850613
0.817786
0.718482
0.799603
0.83175
0.799841
0.799787
0.80542
0.747902
0.813433
0.814374
0.725571
0.814385
0.82733
0.813351
0.814061
0.799287
0.818396
0.813027
0.823602
0.808703
0.808224
0.814994
0.70554
0.819095
0.814109
0.813012
0.640122
0.718543
0.599543
0.823266
0.530347
0.85392
0.727406
0.842808
0.812563
0.722975
0.821418
0.815904
0.742625
0.80768
0.818374
0.79441
0.816544
0.815888
0.815818
0.813027
0.807922
0.803667
0.73737
0.836209
0.820183
0.816631
0.799284
0.815422
0.802073
0.816031
0.813492
0.854708
0.817792
0.497659
0.813325
0.818808
0.818682
0.778081
0.815733
0.806726
0.818563
0.845441
0.596632
0.809168
0.799372
0.815346
0.81764
0.81771
0.812489
0.818619
0.813879
0.814605
0.803077
0.8143
0.846117
0.813961
0.792007
0.811523
0.622695
0.71867
0.813103
0.817015
0.802955
0.822316
0.735465
0.803153
0.803186
0.820222
0.637611
0.817615
0.799421
0.81544
0.864779
0.785512
0.821963
0.817996
0.822833
0.814049
0.769639
0.802435
0.813597
0.902298
0.82716
0.816449
0.832203
0.809644
0.868325
0.719265
0.691597