# vtk DataFile Version 1.0
unstructured grid
ascii
DATASET UNSTRUCTURED_GRID
points 7812 float
-1 0 0
-1 1 0
2 0 0
2 1 0
0 0 0
1 0 0
-1 1 0.1
-1 0 0.1
0 0 0.1
1 0 0.1
2 0 0.1
2 1 0.1
-0.99 0 0
-0.98 0 0
-0.97 0 0
-0.96 0 0
-0.95 0 0
-0.94 0 0
-0.93 0 0
-0.92 0 0
-0.91 0 0
-0.9 0 0
-0.89 0 0
-0.88 0 0
-0.87 0 0
-0.86 0 0
-0.85 0 0
-0.84 0 0
-0.83 0 0
-0.82 0 0
-0.81 0 0
-0.8 0 0
-0.79 0 0
-0.78 0 0
-0.77 0 0
-0.76 0 0
-0.75 0 0
-0.74 0 0
-0.73 0 0
-0.72 0 0
-0.71 0 0
-0.7 0 0
-0.69 0 0
-0.68 0 0
-0.67 0 0
-0.66 0 0
-0.65 0 0
-0.64 0 0
-0.63 0 0
-0.62 0 0
-0.61 0 0
-0.6 0 0
-0.59 0 0
-0.58 0 0
-0.57 0 0
-0.56 0 0
-0.55 0 0
-0.54 0 0
-0.53 0 0
-0.52 0 0
-0.51 0 0
-0.5 0 0
-0.49 0 0
-0.48 0 0
-0.47 0 0
-0.46 0 0
-0.45 0 0
-0.44 0 0
-0.43 0 0
-0.42 0 0
-0.41 0 0
-0.4 0 0
-0.39 0 0
-0.38 0 0
-0.37 0 0
-0.36 0 0
-0.35 0 0
-0.34 0 0
-0.33 0 0
-0.32 0 0
-0.31 0 0
-0.3 0 0
-0.29 0 0
-0.28 0 0
-0.27 0 0
-0.26 0 0
-0.25 0 0
-0.24 0 0
-0.23 0 0
-0.22 0 0
-0.21 0 0
-0.2 0 0
-0.19 0 0
-0.18 0 0
-0.17 0 0
-0.16 0 0
-0.15 0 0
-0.14 0 0
-0.13 0 0
-0.12 0 0
-0.11 0 0
-0.1 0 0
-0.09 0 0
-0.08 0 0
-0.07 0 0
-0.06 0 0
-0.05 0 0
-0.04 0 0
-0.03 0 0
-0.02 0 0
-0.01 0 0
1.01 0 0
1.02 0 0
1.03 0 0
1.04 0 0
1.05 0 0
1.06 0 0
1.07 0 0
1.08 0 0
1.09 0 0
1.1 0 0
1.11 0 0
1.12 0 0
1.13 0 0
1.14 0 0
1.15 0 0
1.16 0 0
1.17 0 0
1.18 0 0
1.19 0 0
1.2 0 0
1.21 0 0
1.22 0 0
1.23 0 0
1.24 0 0
1.25 0 0
1.26 0 0
1.27 0 0
1.28 0 0
1.29 0 0
1.3 0 0
1.31 0 0
1.32 0 0
1.33 0 0
1.34 0 0
1.35 0 0
1.36 0 0
1.37 0 0
1.38 0 0
1.39 0 0
1.4 0 0
1.41 0 0
1.42 0 0
1.43 0 0
1.44 0 0
1.45 0 0
1.46 0 0
1.47 0 0
1.48 0 0
1.49 0 0
1.5 0 0
1.51 0 0
1.52 0 0
1.53 0 0
1.54 0 0
1.55 0 0
1.56 0 0
1.57 0 0
1.58 0 0
1.59 0 0
1.6 0 0
1.61 0 0
1.62 0 0
1.63 0 0
1.64 0 0
1.65 0 0
1.66 0 0
1.67 0 0
1.68 0 0
1.69 0 0
1.7 0 0
1.71 0 0
1.72 0 0
1.73 0 0
1.74 0 0
1.75 0 0
1.76 0 0
1.77 0 0
1.78 0 0
1.79 0 0
1.8 0 0
1.81 0 0
1.82 0 0
1.83 0 0
1.84 0 0
1.85 0 0
1.86 0 0
1.87 0 0
1.88 0 0
1.89 0 0
1.9 0 0
1.91 0 0
1.92 0 0
1.93 0 0
1.94 0 0
1.95 0 0
1.96 0 0
1.97 0 0
1.98 0 0
1.99 0 0
2 0.010289 0
2 0.0215307 0
2 0.0338135 0
2 0.0472336 0
2 0.0618965 0
2 0.0779171 0
2 0.0954213 0
2 0.114546 0
2 0.135442 0
2 0.158274 0
2 0.183219 0
2 0.210474 0
2 0.240253 0
2 0.27279 0
2 0.308339 0
2 0.347181 0
2 0.389619 0
2 0.435987 0
2 0.486649 0
2 0.542002 0
2 0.602481 0
2 0.66856 0
2 0.740758 0
2 0.819642 0
2 0.90583 0
1.9 1 0
1.8 1 0
1.7 1 0
1.6 1 0
1.5 1 0
1.4 1 0
1.3 1 0
1.2 1 0
1.1 1 0
1 1 0
0.9 1 0
0.8 1 0
0.7 1 0
0.6 1 0
0.5 1 0
0.4 1 0
0.3 1 0
0.2 1 0
0.1 1 0
3.69793e-12 1 0
-0.1 1 0
-0.2 1 0
-0.3 1 0
-0.4 1 0
-0.5 1 0
-0.6 1 0
-0.7 1 0
-0.8 1 0
-0.9 1 0
-1 0.90583 0
-1 0.819642 0
-1 0.740758 0
-1 0.66856 0
-1 0.602481 0
-1 0.542002 0
-1 0.486649 0
-1 0.435987 0
-1 0.389619 0
-1 0.347181 0
-1 0.308339 0
-1 0.27279 0
-1 0.240253 0
-1 0.210474 0
-1 0.183219 0
-1 0.158274 0
-1 0.135442 0
-1 0.114546 0
-1 0.0954213 0
-1 0.0779171 0
-1 0.0618965 0
-1 0.0472336 0
-1 0.0338135 0
-1 0.0215307 0
-1 0.010289 0
0.00921362 0.00379763 0
0.0184561 0.00752451 0
0.0277268 0.0111804 0
0.0370253 0.0147652 0
0.0463511 0.0182786 0
0.0557034 0.0217203 0
0.0650819 0.0250903 0
0.074486 0.0283883 0
0.083915 0.0316141 0
0.0933685 0.0347675 0
0.102846 0.0378484 0
0.112347 0.0408565 0
0.12187 0.0437917 0
0.131416 0.0466538 0
0.140983 0.0494427 0
0.150572 0.0521581 0
0.160181 0.0547999 0
0.16981 0.0573681 0
0.179458 0.0598623 0
0.189125 0.0622825 0
0.198811 0.0646285 0
0.208514 0.0669001 0
0.218234 0.0690974 0
0.227971 0.07122 0
0.237724 0.073268 0
0.247493 0.0752411 0
0.257276 0.0771393 0
0.267073 0.0789625 0
0.276884 0.0807105 0
0.286708 0.0823832 0
0.296545 0.0839806 0
0.306394 0.0855025 0
0.316254 0.0869488 0
0.326125 0.0883196 0
0.336006 0.0896146 0
0.345896 0.0908339 0
0.355796 0.0919773 0
0.365704 0.0930447 0
0.375621 0.0940362 0
0.385544 0.0949517 0
0.395474 0.095791 0
0.40541 0.0965542 0
0.415352 0.0972412 0
0.425299 0.097852 0
0.43525 0.0983865 0
0.445205 0.0988447 0
0.455164 0.0992266 0
0.465125 0.0995321 0
0.475088 0.0997613 0
0.485052 0.0999141 0
0.495017 0.0999904 0
0.504983 0.0999904 0
0.514948 0.0999141 0
0.524912 0.0997613 0
0.534875 0.0995321 0
0.544836 0.0992266 0
0.554795 0.0988447 0
0.56475 0.0983865 0
0.574701 0.097852 0
0.584648 0.0972412 0
0.59459 0.0965542 0
0.604526 0.095791 0
0.614456 0.0949517 0
0.624379 0.0940362 0
0.634296 0.0930447 0
0.644204 0.0919773 0
0.654104 0.0908339 0
0.663994 0.0896146 0
0.673875 0.0883196 0
0.683746 0.0869488 0
0.693606 0.0855025 0
0.703455 0.0839806 0
0.713292 0.0823832 0
0.723116 0.0807105 0
0.732927 0.0789625 0
0.742724 0.0771393 0
0.752508 0.0752411 0
0.762276 0.073268 0
0.772029 0.07122 0
0.781766 0.0690974 0
0.791486 0.0669001 0
0.801189 0.0646285 0
0.810875 0.0622825 0
0.820542 0.0598623 0
0.83019 0.0573681 0
0.839819 0.0547999 0
0.849428 0.0521581 0
0.859017 0.0494427 0
0.868584 0.0466538 0
0.87813 0.0437917 0
0.887653 0.0408565 0
0.897154 0.0378484 0
0.906631 0.0347675 0
0.916085 0.0316141 0
0.925514 0.0283883 0
0.934918 0.0250903 0
0.944297 0.0217203 0
0.953649 0.0182786 0
0.962975 0.0147652 0
0.972273 0.0111804 0
0.981544 0.00752451 0
0.990786 0.00379763 0
-1 0.90583 0.1
-1 0.819642 0.1
-1 0.740758 0.1
-1 0.66856 0.1
-1 0.602481 0.1
-1 0.542002 0.1
-1 0.486649 0.1
-1 0.435987 0.1
-1 0.389619 0.1
-1 0.347181 0.1
-1 0.308339 0.1
-1 0.27279 0.1
-1 0.240253 0.1
-1 0.210474 0.1
-1 0.183219 0.1
-1 0.158274 0.1
-1 0.135442 0.1
-1 0.114546 0.1
-1 0.0954213 0.1
-1 0.0779171 0.1
-1 0.0618965 0.1
-1 0.0472336 0.1
-1 0.0338135 0.1
-1 0.0215307 0.1
-1 0.010289 0.1
-0.99 0 0.1
-0.98 0 0.1
-0.97 0 0.1
-0.96 0 0.1
-0.95 0 0.1
-0.94 0 0.1
-0.93 0 0.1
-0.92 0 0.1
-0.91 0 0.1
-0.9 0 0.1
-0.89 0 0.1
-0.88 0 0.1
-0.87 0 0.1
-0.86 0 0.1
-0.85 0 0.1
-0.84 0 0.1
-0.83 0 0.1
-0.82 0 0.1
-0.81 0 0.1
-0.8 0 0.1
-0.79 0 0.1
-0.78 0 0.1
-0.77 0 0.1
-0.76 0 0.1
-0.75 0 0.1
-0.74 0 0.1
-0.73 0 0.1
-0.72 0 0.1
-0.71 0 0.1
-0.7 0 0.1
-0.69 0 0.1
-0.68 0 0.1
-0.67 0 0.1
-0.66 0 0.1
-0.65 0 0.1
-0.64 0 0.1
-0.63 0 0.1
-0.62 0 0.1
-0.61 0 0.1
-0.6 0 0.1
-0.59 0 0.1
-0.58 0 0.1
-0.57 0 0.1
-0.56 0 0.1
-0.55 0 0.1
-0.54 0 0.1
-0.53 0 0.1
-0.52 0 0.1
-0.51 0 0.1
-0.5 0 0.1
-0.49 0 0.1
-0.48 0 0.1
-0.47 0 0.1
-0.46 0 0.1
-0.45 0 0.1
-0.44 0 0.1
-0.43 0 0.1
-0.42 0 0.1
-0.41 0 0.1
-0.4 0 0.1
-0.39 0 0.1
-0.38 0 0.1
-0.37 0 0.1
-0.36 0 0.1
-0.35 0 0.1
-0.34 0 0.1
-0.33 0 0.1
-0.32 0 0.1
-0.31 0 0.1
-0.3 0 0.1
-0.29 0 0.1
-0.28 0 0.1
-0.27 0 0.1
-0.26 0 0.1
-0.25 0 0.1
-0.24 0 0.1
-0.23 0 0.1
-0.22 0 0.1
-0.21 0 0.1
-0.2 0 0.1
-0.19 0 0.1
-0.18 0 0.1
-0.17 0 0.1
-0.16 0 0.1
-0.15 0 0.1
-0.14 0 0.1
-0.13 0 0.1
-0.12 0 0.1
-0.11 0 0.1
-0.1 0 0.1
-0.09 0 0.1
-0.08 0 0.1
-0.07 0 0.1
-0.06 0 0.1
-0.05 0 0.1
-0.04 0 0.1
-0.03 0 0.1
-0.02 0 0.1
-0.01 0 0.1
0.00921362 0.00379763 0.1
0.0184561 0.00752451 0.1
0.0277268 0.0111804 0.1
0.0370253 0.0147652 0.1
0.0463511 0.0182786 0.1
0.0557034 0.0217203 0.1
0.0650819 0.0250903 0.1
0.074486 0.0283883 0.1
0.083915 0.0316141 0.1
0.0933685 0.0347675 0.1
0.102846 0.0378484 0.1
0.112347 0.0408565 0.1
0.12187 0.0437917 0.1
0.131416 0.0466538 0.1
0.140983 0.0494427 0.1
0.150572 0.0521581 0.1
0.160181 0.0547999 0.1
0.16981 0.0573681 0.1
0.179458 0.0598623 0.1
0.189125 0.0622825 0.1
0.198811 0.0646285 0.1
0.208514 0.0669001 0.1
0.218234 0.0690974 0.1
0.227971 0.07122 0.1
0.237724 0.073268 0.1
0.247493 0.0752411 0.1
0.257276 0.0771393 0.1
0.267073 0.0789625 0.1
0.276884 0.0807105 0.1
0.286708 0.0823832 0.1
0.296545 0.0839806 0.1
0.306394 0.0855025 0.1
0.316254 0.0869488 0.1
0.326125 0.0883196 0.1
0.336006 0.0896146 0.1
0.345896 0.0908339 0.1
0.355796 0.0919773 0.1
0.365704 0.0930447 0.1
0.375621 0.0940362 0.1
0.385544 0.0949517 0.1
0.395474 0.095791 0.1
0.40541 0.0965542 0.1
0.415352 0.0972412 0.1
0.425299 0.097852 0.1
0.43525 0.0983865 0.1
0.445205 0.0988447 0.1
0.455164 0.0992266 0.1
0.465125 0.0995321 0.1
0.475088 0.0997613 0.1
0.485052 0.0999141 0.1
0.495017 0.0999904 0.1
0.504983 0.0999904 0.1
0.514948 0.0999141 0.1
0.524912 0.0997613 0.1
0.534875 0.0995321 0.1
0.544836 0.0992266 0.1
0.554795 0.0988447 0.1
0.56475 0.0983865 0.1
0.574701 0.097852 0.1
0.584648 0.0972412 0.1
0.59459 0.0965542 0.1
0.604526 0.095791 0.1
0.614456 0.0949517 0.1
0.624379 0.0940362 0.1
0.634296 0.0930447 0.1
0.644204 0.0919773 0.1
0.654104 0.0908339 0.1
0.663994 0.0896146 0.1
0.673875 0.0883196 0.1
0.683746 0.0869488 0.1
0.693606 0.0855025 0.1
0.703455 0.0839806 0.1
0.713292 0.0823832 0.1
0.723116 0.0807105 0.1
0.732927 0.0789625 0.1
0.742724 0.0771393 0.1
0.752508 0.0752411 0.1
0.762276 0.073268 0.1
0.772029 0.07122 0.1
0.781766 0.0690974 0.1
0.791486 0.0669001 0.1
0.801189 0.0646285 0.1
0.810875 0.0622825 0.1
0.820542 0.0598623 0.1
0.83019 0.0573681 0.1
0.839819 0.0547999 0.1
0.849428 0.0521581 0.1
0.859017 0.0494427 0.1
0.868584 0.0466538 0.1
0.87813 0.0437917 0.1
0.887653 0.0408565 0.1
0.897154 0.0378484 0.1
0.906631 0.0347675 0.1
0.916085 0.0316141 0.1
0.925514 0.0283883 0.1
0.934918 0.0250903 0.1
0.944297 0.0217203 0.1
0.953649 0.0182786 0.1
0.962975 0.0147652 0.1
0.972273 0.0111804 0.1
0.981544 0.00752451 0.1
0.990786 0.00379763 0.1
1.01 0 0.1
1.02 0 0.1
1.03 0 0.1
1.04 0 0.1
1.05 0 0.1
1.06 0 0.1
1.07 0 0.1
1.08 0 0.1
1.09 0 0.1
1.1 0 0.1
1.11 0 0.1
1.12 0 0.1
1.13 0 0.1
1.14 0 0.1
1.15 0 0.1
1.16 0 0.1
1.17 0 0.1
1.18 0 0.1
1.19 0 0.1
1.2 0 0.1
1.21 0 0.1
1.22 0 0.1
1.23 0 0.1
1.24 0 0.1
1.25 0 0.1
1.26 0 0.1
1.27 0 0.1
1.28 0 0.1
1.29 0 0.1
1.3 0 0.1
1.31 0 0.1
1.32 0 0.1
1.33 0 0.1
1.34 0 0.1
1.35 0 0.1
1.36 0 0.1
1.37 0 0.1
1.38 0 0.1
1.39 0 0.1
1.4 0 0.1
1.41 0 0.1
1.42 0 0.1
1.43 0 0.1
1.44 0 0.1
1.45 0 0.1
1.46 0 0.1
1.47 0 0.1
1.48 0 0.1
1.49 0 0.1
1.5 0 0.1
1.51 0 0.1
1.52 0 0.1
1.53 0 0.1
1.54 0 0.1
1.55 0 0.1
1.56 0 0.1
1.57 0 0.1
1.58 0 0.1
1.59 0 0.1
1.6 0 0.1
1.61 0 0.1
1.62 0 0.1
1.63 0 0.1
1.64 0 0.1
1.65 0 0.1
1.66 0 0.1
1.67 0 0.1
1.68 0 0.1
1.69 0 0.1
1.7 0 0.1
1.71 0 0.1
1.72 0 0.1
1.73 0 0.1
1.74 0 0.1
1.75 0 0.1
1.76 0 0.1
1.77 0 0.1
1.78 0 0.1
1.79 0 0.1
1.8 0 0.1
1.81 0 0.1
1.82 0 0.1
1.83 0 0.1
1.84 0 0.1
1.85 0 0.1
1.86 0 0.1
1.87 0 0.1
1.88 0 0.1
[...]
CELL_DATA 7425
SCALARS rho float
LOOKUP_TABLE default
0.601112
0.80584
0.823613
0.830782
0.801866
0.823027
0.823735
0.819293
0.818929
0.74327
0.864891
0.811401
0.819175
0.830638
0.806055
0.821556
0.800884
0.818954
0.80411
0.770219
0.834374
0.823092
0.729796
0.831355
0.804564
0.71486
0.834222
0.851878
0.801085
0.809687
0.822273
0.72338
0.804271
0.663279
0.550792
0.831323
0.804121
0.819289
0.812477
0.831
0.725745
0.717918
0.793211
0.683995
0.603567
0.75209
0.803066
0.819137
0.689919
0.717938
0.747012
0.805965
0.813395
0.801285
0.702732
0.671396
0.826624
0.801689
0.743167
0.707565
0.723412
0.808569
0.818949
0.801478
0.799734
0.821914
0.59787
0.777031
0.671049
0.809658
0.806151
0.803542
0.884316
0.822181
0.811885
0.818974
0.805868
0.801302
0.818932
0.758691
0.820615
0.808158
0.815729
0.79054
0.838053
0.803291
0.587668
0.832795
0.563785
0.850649
0.687346
0.7346
0.848728
0.803761
0.821732
0.764782
0.83803
0.789947
0.829114
0.804962
0.812463
0.739191
0.803894
0.831253
0.608817
0.812381
0.827684
0.715837
0.819879
0.801516
0.821086
0.786733
0.79147
0.813364
0.792964
0.788371
0.834257
0.803418
0.689422
0.681744
0.805861
0.780862
0.818933
0.792177
0.860799
0.841856
0.808645
0.807279
0.669668
0.53558
0.819399
0.666235
0.54464
0.87189
0.691036
0.801968
0.812167
0.729757
0.595477
0.73438
0.732527
0.811698
0.815277
0.699474
0.805085
0.781594
0.578242
0.793032
0.783614
0.831098
0.819638
0.687307
0.805231
0.74532
0.700075
0.803948
0.811781
0.833563
0.800802
0.67276
0.803648
0.685072
0.803325
0.83294
0.824384
0.802902
0.818935
0.788209
0.807298
0.803004
0.823749
0.807026
0.795608
0.801466
0.801565
0.74814
0.806059
0.765217
0.613363
0.681517
0.801948
0.796484
0.880803
0.834597
0.681546
0.826635
0.800916
0.829815
0.802075
0.81891
0.818822
0.8038
0.807963
0.69984
0.819875
0.823151
0.77303
0.800805
0.86455
0.808815
0.813624
0.817093
0.623633
0.841887
0.586516
0.56031
0.60719
0.631405
0.830201
0.880377
0.80843
0.799608
0.843283
0.81902
0.82104
0.824664
0.820006
0.646194
0.644809
0.819098
0.567646
0.611311
0.695558
0.816283
0.819121
0.818975
0.836034
0.819175
0.868177
0.701901
0.837059
0.726051
0.806228
0.804607
0.802848
0.72068
0.730411
0.628145
0.691557
0.865317
0.8799
0.810943
0.808632
0.802729
0.813506
0.727929
0.825443
0.802721
0.829084
0.796109
0.8156
0.71985
0.81903
0.827371
0.74823
0.547137
0.801694
0.737027
0.845165
0.819297
0.724697
0.820251
0.819771
0.851647
0.8148
0.806737
0.80379
0.829136
0.862563
0.808024
0.627644
0.851021
0.814954
0.806468
0.830822
0.839526
0.818623
0.825044
0.795094
0.819934
0.870694
0.85166
0.829391
0.839533
0.80374
0.821564
0.803541
0.760682
0.713111
0.59416
0.688501
0.806215
0.818866
0.82062
0.858297
0.781985
0.653827
0.83046
0.552168
0.777917
0.803184
0.654549
0.674372
0.647191
0.820026
0.818941
0.819017
0.818005
0.830117
0.776354
0.812429
0.803427
0.819181
0.843298
0.871412
0.836416
0.804057
0.685282
0.799265
0.836464
0.698777
0.800989
0.802795
0.866294
0.821519
0.603968
0.818895
0.748872
0.855827
0.739065
0.815543
0.908058
0.802342
0.797636
0.667479
0.644187
0.704852
0.78546
0.829896
0.819819
0.819082
0.887243
0.8612
0.80197
0.802135
0.827034
0.74613
0.803799
0.880581
0.801976
0.807501
0.803053
0.80307
0.818573
0.820411
0.820896
0.649474
0.832045
0.667048
0.81014
0.652459
0.80639
0.802886
0.842057
0.738596
0.817313
0.81294
0.821386
0.801478
0.802973
0.812329
0.713457
0.825483
0.818929
0.818537
0.801376
0.738766
0.572731
0.80732
0.816847
0.803697
0.819105
0.796869
0.665107
0.848162
0.81886
0.804519
0.789124
0.818949
0.806611
0.805029
0.820817
0.808421
0.826221
0.772283
0.81541
0.808789
0.57575
0.805672
0.648195
0.840722
0.644898
0.819466
0.879145
0.621502
0.81982
0.753965
0.805268
0.874496
0.562242
0.826737
0.826025
0.804151
0.829209
0.812881
0.827111
0.833771
0.82828
0.747829
0.830859
0.76232
0.812254
0.795721
0.797006
0.763145
0.806577
0.80255
0.818632
0.759462
0.806433
0.61577
0.62513
0.70348
0.81848
0.84652
0.866503
0.832764
0.800922
0.818843
0.806736
0.821998
0.687893
0.803
0.74785
0.826405
0.819377
0.808288
0.70376
0.733434
0.55386
0.615426
0.80344
0.620832
0.796587
0.766826
0.773608
0.72468
0.766949
0.77228
0.81488
0.819836
0.823605
0.817372
0.721574
0.633773
0.84159
0.811229
0.785335
0.812643
0.803971
0.839362
0.73079
0.857277
0.765312
0.739293
0.769701
0.816204
0.564496
0.801075
0.844169
0.815349
0.819128
0.815003
0.801642
0.785211
0.837927
0.803615
0.845468
0.724998
0.700943
0.801817
0.798547
0.82576
0.71715
0.850235
0.803046
0.820577
0.800879
0.781542
0.810978
0.60562
0.684848
0.640796
0.818146
0.806653
0.829678
0.753588
0.81154
0.819745
0.824319
0.801329
0.739291
0.801226
0.817082
0.803679
0.718545
0.819025
0.822787
0.841843
0.81664
0.828843
0.863703
0.858909
0.750706
0.614218
0.840044
0.807774
0.845261
0.819357
0.824801
0.819013
0.819136
0.682841
0.808124
0.813099
0.81907
0.795114
0.813362
0.807203
0.864233
0.800994
0.818995
0.819667
0.87334
0.608425
0.818939
0.845398
0.884249
0.549533
0.820927
0.831986
0.797476
0.81573
0.798304
0.869127
0.815273
0.834446
0.815553
0.629276
0.803192
0.804927
0.705349
0.854783
0.760094
0.803081
0.819141
0.818509
0.863357
0.796697
0.836037
0.837614
0.788978
0.827017
0.845105
0.80213
0.813103
0.809569
0.806173
0.818918
0.803114
0.84747
0.770802
0.810655
0.804073
0.818125
0.730348
0.819055
0.822573
0.756882
0.819018
0.819672
0.830097
0.82858
0.80296
0.802327
0.852201
0.768678
0.82803
0.846525
0.805382
0.537107
0.818832
0.831574
0.854032
0.817278
0.803486
0.809972
0.856725
0.781114
0.803336
0.803281
0.819073
0.738264
0.804609
0.83179
0.810988
0.79643
0.797949
0.845676
0.807493
0.847136
0.802499
0.827845
0.818129
0.804957
0.843768
0.818795
0.691713
0.822943
0.808009
0.818201
0.906571
0.802333
0.819525
0.801844
0.802102
0.820781
0.802201
0.80416
0.784362
0.74792
0.811209
0.819075
0.762503
0.795738
0.826643
0.813966
0.826027
0.808032
0.829247
0.876437
0.833785
0.608297
0.71436
0.843342
0.821671
0.846423
0.819539
0.852056
0.809959
0.815222
0.80151
0.84098
0.86271
0.854865
0.738588
0.819292
0.825751
0.743703
0.8198
0.777635
0.801705
0.739552
0.820668
0.833995
0.824506
0.865732
0.819236
0.818954
0.815173
0.819482
0.838221
0.813204
0.800809
0.81118
0.744493
0.817309
0.775125
0.835512
0.815416
0.647015
0.779942
0.813555
0.801309
0.823865
0.804974
0.819517
0.821682
0.806399
0.823388
0.804926
0.808616
0.618459
0.849363
0.828601
0.830112
0.817491
0.803879
0.70793
0.809528
0.908252
0.81863
0.803698
0.818286
0.784537
0.810071
0.818373
0.825159
0.815671
0.818931
0.820826
0.674431
0.782166
0.76981
0.818462
0.807128
0.803675
0.631332
0.80845
0.804981
0.716259
0.839288
0.82158
0.804056
0.809887
0.801188
0.821512
0.816962
0.818958
0.81911
0.715196
0.834379
0.801507
0.810199
0.844993
0.820092
0.820787
0.802267
0.754723
0.827158
0.791653
0.825239
0.791241
0.808548
0.824866
0.739713
0.821088
0.675635
0.873447
0.710989
0.847399
0.805196
0.87629
0.79545
0.802981
0.824615
0.83833
0.839981
0.828636
0.823865
0.819263
0.805053
0.805303
0.809771
0.737254
0.828898
0.800941
0.718486
0.83324
0.679045
0.802567
0.864092
0.806528
0.716758
0.799259
0.819293
0.696735
0.786397
0.823397
0.834327
0.811808
0.660258
0.73945
0.813435
0.80404
0.819091
0.802822
0.742114
0.819079
0.820418
0.818624
0.778967
0.803794
0.805379
0.80646
0.573339
0.818941
0.835673
0.599914
0.820005
0.82072
0.819658
0.822585
0.819427
0.828073
0.801586
0.79636
0.771565
0.824539
0.831224
0.826705
0.838091
0.769692
0.814308
0.735839
0.774316
0.811342
0.824972
0.818875
0.801714
0.861674
0.819071
0.804664
0.815051
0.820585
0.820005
0.839427
0.819534
0.818791
0.812919
0.819127
0.802845
0.824833
0.804606
0.826557
0.818997
0.595334
0.819014
0.837381
0.861443
0.839942
0.593952
0.82126
0.807672
0.529536
0.683392
0.669128
0.83687
0.81099
0.812584
0.818541
0.803488
0.821225
0.812739
0.554633
0.700721
0.819754
0.807522
0.820272
0.804139
0.811409
0.816725
0.823987
0.801291
0.70786
0.859602
0.80345
0.815761
0.818894
0.76184
0.605657
0.835895
0.815424
0.741639
0.803036
0.809283
0.617953
0.829357
0.819507
0.831059
0.82295
0.828849
0.805538
0.73194
0.651688
0.575049
0.828831
0.811395
0.783954
0.818929
0.784191
0.822186
0.874484
0.766295
0.825452
0.818557
0.829238
0.884647
0.819425
0.817372
0.804293
0.814802
0.702322
0.831509
0.801706
0.813118
0.803089
0.786134
0.856203
0.825768
0.842436
0.825369
0.757701
0.759348
0.806007
0.822132
0.803435
0.806083
0.803688
0.780295
0.819552
0.766431
0.823775
0.669679
0.819097
0.803979
0.734293
0.825609
0.821473
0.744626
0.802149
0.761725
0.885301
0.801428
0.819105
0.76719
0.802713
0.819382
0.804676
0.60221
0.822866
0.801815
0.805735
0.819547
0.828861
0.762392
0.808114
0.844665
0.829645
0.815754
0.838681
0.673007
0.70629
0.819092
0.748696
0.826001
0.775073
0.81908
0.803239
0.813438
0.75632
0.795526
0.769113
0.814884
0.803442
0.63951
0.780734
0.800111
0.852346
0.819446
0.831925
0.552024
0.826347
0.787125
0.860603
0.801714
0.819769
0.80288
0.789463
0.800946
0.828879
0.837825
0.823664
0.821382
0.701654
0.778221
0.819319
0.806208
0.815937
0.804649
0.695773
0.796182
0.805237
0.813258
0.829306
0.852878
0.834923
0.818994
0.801795
0.806396
0.803887
0.782254
0.622332
0.804567
0.739312
0.670504
0.826274
0.800886
0.777927
0.802186
0.758388
0.787114
0.817723
0.824259
0.80684
0.820495
0.820654
0.823098
0.818974
0.811569
0.71757
0.705784
0.648922
0.832507
0.87102
0.817927
0.843283
0.849993
0.865135
0.745065
0.820204
0.864566
0.813916
0.819189
0.819379
0.739353
0.81707
0.809479
0.808875
0.542484
0.818997
0.765143
0.818818
0.814796
0.804148
0.698979
0.818822
0.621145
0.826885
0.804357
0.824618
0.857159
0.804079
0.796723
0.824838
0.816788
0.8073
0.766068
0.543922
0.82473
0.804017
0.831893
0.829196
0.806546
0.807937
0.836918
0.727981
0.57197
0.887201
0.804315
0.820399
0.80512
0.704795
0.800846
0.802298
0.819933
0.745268
0.654507
0.884179
0.720618
0.839345
0.817445
0.835886
0.845124
0.796557
0.805518
0.818865
0.854437
0.743001
0.871909
0.819238
0.575888
0.805099
0.748628
0.854987
0.765585
0.80499
0.804659
0.801681
0.802666
0.814174
0.819148
0.858515
0.808553
0.803173
0.801893
0.802109
0.818521
0.821336
0.802984
0.818777
0.851439
0.803361
0.787147
0.802746
0.8423
0.736387
0.819046
0.818994
0.686132
0.719606
0.806663
0.826506
0.806502
0.541382
0.859842
0.818297
0.835737
0.806134
0.803819
0.802257
0.790221
0.597426
0.805368
0.820715
0.837513
0.824519
0.819051
0.80254
0.754068
0.802626
0.77159
0.789426
0.801563
0.792554
0.751631
0.802862
0.813884
0.815711
0.834563
0.852175
0.571927
0.844453
0.819168
0.821798
0.804017
0.823685
0.817377
0.895365
0.803193
0.871123
0.806716
0.765057
0.863545
0.803123
0.801026
0.827527
0.668426
0.653466
0.803989
0.804627
0.673905
0.66222
0.800673
0.82742
0.818981
0.826329
0.740217
0.820148
0.818648
0.82958
0.820635
0.812903
0.81919
0.758914
0.806401
0.82026
0.817633
0.683152
0.580217
0.819229
0.657764
0.727077
0.569805
0.843908
0.802278
0.561539
0.611617
0.829863
0.908486
0.822367
0.660457
0.819233
0.790101
0.803773
0.788252
0.823465
0.814025
0.790144
0.824737
0.805221
0.601613
0.822092
0.771106
0.820372
0.693503
0.825962
0.793441
0.819115
0.802474
0.670679
0.845407
0.809512
0.80928
0.542359
0.821281
0.802394
0.855579
0.707277
0.821499
0.622381
0.731281
0.803386
0.800088
0.742557
0.723786
0.710999
0.549187
0.643136
0.802517
0.555033
0.826341
0.609463
0.761374
0.685437
0.643608
0.571916
0.750008
0.803457
0.7092
0.825166
0.802401
0.804741
0.765293
0.890564
0.801386
0.828011
0.804202
0.819018
0.711972
0.80998
0.741611
0.825717
0.887037
0.836151
0.752843
0.826453
0.774634
0.880894
0.804937
0.762745
0.852854
0.780826
0.8007
0.80807
0.76237
0.752757
0.692113
0.80578
0.803447
0.821932
0.836389
0.620672
0.810676
0.561766
0.675878
0.642842
0.821184
0.824899
0.814155
0.804726
0.625107
0.873625
0.80302
0.803229
0.865218
0.818738
0.775495
0.818466
0.802814
0.82219
0.803389
0.722643
0.805305
0.675941
0.801083
0.807829
0.802353
0.647082
0.814704
0.813174
0.727628
0.820285
0.567781
0.590152
0.805005
0.702882
0.731016
0.584673
0.731678
0.819028
0.695262
0.775884
0.712514
0.815431
0.677805
0.766168
0.808114
0.815454
0.666814
0.802628
0.8959
0.798152
0.821271
0.60915
0.700898
0.805244
0.819061
0.81913
0.853463
0.81838
0.805289
0.80462
0.803925
0.720668
0.714389
0.626567
0.776191
0.574118
0.721158
0.815062
0.819298
0.808666
0.801662
0.662313
0.814077
0.804484
0.573082
0.56946
0.751088
0.804292
0.809987
0.565542
0.799774
0.584114
0.732681
0.619324
0.815252
0.804225
0.609501
0.618979
0.869377
0.811879
0.769422
0.726048
0.642881
0.663131
0.700424
0.820404
0.763803
0.765849
0.634241
0.758825
0.81419
0.820091
0.818642
0.82023
0.869221
0.760107
0.822994
0.804419
0.853211
0.81917
0.80326
0.818816
0.719
0.817248
0.816399
0.819597
0.815683
0.820232
0.803787
0.822077
0.815026
0.814498
0.821475
0.80096
0.820865
0.823073
0.675082
0.822764
0.86993
0.822367
0.794448
0.654186
0.860431
0.82295
0.828428
0.80181
0.817467
0.758038
0.854636
0.615931
0.737425
0.810832
0.820366
0.804639
0.803943
0.835099
0.807322
0.807052
0.820074
0.784142
0.841247
0.844354
0.818642
0.672016
0.648549
0.820433
0.820944
0.792864
0.851831
0.84932
0.813602
0.817996
0.781786
0.819032
0.822032
0.81911
0.82293
0.815705
0.820491
0.853176
0.820608
0.818989
0.821895
0.822009
0.787052
0.81855
0.806521
0.80696
0.806884
0.822756
0.81761
0.792013
0.754223
0.818195
0.807163
0.813928
0.807278
0.859337
0.805415
0.818885
0.818662
0.807228
0.668746
0.804652
0.81876
0.817599
0.811341
0.818848
0.818811
0.818877
0.81113
0.865782
0.538979
0.818916
0.844025
0.818563
0.803874
0.809874
0.819884
0.842307
0.802729
0.803922
0.815276
0.675737
0.818972
0.810377
0.809988
0.81822
0.818802
0.818844
0.81896
0.545812
0.813348
0.728365
0.886772
0.824668
0.732097
0.695396
0.820145
0.805371
0.820915
0.654696
0.802959
0.818956
0.655993
0.802151
0.805143
0.818196
0.80908
0.858666
0.810783
0.61759
0.802651
0.776074
0.812251
0.889962
0.806542
0.816484
0.821247
0.834332
0.818972
0.826156
0.838999
0.64398
0.806197
0.663715
0.819078
0.819017
0.706968
0.818947
0.808753
0.708909
0.818646
0.712968
0.862845
0.785678
0.819407
0.819015
0.818888
0.678598
0.819062
0.641239
0.801937
0.794006
0.82596
0.820013
0.72323
0.767656
0.833215
0.818347
0.823737
0.825697
0.81898
0.828829
0.801553
0.566326
0.75512
0.764301
0.729549
0.840349
0.825153
0.836076
0.781193
0.803394
0.818982
0.819053
0.81903
0.777744
0.577067
0.803753
0.563116
0.811378
0.827035
0.801938
0.80446
0.815799
0.807076
0.786664
0.735771
0.818959
0.860735
0.81691
0.801302
0.736008
0.811788
0.790583
0.835826
0.605937
0.797247
0.810374
0.801037
0.69798
0.818635
0.814582
0.860365
0.581597
0.80837
0.803771
0.818286
0.634814
0.818892
0.803823
0.803965
0.80363
0.818923
0.818947
0.820533
0.818967
0.712844
0.805359
0.803673
0.819012
0.896847
0.818907
0.778073
0.843285
0.800048
0.803513
0.612222
0.818972
0.803885
0.828384
0.803365
0.86782
0.818126
0.856264
0.802659
0.824505
0.780509
0.573682
0.758632
0.798176
0.80834
0.81486
0.818999
0.570441
0.863212
0.86117
0.773582
0.759585
0.738592
0.8149
0.850899
0.818972
0.815604
0.819003
0.805035
0.725766
0.804202
0.80118
0.764819
0.827759
0.826684
0.863249
0.820181
0.819041
0.662445
0.809809
0.81901
0.802579
0.777688
0.819029
0.80348
0.818412
0.830262
0.799761
0.80544
0.802728
0.81874
0.841678
0.804725
0.801078
0.804064
0.766618
0.823865
0.581091
0.869645
0.804437
0.561587
0.805289
0.806301
0.821956
0.64564
0.617549
0.803533
0.806137
0.802976
0.862186
0.781469
0.818492
0.80362
0.869612
0.805502
0.805205
0.828736
0.81984
0.822717
0.825033
0.824186
0.868759
0.734454
0.85387
0.821471
0.661825
0.80442
0.803916
0.8044
0.824976
0.827046
0.805763
0.803131
0.802133
0.826382
0.804969
0.804386
0.80184
0.82794
0.804687
0.803126
0.806956
0.831051
0.803077
0.803503
0.827168
0.801479
0.820142
0.659566
0.829788
0.85175
0.806532
0.823616
0.804
0.831982
0.840213
0.803954
0.825259
0.802124
0.809412
0.790908
0.803217
0.804952
0.80722
0.80762
0.806805
0.822619
0.819688
0.812339
0.83447
0.804584
0.80295
0.802002
0.790161
0.836574
0.803947
0.823364
0.820003
0.808677
0.807113
0.803284
0.841401
0.868449
0.80175
0.685812
0.802583
0.844642
0.82105
0.807709
0.805213
0.821372
0.846783
0.646145
0.831526
0.798318
0.853765
0.822817
0.813258
0.814925
0.8106
0.804671
0.814189
0.809977
0.602118
0.85022
0.796067
0.819325
0.856566
0.823352
0.767151
0.810311
0.819492
0.819708
0.803872
0.669731
0.811832
0.864826
0.805682
0.802224
0.780076
0.872454
0.801769
0.8782
0.809572
0.821503
0.824523
0.804866
0.805671
0.818436
0.820487
0.806014
0.818764
0.819167
0.882416
0.822258
0.810242
0.802568
0.831202
0.811463
0.841624
0.810706
0.807842
0.814763
0.821043
0.832462
0.818842
0.825917
0.834327
0.816729
0.712961
0.699875
0.818799
0.822027
0.806448
0.818586
0.574983
0.856481
0.801591
0.807088
0.818726
0.81877
0.804804
0.818045
0.802489
0.802859
0.81022
0.817812
0.762697
0.787989
0.82658
0.845607
0.836604
0.802403
0.808898
0.803922
0.813928
0.807488
0.801655
0.801728
0.802483
0.813614
0.799165
0.805217
0.838311
0.834015
0.739068
0.677501
0.808712
0.714211
0.801859
0.620457
0.805338
0.808565
0.805371
0.822382
0.836458
0.81917
0.818842
0.811308
0.804871
0.882621
0.820815
0.807444
0.775231
0.625487
0.811187
0.80913
0.772688
0.819437
0.819153
0.793109
0.801921
0.804862
0.66961
0.832754
0.804114
0.786204
0.78194
0.854505
0.810905
0.805317
0.805209
0.812705
0.812214
0.556313
0.803286
0.842121
0.81918
0.799959
0.605945
0.816529
0.819232
0.819131
0.836644
0.819148
0.805071
0.825673
0.807701
0.588017
0.809901
0.744291
0.79982
0.819039
0.726547
0.819806
0.848994
0.833107
0.672316
0.89168
0.787665
0.782081
0.798138
0.781004
0.810547
0.853022
0.810385
0.803922
0.819005
0.813839
0.784955
0.787999
0.818952
0.810854
0.836331
0.824791
0.83725
0.805272
0.802037
0.818996
0.858524
0.819889
0.820553
0.818944
0.617487
0.796999
0.827123
0.831561
0.867487
0.818758
0.820887
0.551283
0.814851
0.802561
0.818015
0.817489
0.849651
0.818868
0.812034
0.882498
0.768887
0.814009
0.818796
0.813867
0.806221
0.819319
0.663758
0.801682
0.85171
0.835027
0.812984
0.817733
0.818938
0.810487
0.711129
0.816764
0.802588
0.841234
0.822534
0.814308
0.833874
0.796794
0.815927
0.821927
0.811476
0.823339
0.751721
0.857613
0.823047
0.816372
0.818902
0.818631
0.820017
0.821326
0.818729
0.815284
0.843472
0.822712
0.802395
0.826854
0.829879
0.818571
0.816032
0.802473
0.802954
0.81897
0.823123
0.831003
0.818823
0.820689
0.802216
0.814564
0.818899
0.818614
0.803199
0.819625
0.818836
0.804411
0.818959
0.83835
0.801059
0.814154
0.824147
0.577695
0.819239
0.822325
0.81927
0.81938
0.825651
0.831648
0.820163
0.822957
0.707726
0.81899
0.802929
0.820303
0.821425
0.836606
0.825366
0.818083
0.832559
0.828444
0.816464
0.820108
0.822169
0.808447
0.818951
0.820291
0.821133
0.835128
0.818317
0.820355
0.803215
0.81905
0.81883
0.569969
0.644761
0.815318
0.825262
0.803696
0.8259
0.820529
0.843663
0.714041
0.819068
0.737821
0.820515
0.815123
0.818919
0.832005
0.819017
0.807652
0.819006
0.832526
0.842252
0.818421
0.724721
0.820737
0.820515
0.801811
0.803382
0.820078
0.857698
0.818521
0.818958
0.851727
0.831393
0.845119
0.605725
0.832215
0.819136
0.815593
0.821736
0.853641
0.822039
0.72368
0.801664
0.833264
0.802242
0.801739
0.806977
0.752257
0.818958
0.819252
0.73345
0.8192
0.828887
0.818786
0.818933
0.801419
0.82249
0.819051
0.826089
0.809628
0.811981
0.819276
0.68493
0.823161
0.819034
0.819089
0.653347
0.714529
0.609959
0.824869
0.604869
0.85703
0.732332
0.844566
0.818151
0.734762
0.823814
0.820232
0.747133
0.809197
0.822542
0.795259
0.820805
0.820487
0.820417
0.819026
0.812831
0.804297
0.742009
0.83888
0.823914
0.820932
0.801116
0.816955
0.804741
0.820602
0.818785
0.857515
0.82193
0.640708
0.817629
0.822901
0.822807
0.780276
0.817239
0.807611
0.819998
0.848381
0.608812
0.811591
0.801608
0.820054
0.821862
0.821891
0.818217
0.822745
0.818249
0.819088
0.803689
0.818726
0.848444
0.818779
0.793268
0.816655
0.632596
0.716564
0.81898
0.821359
0.804131
0.826035
0.735315
0.803449
0.803408
0.824161
0.672972
0.821894
0.801707
0.820155
0.868455
0.787424
0.825713
0.822217
0.825371
0.819205
0.772614
0.803124
0.818901
0.902812
0.828748
0.820937
0.833686
0.815204
0.872172
0.716092
0.679675
0.854927
0.803208
0.675321
0.852824
0.787945
0.83355
0.723412