# vtk DataFile Version 1.0
unstructured grid
ascii
DATASET UNSTRUCTURED_GRID
points 7812 float
-1 0 0
-1 1 0
2 0 0
2 1 0
0 0 0
1 0 0
-1 1 0.1
-1 0 0.1
0 0 0.1
1 0 0.1
2 0 0.1
2 1 0.1
-0.99 0 0
-0.98 0 0
-0.97 0 0
-0.96 0 0
-0.95 0 0
-0.94 0 0
-0.93 0 0
-0.92 0 0
-0.91 0 0
-0.9 0 0
-0.89 0 0
-0.88 0 0
-0.87 0 0
-0.86 0 0
-0.85 0 0
-0.84 0 0
-0.83 0 0
-0.82 0 0
-0.81 0 0
-0.8 0 0
-0.79 0 0
-0.78 0 0
-0.77 0 0
-0.76 0 0
-0.75 0 0
-0.74 0 0
-0.73 0 0
-0.72 0 0
-0.71 0 0
-0.7 0 0
-0.69 0 0
-0.68 0 0
-0.67 0 0
-0.66 0 0
-0.65 0 0
-0.64 0 0
-0.63 0 0
-0.62 0 0
-0.61 0 0
-0.6 0 0
-0.59 0 0
-0.58 0 0
-0.57 0 0
-0.56 0 0
-0.55 0 0
-0.54 0 0
-0.53 0 0
-0.52 0 0
-0.51 0 0
-0.5 0 0
-0.49 0 0
-0.48 0 0
-0.47 0 0
-0.46 0 0
-0.45 0 0
-0.44 0 0
-0.43 0 0
-0.42 0 0
-0.41 0 0
-0.4 0 0
-0.39 0 0
-0.38 0 0
-0.37 0 0
-0.36 0 0
-0.35 0 0
-0.34 0 0
-0.33 0 0
-0.32 0 0
-0.31 0 0
-0.3 0 0
-0.29 0 0
-0.28 0 0
-0.27 0 0
-0.26 0 0
-0.25 0 0
-0.24 0 0
-0.23 0 0
-0.22 0 0
-0.21 0 0
-0.2 0 0
-0.19 0 0
-0.18 0 0
-0.17 0 0
-0.16 0 0
-0.15 0 0
-0.14 0 0
-0.13 0 0
-0.12 0 0
-0.11 0 0
-0.1 0 0
-0.09 0 0
-0.08 0 0
-0.07 0 0
-0.06 0 0
-0.05 0 0
-0.04 0 0
-0.03 0 0
-0.02 0 0
-0.01 0 0
1.01 0 0
1.02 0 0
1.03 0 0
1.04 0 0
1.05 0 0
1.06 0 0
1.07 0 0
1.08 0 0
1.09 0 0
1.1 0 0
1.11 0 0
1.12 0 0
1.13 0 0
1.14 0 0
1.15 0 0
1.16 0 0
1.17 0 0
1.18 0 0
1.19 0 0
1.2 0 0
1.21 0 0
1.22 0 0
1.23 0 0
1.24 0 0
1.25 0 0
1.26 0 0
1.27 0 0
1.28 0 0
1.29 0 0
1.3 0 0
1.31 0 0
1.32 0 0
1.33 0 0
1.34 0 0
1.35 0 0
1.36 0 0
1.37 0 0
1.38 0 0
1.39 0 0
1.4 0 0
1.41 0 0
1.42 0 0
1.43 0 0
1.44 0 0
1.45 0 0
1.46 0 0
1.47 0 0
1.48 0 0
1.49 0 0
1.5 0 0
1.51 0 0
1.52 0 0
1.53 0 0
1.54 0 0
1.55 0 0
1.56 0 0
1.57 0 0
1.58 0 0
1.59 0 0
1.6 0 0
1.61 0 0
1.62 0 0
1.63 0 0
1.64 0 0
1.65 0 0
1.66 0 0
1.67 0 0
1.68 0 0
1.69 0 0
1.7 0 0
1.71 0 0
1.72 0 0
1.73 0 0
1.74 0 0
1.75 0 0
1.76 0 0
1.77 0 0
1.78 0 0
1.79 0 0
1.8 0 0
1.81 0 0
1.82 0 0
1.83 0 0
1.84 0 0
1.85 0 0
1.86 0 0
1.87 0 0
1.88 0 0
1.89 0 0
1.9 0 0
1.91 0 0
1.92 0 0
1.93 0 0
1.94 0 0
1.95 0 0
1.96 0 0
1.97 0 0
1.98 0 0
1.99 0 0
2 0.010289 0
2 0.0215307 0
2 0.0338135 0
2 0.0472336 0
2 0.0618965 0
2 0.0779171 0
2 0.0954213 0
2 0.114546 0
2 0.135442 0
2 0.158274 0
2 0.183219 0
2 0.210474 0
2 0.240253 0
2 0.27279 0
2 0.308339 0
2 0.347181 0
2 0.389619 0
2 0.435987 0
2 0.486649 0
2 0.542002 0
2 0.602481 0
2 0.66856 0
2 0.740758 0
2 0.819642 0
2 0.90583 0
1.9 1 0
1.8 1 0
1.7 1 0
1.6 1 0
1.5 1 0
1.4 1 0
1.3 1 0
1.2 1 0
1.1 1 0
1 1 0
0.9 1 0
0.8 1 0
0.7 1 0
0.6 1 0
0.5 1 0
0.4 1 0
0.3 1 0
0.2 1 0
0.1 1 0
3.69793e-12 1 0
-0.1 1 0
-0.2 1 0
-0.3 1 0
-0.4 1 0
-0.5 1 0
-0.6 1 0
-0.7 1 0
-0.8 1 0
-0.9 1 0
-1 0.90583 0
-1 0.819642 0
-1 0.740758 0
-1 0.66856 0
-1 0.602481 0
-1 0.542002 0
-1 0.486649 0
-1 0.435987 0
-1 0.389619 0
-1 0.347181 0
-1 0.308339 0
-1 0.27279 0
-1 0.240253 0
-1 0.210474 0
-1 0.183219 0
-1 0.158274 0
-1 0.135442 0
-1 0.114546 0
-1 0.0954213 0
-1 0.0779171 0
-1 0.0618965 0
-1 0.0472336 0
-1 0.0338135 0
-1 0.0215307 0
-1 0.010289 0
0.00921362 0.00379763 0
0.0184561 0.00752451 0
0.0277268 0.0111804 0
0.0370253 0.0147652 0
0.0463511 0.0182786 0
0.0557034 0.0217203 0
0.0650819 0.0250903 0
0.074486 0.0283883 0
0.083915 0.0316141 0
0.0933685 0.0347675 0
0.102846 0.0378484 0
0.112347 0.0408565 0
0.12187 0.0437917 0
0.131416 0.0466538 0
0.140983 0.0494427 0
0.150572 0.0521581 0
0.160181 0.0547999 0
0.16981 0.0573681 0
0.179458 0.0598623 0
0.189125 0.0622825 0
0.198811 0.0646285 0
0.208514 0.0669001 0
0.218234 0.0690974 0
0.227971 0.07122 0
0.237724 0.073268 0
0.247493 0.0752411 0
0.257276 0.0771393 0
0.267073 0.0789625 0
0.276884 0.0807105 0
0.286708 0.0823832 0
0.296545 0.0839806 0
0.306394 0.0855025 0
0.316254 0.0869488 0
0.326125 0.0883196 0
0.336006 0.0896146 0
0.345896 0.0908339 0
0.355796 0.0919773 0
0.365704 0.0930447 0
0.375621 0.0940362 0
0.385544 0.0949517 0
0.395474 0.095791 0
0.40541 0.0965542 0
0.415352 0.0972412 0
0.425299 0.097852 0
0.43525 0.0983865 0
0.445205 0.0988447 0
0.455164 0.0992266 0
0.465125 0.0995321 0
0.475088 0.0997613 0
0.485052 0.0999141 0
0.495017 0.0999904 0
0.504983 0.0999904 0
0.514948 0.0999141 0
0.524912 0.0997613 0
0.534875 0.0995321 0
0.544836 0.0992266 0
0.554795 0.0988447 0
0.56475 0.0983865 0
0.574701 0.097852 0
0.584648 0.0972412 0
0.59459 0.0965542 0
0.604526 0.095791 0
0.614456 0.0949517 0
0.624379 0.0940362 0
0.634296 0.0930447 0
0.644204 0.0919773 0
0.654104 0.0908339 0
0.663994 0.0896146 0
0.673875 0.0883196 0
0.683746 0.0869488 0
0.693606 0.0855025 0
0.703455 0.0839806 0
0.713292 0.0823832 0
0.723116 0.0807105 0
0.732927 0.0789625 0
0.742724 0.0771393 0
0.752508 0.0752411 0
0.762276 0.073268 0
0.772029 0.07122 0
0.781766 0.0690974 0
0.791486 0.0669001 0
0.801189 0.0646285 0
0.810875 0.0622825 0
0.820542 0.0598623 0
0.83019 0.0573681 0
0.839819 0.0547999 0
0.849428 0.0521581 0
0.859017 0.0494427 0
0.868584 0.0466538 0
0.87813 0.0437917 0
0.887653 0.0408565 0
0.897154 0.0378484 0
0.906631 0.0347675 0
0.916085 0.0316141 0
0.925514 0.0283883 0
0.934918 0.0250903 0
0.944297 0.0217203 0
0.953649 0.0182786 0
0.962975 0.0147652 0
0.972273 0.0111804 0
0.981544 0.00752451 0
0.990786 0.00379763 0
-1 0.90583 0.1
-1 0.819642 0.1
-1 0.740758 0.1
-1 0.66856 0.1
-1 0.602481 0.1
-1 0.542002 0.1
-1 0.486649 0.1
-1 0.435987 0.1
-1 0.389619 0.1
-1 0.347181 0.1
-1 0.308339 0.1
-1 0.27279 0.1
-1 0.240253 0.1
-1 0.210474 0.1
-1 0.183219 0.1
-1 0.158274 0.1
-1 0.135442 0.1
-1 0.114546 0.1
-1 0.0954213 0.1
-1 0.0779171 0.1
-1 0.0618965 0.1
-1 0.0472336 0.1
-1 0.0338135 0.1
-1 0.0215307 0.1
-1 0.010289 0.1
-0.99 0 0.1
-0.98 0 0.1
-0.97 0 0.1
-0.96 0 0.1
-0.95 0 0.1
-0.94 0 0.1
-0.93 0 0.1
-0.92 0 0.1
-0.91 0 0.1
-0.9 0 0.1
-0.89 0 0.1
-0.88 0 0.1
-0.87 0 0.1
-0.86 0 0.1
-0.85 0 0.1
-0.84 0 0.1
-0.83 0 0.1
-0.82 0 0.1
-0.81 0 0.1
-0.8 0 0.1
-0.79 0 0.1
-0.78 0 0.1
-0.77 0 0.1
-0.76 0 0.1
-0.75 0 0.1
-0.74 0 0.1
-0.73 0 0.1
-0.72 0 0.1
-0.71 0 0.1
-0.7 0 0.1
-0.69 0 0.1
-0.68 0 0.1
-0.67 0 0.1
-0.66 0 0.1
-0.65 0 0.1
-0.64 0 0.1
-0.63 0 0.1
-0.62 0 0.1
-0.61 0 0.1
-0.6 0 0.1
-0.59 0 0.1
-0.58 0 0.1
-0.57 0 0.1
-0.56 0 0.1
-0.55 0 0.1
-0.54 0 0.1
-0.53 0 0.1
-0.52 0 0.1
-0.51 0 0.1
-0.5 0 0.1
-0.49 0 0.1
-0.48 0 0.1
-0.47 0 0.1
-0.46 0 0.1
-0.45 0 0.1
-0.44 0 0.1
-0.43 0 0.1
-0.42 0 0.1
-0.41 0 0.1
-0.4 0 0.1
-0.39 0 0.1
-0.38 0 0.1
-0.37 0 0.1
-0.36 0 0.1
-0.35 0 0.1
-0.34 0 0.1
-0.33 0 0.1
-0.32 0 0.1
-0.31 0 0.1
-0.3 0 0.1
-0.29 0 0.1
-0.28 0 0.1
-0.27 0 0.1
-0.26 0 0.1
-0.25 0 0.1
-0.24 0 0.1
-0.23 0 0.1
-0.22 0 0.1
-0.21 0 0.1
-0.2 0 0.1
-0.19 0 0.1
-0.18 0 0.1
-0.17 0 0.1
-0.16 0 0.1
-0.15 0 0.1
-0.14 0 0.1
-0.13 0 0.1
-0.12 0 0.1
-0.11 0 0.1
-0.1 0 0.1
-0.09 0 0.1
-0.08 0 0.1
-0.07 0 0.1
-0.06 0 0.1
-0.05 0 0.1
-0.04 0 0.1
-0.03 0 0.1
-0.02 0 0.1
-0.01 0 0.1
0.00921362 0.00379763 0.1
0.0184561 0.00752451 0.1
0.0277268 0.0111804 0.1
0.0370253 0.0147652 0.1
0.0463511 0.0182786 0.1
0.0557034 0.0217203 0.1
0.0650819 0.0250903 0.1
0.074486 0.0283883 0.1
0.083915 0.0316141 0.1
0.0933685 0.0347675 0.1
0.102846 0.0378484 0.1
0.112347 0.0408565 0.1
0.12187 0.0437917 0.1
0.131416 0.0466538 0.1
0.140983 0.0494427 0.1
0.150572 0.0521581 0.1
0.160181 0.0547999 0.1
0.16981 0.0573681 0.1
0.179458 0.0598623 0.1
0.189125 0.0622825 0.1
0.198811 0.0646285 0.1
0.208514 0.0669001 0.1
0.218234 0.0690974 0.1
0.227971 0.07122 0.1
0.237724 0.073268 0.1
0.247493 0.0752411 0.1
0.257276 0.0771393 0.1
0.267073 0.0789625 0.1
0.276884 0.0807105 0.1
0.286708 0.0823832 0.1
0.296545 0.0839806 0.1
0.306394 0.0855025 0.1
0.316254 0.0869488 0.1
0.326125 0.0883196 0.1
0.336006 0.0896146 0.1
0.345896 0.0908339 0.1
0.355796 0.0919773 0.1
0.365704 0.0930447 0.1
0.375621 0.0940362 0.1
0.385544 0.0949517 0.1
0.395474 0.095791 0.1
0.40541 0.0965542 0.1
0.415352 0.0972412 0.1
0.425299 0.097852 0.1
0.43525 0.0983865 0.1
0.445205 0.0988447 0.1
0.455164 0.0992266 0.1
0.465125 0.0995321 0.1
0.475088 0.0997613 0.1
0.485052 0.0999141 0.1
0.495017 0.0999904 0.1
0.504983 0.0999904 0.1
0.514948 0.0999141 0.1
0.524912 0.0997613 0.1
0.534875 0.0995321 0.1
0.544836 0.0992266 0.1
0.554795 0.0988447 0.1
0.56475 0.0983865 0.1
0.574701 0.097852 0.1
0.584648 0.0972412 0.1
0.59459 0.0965542 0.1
0.604526 0.095791 0.1
0.614456 0.0949517 0.1
0.624379 0.0940362 0.1
0.634296 0.0930447 0.1
0.644204 0.0919773 0.1
0.654104 0.0908339 0.1
0.663994 0.0896146 0.1
0.673875 0.0883196 0.1
0.683746 0.0869488 0.1
0.693606 0.0855025 0.1
0.703455 0.0839806 0.1
0.713292 0.0823832 0.1
0.723116 0.0807105 0.1
0.732927 0.0789625 0.1
0.742724 0.0771393 0.1
0.752508 0.0752411 0.1
0.762276 0.073268 0.1
0.772029 0.07122 0.1
0.781766 0.0690974 0.1
0.791486 0.0669001 0.1
0.801189 0.0646285 0.1
0.810875 0.0622825 0.1
0.820542 0.0598623 0.1
0.83019 0.0573681 0.1
0.839819 0.0547999 0.1
0.849428 0.0521581 0.1
0.859017 0.0494427 0.1
0.868584 0.0466538 0.1
0.87813 0.0437917 0.1
0.887653 0.0408565 0.1
0.897154 0.0378484 0.1
0.906631 0.0347675 0.1
0.916085 0.0316141 0.1
0.925514 0.0283883 0.1
0.934918 0.0250903 0.1
0.944297 0.0217203 0.1
0.953649 0.0182786 0.1
0.962975 0.0147652 0.1
0.972273 0.0111804 0.1
0.981544 0.00752451 0.1
0.990786 0.00379763 0.1
1.01 0 0.1
1.02 0 0.1
1.03 0 0.1
1.04 0 0.1
1.05 0 0.1
1.06 0 0.1
1.07 0 0.1
1.08 0 0.1
1.09 0 0.1
1.1 0 0.1
1.11 0 0.1
1.12 0 0.1
1.13 0 0.1
1.14 0 0.1
1.15 0 0.1
1.16 0 0.1
1.17 0 0.1
1.18 0 0.1
1.19 0 0.1
1.2 0 0.1
1.21 0 0.1
1.22 0 0.1
1.23 0 0.1
1.24 0 0.1
1.25 0 0.1
1.26 0 0.1
1.27 0 0.1
1.28 0 0.1
1.29 0 0.1
1.3 0 0.1
1.31 0 0.1
1.32 0 0.1
1.33 0 0.1
1.34 0 0.1
1.35 0 0.1
1.36 0 0.1
1.37 0 0.1
1.38 0 0.1
1.39 0 0.1
1.4 0 0.1
1.41 0 0.1
1.42 0 0.1
1.43 0 0.1
1.44 0 0.1
1.45 0 0.1
1.46 0 0.1
1.47 0 0.1
1.48 0 0.1
1.49 0 0.1
1.5 0 0.1
1.51 0 0.1
1.52 0 0.1
1.53 0 0.1
1.54 0 0.1
1.55 0 0.1
1.56 0 0.1
1.57 0 0.1
1.58 0 0.1
1.59 0 0.1
1.6 0 0.1
1.61 0 0.1
1.62 0 0.1
1.63 0 0.1
1.64 0 0.1
1.65 0 0.1
1.66 0 0.1
1.67 0 0.1
1.68 0 0.1
1.69 0 0.1
1.7 0 0.1
1.71 0 0.1
1.72 0 0.1
1.73 0 0.1
1.74 0 0.1
1.75 0 0.1
1.76 0 0.1
1.77 0 0.1
1.78 0 0.1
1.79 0 0.1
1.8 0 0.1
1.81 0 0.1
1.82 0 0.1
1.83 0 0.1
1.84 0 0.1
1.85 0 0.1
1.86 0 0.1
1.87 0 0.1
1.88 0 0.1
[...]
CELL_DATA 7425
SCALARS rho float
LOOKUP_TABLE default
0.593246
0.805298
0.821345
0.829056
0.80081
0.820894
0.822315
0.816208
0.815226
0.740813
0.86432
0.810647
0.815997
0.828912
0.804943
0.81904
0.800042
0.815455
0.803691
0.768402
0.832751
0.822504
0.727121
0.829598
0.804101
0.708532
0.832654
0.850486
0.800461
0.808803
0.820805
0.723658
0.80384
0.657089
0.531412
0.829565
0.803699
0.816189
0.81175
0.829455
0.720542
0.710164
0.79157
0.691471
0.593853
0.749734
0.801116
0.815938
0.676224
0.71776
0.746251
0.805418
0.812792
0.800377
0.705292
0.693493
0.824597
0.801049
0.740694
0.703976
0.71609
0.80796
0.81543
0.800615
0.799086
0.819471
0.590224
0.775093
0.68821
0.808759
0.80519
0.803326
0.884032
0.821581
0.811303
0.815282
0.805319
0.800714
0.815432
0.757989
0.817928
0.807543
0.812436
0.789564
0.837037
0.802296
0.580219
0.831347
0.551357
0.849608
0.695336
0.732014
0.847362
0.803391
0.819268
0.761368
0.837255
0.788739
0.827238
0.803805
0.81002
0.738384
0.803479
0.829692
0.602285
0.811651
0.825931
0.711326
0.817006
0.800523
0.818591
0.785505
0.790613
0.812761
0.79131
0.787089
0.832699
0.803224
0.693294
0.660437
0.805312
0.779011
0.815198
0.791074
0.859943
0.840635
0.808014
0.805774
0.66501
0.516357
0.816496
0.660058
0.526617
0.870421
0.677351
0.800903
0.81154
0.726441
0.587852
0.729131
0.727613
0.810683
0.811832
0.702281
0.804153
0.780408
0.571114
0.790661
0.782957
0.829324
0.818196
0.694549
0.804136
0.744409
0.701306
0.803486
0.811043
0.831905
0.799163
0.661524
0.803069
0.692942
0.802316
0.831254
0.822209
0.802625
0.815292
0.786475
0.806634
0.801947
0.821494
0.805826
0.793274
0.800482
0.800893
0.743676
0.80494
0.761838
0.602399
0.692321
0.800973
0.794541
0.880463
0.833201
0.684157
0.82461
0.799994
0.828713
0.801125
0.815557
0.814906
0.803416
0.807305
0.700843
0.817017
0.821002
0.771241
0.798921
0.863378
0.808148
0.81274
0.81341
0.61763
0.840684
0.578919
0.54294
0.600591
0.61376
0.829321
0.880013
0.807819
0.798962
0.842416
0.815234
0.81856
0.822509
0.817194
0.641716
0.586527
0.815849
0.554764
0.600654
0.698367
0.813652
0.816117
0.815283
0.83454
0.815218
0.866769
0.70471
0.836337
0.719012
0.805543
0.804148
0.802423
0.717043
0.72497
0.623323
0.697661
0.864559
0.878381
0.808258
0.808005
0.800712
0.812541
0.721427
0.82333
0.801589
0.827273
0.79516
0.812064
0.719908
0.81511
0.825395
0.743568
0.536348
0.800943
0.736151
0.844505
0.816372
0.724876
0.817537
0.816862
0.850899
0.811633
0.805405
0.803443
0.827261
0.861742
0.806797
0.622973
0.85
0.813591
0.805888
0.829082
0.838481
0.81517
0.82309
0.794099
0.817078
0.869264
0.850902
0.82851
0.838103
0.803182
0.819048
0.803313
0.760007
0.706763
0.586632
0.693288
0.804174
0.815141
0.817935
0.856955
0.780549
0.649382
0.828654
0.53281
0.776039
0.802187
0.650068
0.568657
0.642762
0.817194
0.81543
0.815232
0.814831
0.828296
0.77517
0.811812
0.802905
0.815216
0.841997
0.86989
0.834947
0.80339
0.693701
0.797552
0.835429
0.694883
0.80008
0.802434
0.86565
0.818992
0.5979
0.815545
0.744253
0.854492
0.735307
0.812258
0.908079
0.801251
0.796641
0.662795
0.639401
0.707125
0.782922
0.828107
0.816946
0.815819
0.885665
0.860163
0.800913
0.800641
0.82651
0.742474
0.803017
0.880126
0.801564
0.806192
0.801994
0.802791
0.815143
0.817684
0.818293
0.642061
0.831178
0.655291
0.80939
0.645125
0.804414
0.802558
0.841408
0.733398
0.816769
0.810494
0.81887
0.800672
0.802713
0.811766
0.704697
0.824943
0.815288
0.815105
0.800897
0.737292
0.565574
0.806713
0.813247
0.803369
0.815192
0.79576
0.5483
0.847388
0.815477
0.804068
0.787388
0.815453
0.805663
0.804077
0.818173
0.807807
0.824193
0.770095
0.814048
0.808132
0.568435
0.804475
0.64377
0.839817
0.640084
0.816683
0.87866
0.605207
0.818986
0.751322
0.804688
0.874071
0.544818
0.824775
0.82396
0.803702
0.827342
0.811982
0.825122
0.832124
0.826433
0.743322
0.82908
0.761717
0.811264
0.794769
0.795291
0.760763
0.805956
0.802232
0.816305
0.755699
0.805567
0.609428
0.619048
0.695749
0.815
0.845384
0.865765
0.831283
0.799968
0.814939
0.80582
0.820147
0.683885
0.802097
0.744969
0.825274
0.816738
0.80694
0.70655
0.730125
0.542113
0.60992
0.80246
0.615536
0.794514
0.76585
0.771479
0.725035
0.764607
0.769808
0.811592
0.816948
0.82134
0.813707
0.715678
0.615871
0.840309
0.808849
0.783986
0.811334
0.803278
0.837925
0.724104
0.856341
0.764196
0.733444
0.766997
0.813493
0.553235
0.80016
0.84289
0.814368
0.815903
0.811839
0.800581
0.782653
0.836861
0.803292
0.844224
0.722751
0.702983
0.801222
0.796824
0.823714
0.712617
0.849128
0.801865
0.817975
0.800027
0.780084
0.809704
0.599511
0.680823
0.636152
0.815026
0.805239
0.827912
0.751307
0.810919
0.816826
0.822145
0.800346
0.734074
0.798898
0.815796
0.803372
0.71046
0.81573
0.820652
0.841202
0.813013
0.826953
0.863127
0.858193
0.747139
0.608172
0.839111
0.806806
0.844408
0.816298
0.823956
0.815674
0.815919
0.661811
0.806757
0.811072
0.81513
0.793486
0.811992
0.806048
0.862921
0.80004
0.815046
0.816744
0.872752
0.60244
0.815608
0.844229
0.883955
0.538543
0.818326
0.831139
0.796609
0.815168
0.796606
0.868473
0.813715
0.832825
0.814243
0.623724
0.802776
0.804416
0.69761
0.85407
0.759506
0.802297
0.816057
0.814931
0.862061
0.795821
0.834851
0.836123
0.786537
0.826206
0.844028
0.80109
0.811871
0.808328
0.805601
0.816659
0.80284
0.846383
0.769823
0.810109
0.803553
0.816665
0.726503
0.815186
0.820193
0.754636
0.815725
0.81794
0.828996
0.826722
0.801958
0.801612
0.851454
0.768001
0.82675
0.845394
0.804821
0.517815
0.815145
0.829825
0.853318
0.814611
0.803269
0.809293
0.855985
0.780438
0.802821
0.802356
0.815223
0.732336
0.803712
0.831055
0.809612
0.795496
0.795598
0.844446
0.806898
0.84632
0.80217
0.825898
0.814893
0.804465
0.842896
0.815113
0.685041
0.820604
0.807404
0.814966
0.906578
0.801684
0.817581
0.801302
0.801386
0.818143
0.801479
0.803678
0.78374
0.747315
0.808529
0.815193
0.760161
0.79347
0.824682
0.813353
0.823963
0.807166
0.827382
0.876026
0.83214
0.58823
0.71138
0.842043
0.819176
0.845326
0.816754
0.851149
0.808719
0.813823
0.800615
0.839695
0.861907
0.853882
0.734844
0.81618
0.823826
0.743308
0.818569
0.776628
0.801118
0.736115
0.818011
0.832354
0.823954
0.864373
0.816266
0.815489
0.812247
0.816651
0.837031
0.812558
0.799968
0.810563
0.740828
0.813606
0.774371
0.834168
0.814178
0.642523
0.778516
0.812417
0.800445
0.821616
0.803811
0.816684
0.819187
0.805454
0.821175
0.804409
0.807318
0.606417
0.84823
0.826741
0.82829
0.816301
0.803428
0.704654
0.808117
0.908265
0.815647
0.802486
0.815024
0.783151
0.808755
0.815355
0.823026
0.815029
0.815429
0.818182
0.686336
0.77994
0.767095
0.814884
0.806226
0.80247
0.625746
0.807157
0.803885
0.711927
0.838529
0.819088
0.803186
0.808719
0.800498
0.819108
0.815433
0.815483
0.815187
0.712241
0.833032
0.800719
0.808899
0.844204
0.818955
0.818214
0.801367
0.753886
0.825403
0.789463
0.823154
0.790107
0.807199
0.822705
0.738138
0.819102
0.662341
0.87286
0.707409
0.846222
0.802806
0.875877
0.794616
0.802384
0.822433
0.837584
0.839419
0.826983
0.821618
0.816652
0.802991
0.804586
0.808971
0.731172
0.828248
0.800359
0.718204
0.83188
0.691391
0.801433
0.86278
0.80592
0.70871
0.79839
0.816182
0.69963
0.785758
0.821169
0.833117
0.809018
0.616228
0.733657
0.812817
0.802802
0.815222
0.801868
0.739527
0.816078
0.817691
0.814783
0.777113
0.803449
0.804817
0.805128
0.56612
0.815023
0.835056
0.588694
0.817174
0.818055
0.816735
0.820206
0.81647
0.826171
0.800517
0.795544
0.770904
0.823789
0.830571
0.82599
0.836765
0.767145
0.811141
0.729881
0.773122
0.810142
0.822822
0.815465
0.801207
0.860497
0.815222
0.802326
0.811761
0.818016
0.817191
0.837999
0.816551
0.815069
0.812301
0.815937
0.801638
0.822726
0.804087
0.824523
0.815634
0.584224
0.815675
0.835877
0.860258
0.83932
0.506196
0.818717
0.806091
0.508953
0.675743
0.655288
0.835591
0.809482
0.811978
0.815013
0.803308
0.818664
0.811863
0.542966
0.693084
0.819018
0.806913
0.817579
0.803726
0.810713
0.813142
0.821946
0.800601
0.699622
0.85827
0.80326
0.815116
0.815734
0.75972
0.501414
0.834338
0.814515
0.741228
0.802811
0.807867
0.602334
0.828648
0.816766
0.829285
0.82061
0.827581
0.805
0.725324
0.647211
0.567785
0.826941
0.810058
0.783295
0.815228
0.781923
0.819756
0.874051
0.764253
0.82334
0.815584
0.827425
0.884262
0.816487
0.814009
0.803614
0.814196
0.696587
0.829759
0.80096
0.811757
0.802647
0.784957
0.855241
0.823737
0.841542
0.823256
0.757175
0.757241
0.804754
0.819896
0.803205
0.805517
0.80297
0.777894
0.816701
0.763613
0.822601
0.665523
0.81605
0.803304
0.734299
0.82448
0.819617
0.742176
0.801522
0.75937
0.8838
0.800943
0.815157
0.764843
0.801545
0.816346
0.804185
0.595251
0.82199
0.800231
0.803345
0.816578
0.827152
0.759362
0.806894
0.843465
0.828452
0.814934
0.837224
0.684979
0.702977
0.815223
0.746306
0.82393
0.773161
0.815146
0.80285
0.811911
0.754033
0.794656
0.766627
0.811958
0.80326
0.634897
0.779739
0.799517
0.851081
0.816433
0.830192
0.536648
0.825816
0.786013
0.859747
0.801185
0.818927
0.801716
0.787586
0.800067
0.827224
0.836867
0.822799
0.818978
0.703069
0.775954
0.817145
0.805649
0.812241
0.804141
0.700011
0.794485
0.804374
0.81204
0.828475
0.852152
0.833321
0.815631
0.800783
0.80536
0.803018
0.780654
0.616339
0.802291
0.735071
0.665778
0.824421
0.800092
0.77725
0.801232
0.756176
0.785975
0.813776
0.82343
0.805045
0.817928
0.818934
0.821923
0.815568
0.810011
0.714665
0.702336
0.644504
0.830804
0.870414
0.816676
0.84259
0.848963
0.864568
0.739968
0.818268
0.8639
0.811937
0.815198
0.817739
0.735869
0.814398
0.80816
0.80761
0.527465
0.815235
0.762791
0.815351
0.814208
0.803748
0.700966
0.815384
0.61526
0.826061
0.803384
0.823475
0.856225
0.803659
0.795844
0.822682
0.813682
0.806479
0.763795
0.522715
0.822625
0.803389
0.830616
0.827359
0.804103
0.807324
0.835714
0.724157
0.514641
0.886902
0.802384
0.817663
0.804576
0.706628
0.799965
0.801297
0.817078
0.740467
0.650128
0.883888
0.717151
0.837917
0.814139
0.834331
0.843905
0.794255
0.804996
0.815704
0.853717
0.740521
0.871455
0.816113
0.568546
0.803876
0.748144
0.854004
0.762824
0.804463
0.804179
0.800828
0.802179
0.811012
0.815217
0.857494
0.807336
0.802999
0.801491
0.801206
0.81456
0.818783
0.802782
0.814805
0.850359
0.803207
0.785256
0.802493
0.841223
0.730449
0.815769
0.815911
0.670517
0.716113
0.805955
0.82464
0.805142
0.523283
0.858554
0.815281
0.834591
0.805577
0.803487
0.801872
0.788177
0.591688
0.804671
0.81805
0.836964
0.822328
0.815232
0.800183
0.750074
0.801957
0.768576
0.788253
0.800629
0.791529
0.751079
0.80196
0.812768
0.812505
0.833418
0.851011
0.561261
0.843178
0.81517
0.821232
0.803078
0.823116
0.813401
0.895178
0.801714
0.869731
0.806046
0.762294
0.862963
0.802547
0.80049
0.825738
0.664047
0.648993
0.803601
0.804132
0.6884
0.657896
0.800144
0.825493
0.815282
0.824284
0.736137
0.81865
0.815064
0.827732
0.818647
0.812282
0.81519
0.756643
0.805217
0.81762
0.813655
0.679379
0.572425
0.815228
0.653511
0.724324
0.561464
0.842657
0.80134
0.539836
0.605597
0.828734
0.908497
0.819988
0.65601
0.816221
0.788227
0.802823
0.787249
0.822205
0.811903
0.788992
0.822737
0.802957
0.593739
0.81968
0.768801
0.817836
0.695843
0.823917
0.791492
0.816033
0.801401
0.666423
0.844544
0.808035
0.808017
0.507798
0.818737
0.801517
0.854305
0.708314
0.818981
0.599847
0.724801
0.80248
0.798349
0.73743
0.719369
0.712444
0.52057
0.614556
0.801395
0.530961
0.824295
0.542695
0.759184
0.677695
0.619473
0.552614
0.747596
0.803207
0.711052
0.823033
0.801768
0.803871
0.763153
0.890297
0.800404
0.826109
0.803726
0.815096
0.708733
0.808825
0.739005
0.823627
0.886702
0.834866
0.75014
0.824462
0.772488
0.880565
0.80444
0.760612
0.851813
0.77878
0.80017
0.806771
0.760208
0.748513
0.679068
0.805245
0.803161
0.819698
0.834897
0.615509
0.809381
0.547689
0.671902
0.627917
0.81998
0.822776
0.811101
0.804215
0.619813
0.873194
0.802832
0.803069
0.864461
0.814749
0.773418
0.814484
0.802585
0.819763
0.803247
0.71964
0.804373
0.664765
0.800252
0.805874
0.802006
0.642722
0.813085
0.811747
0.726176
0.819153
0.557067
0.582522
0.804421
0.699421
0.728309
0.577656
0.727378
0.815759
0.700157
0.77412
0.713846
0.81414
0.673659
0.764052
0.807258
0.812634
0.660001
0.802309
0.895717
0.797254
0.818708
0.59538
0.697062
0.802911
0.815228
0.816082
0.852647
0.814853
0.804609
0.804015
0.803544
0.716978
0.715218
0.620452
0.773743
0.54756
0.721702
0.812014
0.816428
0.807462
0.800637
0.587218
0.811137
0.803989
0.562078
0.553742
0.748718
0.803798
0.807968
0.55624
0.799029
0.575853
0.726293
0.61284
0.814507
0.803301
0.602453
0.612979
0.868752
0.810967
0.767335
0.721663
0.631011
0.65886
0.703888
0.817905
0.761701
0.765263
0.62852
0.756223
0.811351
0.817343
0.814753
0.817456
0.868012
0.757267
0.820728
0.803713
0.852317
0.81518
0.802972
0.815285
0.719775
0.814832
0.813907
0.817086
0.813102
0.817772
0.803446
0.819749
0.812367
0.81175
0.819107
0.800382
0.818454
0.820764
0.670931
0.82043
0.869284
0.820003
0.793468
0.649607
0.859583
0.820611
0.826516
0.800843
0.813525
0.757478
0.853641
0.582575
0.731785
0.810202
0.817636
0.804117
0.803561
0.833507
0.806219
0.806138
0.81726
0.782386
0.83988
0.843167
0.816836
0.667813
0.628808
0.817726
0.818493
0.790472
0.850768
0.848347
0.81232
0.815525
0.779708
0.816119
0.819668
0.816155
0.820596
0.814484
0.817784
0.852156
0.817922
0.816424
0.819427
0.819614
0.785701
0.816028
0.805353
0.805642
0.805798
0.820398
0.81377
0.790139
0.753646
0.814832
0.806565
0.810879
0.806672
0.858664
0.804424
0.816014
0.814946
0.806233
0.690847
0.804156
0.815001
0.816415
0.810681
0.815053
0.815455
0.81525
0.810495
0.865214
0.514697
0.815091
0.842865
0.814889
0.803366
0.809088
0.817012
0.84098
0.801713
0.802684
0.813963
0.690005
0.815116
0.809326
0.808747
0.814742
0.815122
0.815244
0.815532
0.524519
0.812663
0.721625
0.886477
0.822714
0.732081
0.685421
0.817349
0.804526
0.819905
0.650205
0.802354
0.815508
0.651603
0.801151
0.804531
0.816937
0.807684
0.85777
0.810159
0.611601
0.801845
0.775375
0.811612
0.889691
0.804889
0.8159
0.820347
0.833331
0.815564
0.824096
0.837656
0.638951
0.804355
0.659376
0.815859
0.815768
0.708775
0.815664
0.806652
0.710071
0.816636
0.707115
0.862043
0.784843
0.81636
0.815169
0.815569
0.672704
0.815783
0.636848
0.801212
0.792988
0.823964
0.817177
0.71935
0.766885
0.831546
0.814924
0.822555
0.823611
0.815595
0.826943
0.800703
0.558269
0.754474
0.761348
0.729658
0.838949
0.823915
0.835444
0.77851
0.802957
0.81527
0.815222
0.81522
0.775866
0.569616
0.803376
0.54122
0.809763
0.825819
0.800977
0.803978
0.81449
0.806393
0.78458
0.73356
0.81555
0.860043
0.815255
0.800488
0.735768
0.810816
0.789406
0.834836
0.52058
0.796412
0.80787
0.800165
0.697282
0.815051
0.812516
0.859207
0.574585
0.807707
0.803434
0.814964
0.622171
0.815298
0.803497
0.803596
0.803214
0.815393
0.815475
0.817999
0.815275
0.714272
0.804807
0.803366
0.815243
0.896698
0.815347
0.775958
0.842533
0.799456
0.803275
0.606163
0.81515
0.803524
0.827178
0.802652
0.867122
0.816406
0.855264
0.801628
0.822364
0.778905
0.564865
0.755519
0.796136
0.805902
0.814265
0.815883
0.561946
0.862621
0.860022
0.770921
0.758218
0.738144
0.813585
0.850031
0.81518
0.814682
0.815214
0.804517
0.725657
0.803718
0.800345
0.76418
0.82587
0.824665
0.862671
0.817567
0.815231
0.566898
0.809191
0.815192
0.801757
0.775767
0.818459
0.803235
0.815032
0.828449
0.798918
0.804535
0.802053
0.816834
0.840388
0.803625
0.80033
0.802882
0.765897
0.821629
0.573153
0.869148
0.803957
0.552534
0.804277
0.804697
0.820862
0.617427
0.611159
0.802625
0.804956
0.802022
0.861575
0.7806
0.816376
0.803148
0.868277
0.804969
0.804693
0.827555
0.817695
0.821535
0.822964
0.822046
0.868252
0.731686
0.853098
0.81904
0.657367
0.803524
0.803412
0.803875
0.822837
0.825123
0.804875
0.802207
0.801235
0.824345
0.804102
0.803898
0.800913
0.826004
0.804209
0.802581
0.806361
0.829361
0.801933
0.802592
0.825881
0.800713
0.817347
0.655026
0.827954
0.850862
0.805683
0.821344
0.803536
0.830256
0.838818
0.803586
0.823168
0.801456
0.80824
0.790025
0.802692
0.804081
0.806631
0.806745
0.805707
0.820326
0.816755
0.811662
0.832856
0.803465
0.802579
0.801103
0.789507
0.835138
0.803475
0.821078
0.81718
0.807853
0.806105
0.803083
0.840148
0.86716
0.800827
0.68207
0.801962
0.843388
0.818478
0.806482
0.804704
0.820575
0.84572
0.622147
0.830333
0.79634
0.852488
0.820513
0.812538
0.814091
0.809465
0.804195
0.813434
0.809259
0.596306
0.849123
0.795335
0.816234
0.855628
0.821056
0.765079
0.809448
0.816481
0.817297
0.803267
0.665339
0.810586
0.864075
0.804116
0.801579
0.777657
0.871969
0.801238
0.877778
0.80813
0.819017
0.822341
0.803643
0.804766
0.814804
0.817804
0.804813
0.815442
0.818025
0.882033
0.821588
0.809615
0.801488
0.829772
0.810829
0.840508
0.809759
0.80723
0.813519
0.81844
0.831185
0.815719
0.824101
0.833585
0.815532
0.705893
0.69807
0.815226
0.819579
0.805209
0.815244
0.529114
0.855773
0.800847
0.806502
0.815906
0.815566
0.804274
0.814623
0.801605
0.802117
0.809152
0.816228
0.759654
0.786275
0.824583
0.84448
0.835892
0.801463
0.806862
0.803545
0.813313
0.806593
0.800761
0.800924
0.801839
0.812268
0.798297
0.80406
0.836851
0.832867
0.733976
0.691062
0.808035
0.705982
0.80084
0.592228
0.804758
0.807723
0.804297
0.81998
0.835335
0.815995
0.815085
0.810639
0.804192
0.882217
0.818171
0.806194
0.773424
0.602476
0.81055
0.807929
0.770688
0.816436
0.815952
0.792058
0.801135
0.804334
0.647825
0.831629
0.803706
0.783751
0.780322
0.853682
0.810286
0.804175
0.803998
0.811513
0.81152
0.531888
0.80258
0.840779
0.815997
0.799095
0.596158
0.815571
0.816121
0.815213
0.835122
0.815984
0.804427
0.823578
0.806717
0.58122
0.809171
0.740189
0.799134
0.815739
0.724088
0.816911
0.847838
0.832531
0.668043
0.89147
0.786374
0.779655
0.797341
0.779993
0.809587
0.851876
0.809231
0.803356
0.815663
0.810898
0.783504
0.786698
0.815912
0.809647
0.83579
0.822881
0.83665
0.803149
0.800814
0.815263
0.857627
0.818059
0.819528
0.81549
0.611771
0.796058
0.825403
0.830496
0.866786
0.814862
0.819967
0.52201
0.811802
0.801693
0.814716
0.816205
0.84866
0.815241
0.811418
0.882154
0.766329
0.813243
0.815372
0.811029
0.805554
0.816261
0.659447
0.800909
0.850647
0.834429
0.811842
0.815379
0.815505
0.809869
0.705089
0.814345
0.801512
0.839869
0.820245
0.813035
0.832591
0.794665
0.813431
0.8196
0.810209
0.821053
0.747802
0.856597
0.820739
0.815157
0.81525
0.814915
0.817557
0.818958
0.814971
0.812701
0.842276
0.820379
0.801411
0.826143
0.828355
0.817394
0.815234
0.801546
0.802291
0.815256
0.820803
0.830317
0.815027
0.818277
0.801171
0.811905
0.815072
0.814987
0.802712
0.816666
0.815452
0.803699
0.815103
0.836968
0.80039
0.811407
0.822976
0.56756
0.81623
0.819961
0.817211
0.816868
0.82362
0.83019
0.817522
0.82062
0.704329
0.815269
0.802205
0.817551
0.820304
0.836018
0.823253
0.816826
0.830857
0.826534
0.812862
0.819552
0.820972
0.806119
0.815338
0.817539
0.820325
0.833538
0.81479
0.817625
0.802924
0.815179
0.815229
0.537865
0.635172
0.814727
0.823134
0.802787
0.824045
0.817824
0.843018
0.71085
0.815827
0.733697
0.818892
0.812303
0.815335
0.830656
0.815746
0.806343
0.815159
0.831312
0.84111
0.814944
0.721758
0.820082
0.817915
0.801022
0.803165
0.817264
0.856885
0.814845
0.81551
0.850756
0.830213
0.844267
0.586288
0.830569
0.815996
0.812855
0.819243
0.852497
0.81959
0.720847
0.800774
0.832639
0.801156
0.800899
0.806155
0.749923
0.815529
0.816334
0.729179
0.816331
0.828205
0.81543
0.81602
0.800507
0.820158
0.81522
0.824953
0.809004
0.809944
0.816815
0.693018
0.820847
0.81608
0.815215
0.645823
0.715744
0.604004
0.824124
0.55153
0.855863
0.72966
0.843932
0.814674
0.728439
0.822638
0.817733
0.744706
0.808379
0.820154
0.794627
0.818354
0.817781
0.81771
0.815216
0.809919
0.803873
0.739506
0.837761
0.821842
0.81845
0.800377
0.816174
0.803474
0.817917
0.815542
0.8565
0.819567
0.517187
0.815158
0.820568
0.82045
0.778886
0.816473
0.807005
0.81928
0.847206
0.601805
0.810409
0.800632
0.817265
0.819437
0.819496
0.814627
0.820388
0.815725
0.816474
0.803262
0.816158
0.847283
0.815909
0.792556
0.813546
0.62695
0.716905
0.815268
0.818844
0.803506
0.823966
0.734981
0.803254
0.803266
0.821938
0.694232
0.819426
0.800701
0.817361
0.867137
0.786218
0.823622
0.819791
0.82421
0.816069
0.770777
0.80275
0.815649
0.902761
0.828048
0.818314
0.83312
0.811758
0.870819
0.716934
0.690614
0.854033
0.802858
0.692064
0.851942