# vtk DataFile Version 1.0
unstructured grid
ascii
DATASET UNSTRUCTURED_GRID
points 7812 float
-1 0 0
-1 1 0
2 0 0
2 1 0
0 0 0
1 0 0
-1 1 0.1
-1 0 0.1
0 0 0.1
1 0 0.1
2 0 0.1
2 1 0.1
-0.99 0 0
-0.98 0 0
-0.97 0 0
-0.96 0 0
-0.95 0 0
-0.94 0 0
-0.93 0 0
-0.92 0 0
-0.91 0 0
-0.9 0 0
-0.89 0 0
-0.88 0 0
-0.87 0 0
-0.86 0 0
-0.85 0 0
-0.84 0 0
-0.83 0 0
-0.82 0 0
-0.81 0 0
-0.8 0 0
-0.79 0 0
-0.78 0 0
-0.77 0 0
-0.76 0 0
-0.75 0 0
-0.74 0 0
-0.73 0 0
-0.72 0 0
-0.71 0 0
-0.7 0 0
-0.69 0 0
-0.68 0 0
-0.67 0 0
-0.66 0 0
-0.65 0 0
-0.64 0 0
-0.63 0 0
-0.62 0 0
-0.61 0 0
-0.6 0 0
-0.59 0 0
-0.58 0 0
-0.57 0 0
-0.56 0 0
-0.55 0 0
-0.54 0 0
-0.53 0 0
-0.52 0 0
-0.51 0 0
-0.5 0 0
-0.49 0 0
-0.48 0 0
-0.47 0 0
-0.46 0 0
-0.45 0 0
-0.44 0 0
-0.43 0 0
-0.42 0 0
-0.41 0 0
-0.4 0 0
-0.39 0 0
-0.38 0 0
-0.37 0 0
-0.36 0 0
-0.35 0 0
-0.34 0 0
-0.33 0 0
-0.32 0 0
-0.31 0 0
-0.3 0 0
-0.29 0 0
-0.28 0 0
-0.27 0 0
-0.26 0 0
-0.25 0 0
-0.24 0 0
-0.23 0 0
-0.22 0 0
-0.21 0 0
-0.2 0 0
-0.19 0 0
-0.18 0 0
-0.17 0 0
-0.16 0 0
-0.15 0 0
-0.14 0 0
-0.13 0 0
-0.12 0 0
-0.11 0 0
-0.1 0 0
-0.09 0 0
-0.08 0 0
-0.07 0 0
-0.06 0 0
-0.05 0 0
-0.04 0 0
-0.03 0 0
-0.02 0 0
-0.01 0 0
1.01 0 0
1.02 0 0
1.03 0 0
1.04 0 0
1.05 0 0
1.06 0 0
1.07 0 0
1.08 0 0
1.09 0 0
1.1 0 0
1.11 0 0
1.12 0 0
1.13 0 0
1.14 0 0
1.15 0 0
1.16 0 0
1.17 0 0
1.18 0 0
1.19 0 0
1.2 0 0
1.21 0 0
1.22 0 0
1.23 0 0
1.24 0 0
1.25 0 0
1.26 0 0
1.27 0 0
1.28 0 0
1.29 0 0
1.3 0 0
1.31 0 0
1.32 0 0
1.33 0 0
1.34 0 0
1.35 0 0
1.36 0 0
1.37 0 0
1.38 0 0
1.39 0 0
1.4 0 0
1.41 0 0
1.42 0 0
1.43 0 0
1.44 0 0
1.45 0 0
1.46 0 0
1.47 0 0
1.48 0 0
1.49 0 0
1.5 0 0
1.51 0 0
1.52 0 0
1.53 0 0
1.54 0 0
1.55 0 0
1.56 0 0
1.57 0 0
1.58 0 0
1.59 0 0
1.6 0 0
1.61 0 0
1.62 0 0
1.63 0 0
1.64 0 0
1.65 0 0
1.66 0 0
1.67 0 0
1.68 0 0
1.69 0 0
1.7 0 0
1.71 0 0
1.72 0 0
1.73 0 0
1.74 0 0
1.75 0 0
1.76 0 0
1.77 0 0
1.78 0 0
1.79 0 0
1.8 0 0
1.81 0 0
1.82 0 0
1.83 0 0
1.84 0 0
1.85 0 0
1.86 0 0
1.87 0 0
1.88 0 0
1.89 0 0
1.9 0 0
1.91 0 0
1.92 0 0
1.93 0 0
1.94 0 0
1.95 0 0
1.96 0 0
1.97 0 0
1.98 0 0
1.99 0 0
2 0.010289 0
2 0.0215307 0
2 0.0338135 0
2 0.0472336 0
2 0.0618965 0
2 0.0779171 0
2 0.0954213 0
2 0.114546 0
2 0.135442 0
2 0.158274 0
2 0.183219 0
2 0.210474 0
2 0.240253 0
2 0.27279 0
2 0.308339 0
2 0.347181 0
2 0.389619 0
2 0.435987 0
2 0.486649 0
2 0.542002 0
2 0.602481 0
2 0.66856 0
2 0.740758 0
2 0.819642 0
2 0.90583 0
1.9 1 0
1.8 1 0
1.7 1 0
1.6 1 0
1.5 1 0
1.4 1 0
1.3 1 0
1.2 1 0
1.1 1 0
1 1 0
0.9 1 0
0.8 1 0
0.7 1 0
0.6 1 0
0.5 1 0
0.4 1 0
0.3 1 0
0.2 1 0
0.1 1 0
3.69793e-12 1 0
-0.1 1 0
-0.2 1 0
-0.3 1 0
-0.4 1 0
-0.5 1 0
-0.6 1 0
-0.7 1 0
-0.8 1 0
-0.9 1 0
-1 0.90583 0
-1 0.819642 0
-1 0.740758 0
-1 0.66856 0
-1 0.602481 0
-1 0.542002 0
-1 0.486649 0
-1 0.435987 0
-1 0.389619 0
-1 0.347181 0
-1 0.308339 0
-1 0.27279 0
-1 0.240253 0
-1 0.210474 0
-1 0.183219 0
-1 0.158274 0
-1 0.135442 0
-1 0.114546 0
-1 0.0954213 0
-1 0.0779171 0
-1 0.0618965 0
-1 0.0472336 0
-1 0.0338135 0
-1 0.0215307 0
-1 0.010289 0
0.00921362 0.00379763 0
0.0184561 0.00752451 0
0.0277268 0.0111804 0
0.0370253 0.0147652 0
0.0463511 0.0182786 0
0.0557034 0.0217203 0
0.0650819 0.0250903 0
0.074486 0.0283883 0
0.083915 0.0316141 0
0.0933685 0.0347675 0
0.102846 0.0378484 0
0.112347 0.0408565 0
0.12187 0.0437917 0
0.131416 0.0466538 0
0.140983 0.0494427 0
0.150572 0.0521581 0
0.160181 0.0547999 0
0.16981 0.0573681 0
0.179458 0.0598623 0
0.189125 0.0622825 0
0.198811 0.0646285 0
0.208514 0.0669001 0
0.218234 0.0690974 0
0.227971 0.07122 0
0.237724 0.073268 0
0.247493 0.0752411 0
0.257276 0.0771393 0
0.267073 0.0789625 0
0.276884 0.0807105 0
0.286708 0.0823832 0
0.296545 0.0839806 0
0.306394 0.0855025 0
0.316254 0.0869488 0
0.326125 0.0883196 0
0.336006 0.0896146 0
0.345896 0.0908339 0
0.355796 0.0919773 0
0.365704 0.0930447 0
0.375621 0.0940362 0
0.385544 0.0949517 0
0.395474 0.095791 0
0.40541 0.0965542 0
0.415352 0.0972412 0
0.425299 0.097852 0
0.43525 0.0983865 0
0.445205 0.0988447 0
0.455164 0.0992266 0
0.465125 0.0995321 0
0.475088 0.0997613 0
0.485052 0.0999141 0
0.495017 0.0999904 0
0.504983 0.0999904 0
0.514948 0.0999141 0
0.524912 0.0997613 0
0.534875 0.0995321 0
0.544836 0.0992266 0
0.554795 0.0988447 0
0.56475 0.0983865 0
0.574701 0.097852 0
0.584648 0.0972412 0
0.59459 0.0965542 0
0.604526 0.095791 0
0.614456 0.0949517 0
0.624379 0.0940362 0
0.634296 0.0930447 0
0.644204 0.0919773 0
0.654104 0.0908339 0
0.663994 0.0896146 0
0.673875 0.0883196 0
0.683746 0.0869488 0
0.693606 0.0855025 0
0.703455 0.0839806 0
0.713292 0.0823832 0
0.723116 0.0807105 0
0.732927 0.0789625 0
0.742724 0.0771393 0
0.752508 0.0752411 0
0.762276 0.073268 0
0.772029 0.07122 0
0.781766 0.0690974 0
0.791486 0.0669001 0
0.801189 0.0646285 0
0.810875 0.0622825 0
0.820542 0.0598623 0
0.83019 0.0573681 0
0.839819 0.0547999 0
0.849428 0.0521581 0
0.859017 0.0494427 0
0.868584 0.0466538 0
0.87813 0.0437917 0
0.887653 0.0408565 0
0.897154 0.0378484 0
0.906631 0.0347675 0
0.916085 0.0316141 0
0.925514 0.0283883 0
0.934918 0.0250903 0
0.944297 0.0217203 0
0.953649 0.0182786 0
0.962975 0.0147652 0
0.972273 0.0111804 0
0.981544 0.00752451 0
0.990786 0.00379763 0
-1 0.90583 0.1
-1 0.819642 0.1
-1 0.740758 0.1
-1 0.66856 0.1
-1 0.602481 0.1
-1 0.542002 0.1
-1 0.486649 0.1
-1 0.435987 0.1
-1 0.389619 0.1
-1 0.347181 0.1
-1 0.308339 0.1
-1 0.27279 0.1
-1 0.240253 0.1
-1 0.210474 0.1
-1 0.183219 0.1
-1 0.158274 0.1
-1 0.135442 0.1
-1 0.114546 0.1
-1 0.0954213 0.1
-1 0.0779171 0.1
-1 0.0618965 0.1
-1 0.0472336 0.1
-1 0.0338135 0.1
-1 0.0215307 0.1
-1 0.010289 0.1
-0.99 0 0.1
-0.98 0 0.1
-0.97 0 0.1
-0.96 0 0.1
-0.95 0 0.1
-0.94 0 0.1
-0.93 0 0.1
-0.92 0 0.1
-0.91 0 0.1
-0.9 0 0.1
-0.89 0 0.1
-0.88 0 0.1
-0.87 0 0.1
-0.86 0 0.1
-0.85 0 0.1
-0.84 0 0.1
-0.83 0 0.1
-0.82 0 0.1
-0.81 0 0.1
-0.8 0 0.1
-0.79 0 0.1
-0.78 0 0.1
-0.77 0 0.1
-0.76 0 0.1
-0.75 0 0.1
-0.74 0 0.1
-0.73 0 0.1
-0.72 0 0.1
-0.71 0 0.1
-0.7 0 0.1
-0.69 0 0.1
-0.68 0 0.1
-0.67 0 0.1
-0.66 0 0.1
-0.65 0 0.1
-0.64 0 0.1
-0.63 0 0.1
-0.62 0 0.1
-0.61 0 0.1
-0.6 0 0.1
-0.59 0 0.1
-0.58 0 0.1
-0.57 0 0.1
-0.56 0 0.1
-0.55 0 0.1
-0.54 0 0.1
-0.53 0 0.1
-0.52 0 0.1
-0.51 0 0.1
-0.5 0 0.1
-0.49 0 0.1
-0.48 0 0.1
-0.47 0 0.1
-0.46 0 0.1
-0.45 0 0.1
-0.44 0 0.1
-0.43 0 0.1
-0.42 0 0.1
-0.41 0 0.1
-0.4 0 0.1
-0.39 0 0.1
-0.38 0 0.1
-0.37 0 0.1
-0.36 0 0.1
-0.35 0 0.1
-0.34 0 0.1
-0.33 0 0.1
-0.32 0 0.1
-0.31 0 0.1
-0.3 0 0.1
-0.29 0 0.1
-0.28 0 0.1
-0.27 0 0.1
-0.26 0 0.1
-0.25 0 0.1
-0.24 0 0.1
-0.23 0 0.1
-0.22 0 0.1
-0.21 0 0.1
-0.2 0 0.1
-0.19 0 0.1
-0.18 0 0.1
-0.17 0 0.1
-0.16 0 0.1
-0.15 0 0.1
-0.14 0 0.1
-0.13 0 0.1
-0.12 0 0.1
-0.11 0 0.1
-0.1 0 0.1
-0.09 0 0.1
-0.08 0 0.1
-0.07 0 0.1
-0.06 0 0.1
-0.05 0 0.1
-0.04 0 0.1
-0.03 0 0.1
-0.02 0 0.1
-0.01 0 0.1
0.00921362 0.00379763 0.1
0.0184561 0.00752451 0.1
0.0277268 0.0111804 0.1
0.0370253 0.0147652 0.1
0.0463511 0.0182786 0.1
0.0557034 0.0217203 0.1
0.0650819 0.0250903 0.1
0.074486 0.0283883 0.1
0.083915 0.0316141 0.1
0.0933685 0.0347675 0.1
0.102846 0.0378484 0.1
0.112347 0.0408565 0.1
0.12187 0.0437917 0.1
0.131416 0.0466538 0.1
0.140983 0.0494427 0.1
0.150572 0.0521581 0.1
0.160181 0.0547999 0.1
0.16981 0.0573681 0.1
0.179458 0.0598623 0.1
0.189125 0.0622825 0.1
0.198811 0.0646285 0.1
0.208514 0.0669001 0.1
0.218234 0.0690974 0.1
0.227971 0.07122 0.1
0.237724 0.073268 0.1
0.247493 0.0752411 0.1
0.257276 0.0771393 0.1
0.267073 0.0789625 0.1
0.276884 0.0807105 0.1
0.286708 0.0823832 0.1
0.296545 0.0839806 0.1
0.306394 0.0855025 0.1
0.316254 0.0869488 0.1
0.326125 0.0883196 0.1
0.336006 0.0896146 0.1
0.345896 0.0908339 0.1
0.355796 0.0919773 0.1
0.365704 0.0930447 0.1
0.375621 0.0940362 0.1
0.385544 0.0949517 0.1
0.395474 0.095791 0.1
0.40541 0.0965542 0.1
0.415352 0.0972412 0.1
0.425299 0.097852 0.1
0.43525 0.0983865 0.1
0.445205 0.0988447 0.1
0.455164 0.0992266 0.1
0.465125 0.0995321 0.1
0.475088 0.0997613 0.1
0.485052 0.0999141 0.1
0.495017 0.0999904 0.1
0.504983 0.0999904 0.1
0.514948 0.0999141 0.1
0.524912 0.0997613 0.1
0.534875 0.0995321 0.1
0.544836 0.0992266 0.1
0.554795 0.0988447 0.1
0.56475 0.0983865 0.1
0.574701 0.097852 0.1
0.584648 0.0972412 0.1
0.59459 0.0965542 0.1
0.604526 0.095791 0.1
0.614456 0.0949517 0.1
0.624379 0.0940362 0.1
0.634296 0.0930447 0.1
0.644204 0.0919773 0.1
0.654104 0.0908339 0.1
0.663994 0.0896146 0.1
0.673875 0.0883196 0.1
0.683746 0.0869488 0.1
0.693606 0.0855025 0.1
0.703455 0.0839806 0.1
0.713292 0.0823832 0.1
0.723116 0.0807105 0.1
0.732927 0.0789625 0.1
0.742724 0.0771393 0.1
0.752508 0.0752411 0.1
0.762276 0.073268 0.1
0.772029 0.07122 0.1
0.781766 0.0690974 0.1
0.791486 0.0669001 0.1
0.801189 0.0646285 0.1
0.810875 0.0622825 0.1
0.820542 0.0598623 0.1
0.83019 0.0573681 0.1
0.839819 0.0547999 0.1
0.849428 0.0521581 0.1
0.859017 0.0494427 0.1
0.868584 0.0466538 0.1
0.87813 0.0437917 0.1
0.887653 0.0408565 0.1
0.897154 0.0378484 0.1
0.906631 0.0347675 0.1
0.916085 0.0316141 0.1
0.925514 0.0283883 0.1
0.934918 0.0250903 0.1
0.944297 0.0217203 0.1
0.953649 0.0182786 0.1
0.962975 0.0147652 0.1
0.972273 0.0111804 0.1
0.981544 0.00752451 0.1
0.990786 0.00379763 0.1
1.01 0 0.1
1.02 0 0.1
1.03 0 0.1
1.04 0 0.1
1.05 0 0.1
1.06 0 0.1
1.07 0 0.1
1.08 0 0.1
1.09 0 0.1
1.1 0 0.1
1.11 0 0.1
1.12 0 0.1
1.13 0 0.1
1.14 0 0.1
1.15 0 0.1
1.16 0 0.1
1.17 0 0.1
1.18 0 0.1
1.19 0 0.1
1.2 0 0.1
1.21 0 0.1
1.22 0 0.1
1.23 0 0.1
1.24 0 0.1
1.25 0 0.1
1.26 0 0.1
1.27 0 0.1
1.28 0 0.1
1.29 0 0.1
1.3 0 0.1
1.31 0 0.1
1.32 0 0.1
1.33 0 0.1
1.34 0 0.1
1.35 0 0.1
1.36 0 0.1
1.37 0 0.1
1.38 0 0.1
1.39 0 0.1
1.4 0 0.1
1.41 0 0.1
1.42 0 0.1
1.43 0 0.1
1.44 0 0.1
1.45 0 0.1
1.46 0 0.1
1.47 0 0.1
1.48 0 0.1
1.49 0 0.1
1.5 0 0.1
1.51 0 0.1
1.52 0 0.1
1.53 0 0.1
1.54 0 0.1
1.55 0 0.1
1.56 0 0.1
1.57 0 0.1
1.58 0 0.1
1.59 0 0.1
1.6 0 0.1
1.61 0 0.1
1.62 0 0.1
1.63 0 0.1
1.64 0 0.1
1.65 0 0.1
1.66 0 0.1
1.67 0 0.1
1.68 0 0.1
1.69 0 0.1
1.7 0 0.1
1.71 0 0.1
1.72 0 0.1
1.73 0 0.1
1.74 0 0.1
1.75 0 0.1
1.76 0 0.1
1.77 0 0.1
1.78 0 0.1
1.79 0 0.1
1.8 0 0.1
1.81 0 0.1
1.82 0 0.1
1.83 0 0.1
1.84 0 0.1
1.85 0 0.1
1.86 0 0.1
1.87 0 0.1
1.88 0 0.1
[...]
CELL_DATA 7425
SCALARS rho float
LOOKUP_TABLE default
0.594931
0.805429
0.821719
0.829389
0.801039
0.821262
0.822642
0.816634
0.815698
0.741354
0.864522
0.810884
0.816429
0.829246
0.805231
0.81943
0.800226
0.815911
0.803784
0.768929
0.833073
0.822729
0.727703
0.829933
0.804206
0.71012
0.832973
0.851
0.800618
0.809075
0.821139
0.723531
0.803936
0.65848
0.535394
0.8299
0.803795
0.816616
0.811983
0.829776
0.721831
0.71237
0.791961
0.688846
0.596018
0.750414
0.801542
0.816371
0.68038
0.717712
0.746389
0.805552
0.813017
0.800577
0.70433
0.684983
0.824954
0.801205
0.741236
0.704766
0.718069
0.808128
0.815887
0.800809
0.799246
0.819856
0.591847
0.775542
0.682049
0.809033
0.805455
0.803371
0.884186
0.821806
0.811541
0.815754
0.805452
0.800858
0.815888
0.758139
0.818328
0.80771
0.81288
0.789861
0.837308
0.802533
0.58181
0.83166
0.554018
0.849866
0.693011
0.732579
0.847871
0.803471
0.819655
0.762218
0.837599
0.789077
0.827583
0.804087
0.810426
0.738572
0.803573
0.830014
0.603672
0.811884
0.826271
0.71239
0.817418
0.800739
0.81898
0.785924
0.790879
0.812953
0.791703
0.787447
0.833017
0.803264
0.69177
0.667923
0.805447
0.779443
0.815673
0.791403
0.860175
0.841062
0.808184
0.806142
0.666041
0.520287
0.81691
0.661463
0.530309
0.870934
0.681644
0.801134
0.811768
0.727197
0.589468
0.730619
0.728835
0.810997
0.812288
0.701228
0.804401
0.780826
0.572665
0.791174
0.783199
0.82966
0.818535
0.692715
0.804414
0.744604
0.700796
0.803593
0.811277
0.83223
0.799557
0.664352
0.803217
0.69023
0.802557
0.831582
0.822577
0.802689
0.81576
0.786885
0.806829
0.80219
0.821867
0.806132
0.793767
0.800695
0.801055
0.74492
0.805228
0.762677
0.60489
0.688932
0.801191
0.79499
0.880626
0.833507
0.685366
0.824966
0.800192
0.829102
0.801341
0.816002
0.815398
0.803499
0.807505
0.700454
0.817428
0.82137
0.771758
0.79935
0.863807
0.808333
0.813032
0.813883
0.61892
0.841102
0.580541
0.546573
0.601992
0.618005
0.829666
0.880178
0.807982
0.799122
0.842668
0.815714
0.818949
0.822876
0.817602
0.642675
0.601158
0.816286
0.557549
0.603073
0.697132
0.814056
0.816538
0.815754
0.834851
0.815713
0.86726
0.703786
0.836668
0.720918
0.805749
0.804252
0.80253
0.717866
0.726523
0.624347
0.695865
0.864778
0.878891
0.808678
0.808174
0.801145
0.812857
0.723256
0.823694
0.801838
0.827615
0.79543
0.812525
0.719711
0.815602
0.825748
0.744868
0.538637
0.80112
0.7364
0.844838
0.816788
0.724786
0.817939
0.817276
0.851129
0.81207
0.805717
0.803517
0.827606
0.86197
0.807116
0.623966
0.850256
0.813954
0.806033
0.829416
0.838752
0.815622
0.823445
0.794401
0.817488
0.869757
0.851136
0.828852
0.838405
0.803324
0.819438
0.803361
0.760144
0.708348
0.588211
0.691451
0.804592
0.815616
0.818335
0.857435
0.780971
0.650348
0.828993
0.536762
0.776471
0.802424
0.651041
0.638277
0.643714
0.817603
0.815887
0.815712
0.815264
0.828637
0.77557
0.812004
0.803031
0.815712
0.842285
0.870423
0.835256
0.803565
0.691303
0.797961
0.835703
0.695736
0.800277
0.802523
0.865855
0.819382
0.599203
0.815989
0.745542
0.854966
0.736205
0.812701
0.908185
0.80149
0.796959
0.663827
0.640433
0.70631
0.783504
0.828446
0.817357
0.816257
0.886171
0.860573
0.801143
0.801003
0.82673
0.74336
0.803273
0.880302
0.801656
0.80651
0.802237
0.802853
0.815593
0.818087
0.818688
0.643735
0.831524
0.65823
0.809687
0.64679
0.804827
0.802637
0.841735
0.734747
0.816987
0.810898
0.81926
0.800857
0.802771
0.812009
0.707094
0.825163
0.815756
0.815556
0.801008
0.737724
0.567127
0.806875
0.813713
0.803439
0.815683
0.796131
0.596684
0.847749
0.815924
0.80417
0.787798
0.815909
0.805927
0.804327
0.81857
0.807972
0.824551
0.770707
0.814386
0.808313
0.570031
0.804768
0.644722
0.840075
0.641122
0.81709
0.87884
0.609016
0.819297
0.751927
0.804838
0.874249
0.548447
0.825128
0.824319
0.803806
0.827687
0.812276
0.825476
0.832449
0.826778
0.74458
0.829416
0.76189
0.811573
0.795031
0.795702
0.761316
0.806117
0.802301
0.81669
0.75665
0.80581
0.610791
0.620355
0.697713
0.815455
0.845655
0.865982
0.831598
0.80017
0.81543
0.80608
0.820504
0.684751
0.802315
0.745801
0.825572
0.817137
0.807267
0.705615
0.730882
0.544613
0.611077
0.802699
0.616652
0.794979
0.766124
0.772072
0.724866
0.765154
0.770393
0.812036
0.817361
0.821714
0.814178
0.717164
0.62021
0.840597
0.809257
0.784381
0.811683
0.803458
0.838229
0.725952
0.856584
0.764561
0.735073
0.767643
0.813901
0.555666
0.800359
0.843175
0.81469
0.816338
0.812275
0.800808
0.783239
0.837136
0.803361
0.844506
0.723491
0.702142
0.801369
0.797236
0.824073
0.713689
0.849393
0.802126
0.81837
0.800213
0.780511
0.810043
0.600823
0.681691
0.637149
0.815455
0.805587
0.828249
0.751816
0.811106
0.81724
0.822513
0.800556
0.735432
0.799352
0.816162
0.803437
0.712684
0.816171
0.82102
0.841518
0.813482
0.827299
0.86333
0.858412
0.748004
0.60945
0.839373
0.807085
0.844658
0.816722
0.824283
0.816117
0.816354
0.668929
0.807085
0.811461
0.815623
0.793875
0.812334
0.80635
0.863389
0.800242
0.815541
0.817159
0.872947
0.60373
0.816051
0.84465
0.884109
0.540885
0.818721
0.831481
0.796845
0.815389
0.797014
0.868678
0.814072
0.833147
0.814604
0.624902
0.802877
0.804536
0.699582
0.854296
0.759676
0.802552
0.816482
0.815393
0.862517
0.796056
0.835138
0.836432
0.787083
0.826534
0.844436
0.80132
0.812219
0.808662
0.805743
0.81704
0.8029
0.846648
0.770093
0.810326
0.803681
0.817007
0.727408
0.815673
0.820574
0.755138
0.816165
0.818296
0.829377
0.827067
0.802194
0.801787
0.851686
0.768226
0.827158
0.845664
0.804964
0.521724
0.815616
0.830159
0.853545
0.815015
0.803315
0.809589
0.856208
0.780681
0.802945
0.80258
0.815708
0.733987
0.803947
0.831372
0.809957
0.795755
0.796075
0.844726
0.807056
0.846562
0.802242
0.826249
0.81533
0.804579
0.843149
0.815584
0.686634
0.820982
0.807569
0.815402
0.906686
0.801844
0.817947
0.801438
0.80156
0.81854
0.801656
0.803792
0.783943
0.747391
0.808947
0.815681
0.7607
0.793957
0.825036
0.813548
0.824323
0.80742
0.827726
0.876202
0.832464
0.592755
0.712024
0.842332
0.819564
0.845593
0.817161
0.851393
0.809053
0.814167
0.800815
0.839984
0.862132
0.854131
0.735736
0.816607
0.824178
0.743424
0.818939
0.776928
0.801264
0.73692
0.81841
0.832678
0.824176
0.864851
0.816684
0.815942
0.812669
0.817061
0.837316
0.812757
0.800152
0.810749
0.741707
0.81408
0.774638
0.834468
0.814536
0.643485
0.778938
0.812754
0.800637
0.821988
0.804094
0.817094
0.819576
0.805717
0.821546
0.804533
0.807647
0.609185
0.848498
0.827086
0.828631
0.816659
0.803532
0.705365
0.80846
0.908371
0.816067
0.802757
0.815463
0.783555
0.809094
0.815778
0.82339
0.815239
0.815885
0.818579
0.682235
0.780465
0.767747
0.815347
0.806485
0.80274
0.626939
0.807488
0.804161
0.712938
0.838871
0.819476
0.803409
0.809048
0.800661
0.819492
0.815785
0.815937
0.815679
0.712881
0.833334
0.800949
0.809235
0.84456
0.819317
0.818607
0.801576
0.75407
0.825743
0.789962
0.823516
0.790442
0.807528
0.823071
0.738602
0.819467
0.665842
0.873055
0.708199
0.846495
0.803239
0.87605
0.794877
0.802535
0.822801
0.837916
0.839708
0.827315
0.82199
0.81705
0.803415
0.804801
0.809216
0.732861
0.828562
0.8005
0.718211
0.832185
0.687248
0.80168
0.863245
0.806075
0.710984
0.798671
0.816609
0.698459
0.785971
0.821541
0.833409
0.80944
0.629445
0.735269
0.813038
0.80308
0.815709
0.802094
0.740104
0.816499
0.818094
0.815268
0.777542
0.803523
0.804955
0.805437
0.567686
0.815515
0.835352
0.591214
0.817583
0.818454
0.81715
0.820587
0.816888
0.826519
0.800744
0.795752
0.771101
0.824093
0.830865
0.826291
0.837267
0.767845
0.811578
0.731484
0.773532
0.810477
0.823187
0.815914
0.801326
0.860933
0.815707
0.802761
0.812205
0.81841
0.817599
0.838302
0.81697
0.815544
0.812489
0.81637
0.801897
0.82309
0.804211
0.824881
0.816079
0.5867
0.816118
0.836187
0.860691
0.839634
0.512897
0.819109
0.806469
0.513073
0.677586
0.658884
0.835885
0.809844
0.812166
0.815471
0.803345
0.819057
0.812148
0.545455
0.694993
0.819295
0.807071
0.817979
0.803817
0.810924
0.813607
0.822307
0.800764
0.70178
0.858749
0.8033
0.815328
0.816165
0.760196
0.50838
0.834654
0.814824
0.741338
0.802859
0.808204
0.605951
0.828971
0.81717
0.829621
0.820989
0.827997
0.805129
0.727155
0.64818
0.56937
0.827287
0.810404
0.783544
0.8157
0.782455
0.82014
0.87423
0.764715
0.823703
0.816004
0.827766
0.884428
0.816903
0.814456
0.803803
0.814391
0.697963
0.830094
0.801137
0.812113
0.802756
0.785316
0.855487
0.824096
0.841798
0.823619
0.757319
0.757851
0.805055
0.820271
0.803253
0.805659
0.803176
0.778461
0.817112
0.764392
0.822974
0.666403
0.816474
0.803492
0.734256
0.824778
0.819974
0.742716
0.801754
0.759914
0.884283
0.801055
0.815652
0.76539
0.801798
0.816768
0.8043
0.596725
0.822319
0.800616
0.803777
0.816996
0.827487
0.760204
0.807211
0.843891
0.828853
0.815219
0.83753
0.681026
0.703692
0.81571
0.746836
0.82429
0.773599
0.815639
0.802942
0.812271
0.754548
0.794881
0.767216
0.81238
0.803298
0.635888
0.780033
0.799661
0.851527
0.816854
0.830525
0.539854
0.826035
0.786379
0.859979
0.801311
0.819236
0.801971
0.788033
0.800258
0.827557
0.837134
0.823129
0.819362
0.702432
0.776491
0.817522
0.805788
0.812716
0.804264
0.698561
0.794892
0.804606
0.812384
0.828811
0.85238
0.833641
0.816077
0.801005
0.805639
0.80324
0.7811
0.617617
0.802725
0.736113
0.666824
0.824769
0.800269
0.777461
0.80145
0.756673
0.786325
0.814272
0.823755
0.805446
0.818322
0.819286
0.82223
0.816016
0.810377
0.715293
0.703084
0.64546
0.831134
0.870612
0.816994
0.842925
0.849221
0.864769
0.741392
0.818633
0.864109
0.812321
0.815697
0.81809
0.736691
0.814802
0.808495
0.807939
0.530613
0.815713
0.76346
0.815805
0.814426
0.803836
0.700127
0.815835
0.616517
0.826393
0.803633
0.823775
0.856468
0.803752
0.796079
0.823048
0.814112
0.806715
0.764442
0.526977
0.822989
0.803555
0.831033
0.827702
0.804532
0.807486
0.836002
0.725055
0.520126
0.887055
0.802805
0.818066
0.804712
0.705809
0.800156
0.801523
0.817488
0.741712
0.651072
0.884045
0.71793
0.83822
0.814582
0.834647
0.844184
0.794739
0.80512
0.816135
0.853944
0.741067
0.871637
0.816542
0.570155
0.804165
0.748247
0.854253
0.763485
0.804592
0.804291
0.801023
0.802303
0.811449
0.81571
0.857896
0.807657
0.803036
0.801581
0.801414
0.815056
0.819174
0.802825
0.815303
0.850621
0.803239
0.785706
0.802552
0.841623
0.732048
0.816208
0.816337
0.677323
0.716892
0.806173
0.824988
0.805453
0.526994
0.859019
0.815704
0.834991
0.805714
0.803558
0.801971
0.788657
0.59291
0.804875
0.818449
0.837248
0.822696
0.815715
0.800631
0.751184
0.802198
0.769312
0.788604
0.800835
0.791797
0.751158
0.802177
0.813167
0.812943
0.833705
0.851437
0.563576
0.843463
0.815669
0.821442
0.803316
0.823338
0.8139
0.895315
0.802076
0.870211
0.806241
0.762951
0.863167
0.802691
0.800617
0.82608
0.664985
0.64995
0.803685
0.804247
0.683632
0.658829
0.800268
0.825843
0.815754
0.824642
0.737305
0.81899
0.815527
0.828075
0.819012
0.812474
0.81569
0.757155
0.805517
0.818018
0.814154
0.680177
0.574124
0.815727
0.654435
0.724922
0.563261
0.842941
0.801557
0.544224
0.606902
0.829027
0.908603
0.820369
0.656962
0.816642
0.788672
0.803061
0.78756
0.822589
0.812292
0.789339
0.823096
0.803388
0.595428
0.820064
0.769341
0.818228
0.694904
0.824276
0.791949
0.816459
0.80164
0.667343
0.844792
0.808396
0.80835
0.512855
0.819129
0.801725
0.854757
0.707755
0.819371
0.605188
0.726555
0.802704
0.798761
0.738777
0.72042
0.711933
0.525448
0.622169
0.801641
0.535607
0.824654
0.552708
0.759678
0.679568
0.625737
0.556639
0.748137
0.80326
0.710407
0.823397
0.801927
0.804102
0.763639
0.890445
0.800614
0.826457
0.803837
0.815588
0.709437
0.809151
0.739585
0.823988
0.88686
0.835161
0.750764
0.824817
0.772991
0.880727
0.804555
0.761092
0.852069
0.77926
0.800295
0.807093
0.760697
0.749601
0.682983
0.805375
0.803222
0.820073
0.835207
0.616597
0.80972
0.550674
0.672748
0.631564
0.820347
0.82314
0.811531
0.804338
0.620934
0.873373
0.802872
0.803102
0.86468
0.815248
0.77399
0.814983
0.802637
0.820147
0.803277
0.720298
0.804621
0.667593
0.800438
0.806281
0.802095
0.643664
0.813449
0.812096
0.726638
0.81951
0.559385
0.584132
0.804572
0.700172
0.7289
0.579198
0.728414
0.816197
0.698601
0.774627
0.713283
0.814467
0.674546
0.764535
0.807512
0.813049
0.661571
0.802388
0.895853
0.79754
0.8191
0.598522
0.697909
0.803344
0.815712
0.816506
0.85288
0.815311
0.804803
0.804174
0.803626
0.717821
0.714767
0.621776
0.774326
0.552905
0.72147
0.812443
0.81684
0.807782
0.800858
0.610874
0.811561
0.804106
0.564474
0.557093
0.749244
0.803916
0.808368
0.558238
0.799303
0.577655
0.728025
0.614244
0.814814
0.803537
0.603964
0.614248
0.868953
0.81126
0.767812
0.722714
0.633837
0.659788
0.702769
0.818295
0.762176
0.765434
0.62975
0.756827
0.81177
0.817747
0.815242
0.817862
0.868447
0.757942
0.821103
0.803919
0.852558
0.815679
0.803034
0.815743
0.719468
0.815224
0.814304
0.817478
0.813505
0.818161
0.803519
0.820128
0.812775
0.812163
0.819489
0.800523
0.818839
0.82114
0.671818
0.820809
0.869488
0.820383
0.793731
0.650603
0.859814
0.82099
0.826864
0.801058
0.814021
0.757635
0.853892
0.59037
0.733281
0.810393
0.818038
0.804243
0.803644
0.833826
0.806601
0.806398
0.817668
0.782796
0.840176
0.843444
0.817198
0.668729
0.633888
0.818128
0.81888
0.790988
0.851027
0.8486
0.812671
0.815918
0.780198
0.816534
0.820049
0.816573
0.820974
0.81484
0.818185
0.85241
0.818322
0.81682
0.819813
0.819996
0.786064
0.816423
0.805652
0.805956
0.80609
0.820778
0.814256
0.790584
0.753828
0.815278
0.806719
0.81131
0.806828
0.858878
0.804688
0.816427
0.81542
0.806515
0.683552
0.804271
0.815478
0.816765
0.810875
0.815534
0.8159
0.815716
0.81068
0.865412
0.519248
0.815574
0.84314
0.815359
0.803491
0.80933
0.817424
0.841272
0.801948
0.80296
0.814295
0.685388
0.815602
0.80964
0.809077
0.815197
0.815593
0.815708
0.815982
0.528764
0.812965
0.723504
0.886631
0.82307
0.732046
0.68905
0.817756
0.804815
0.820251
0.651167
0.80251
0.81596
0.652549
0.801376
0.804688
0.817299
0.808029
0.858008
0.81034
0.612867
0.802043
0.775628
0.811824
0.88984
0.805278
0.816108
0.820679
0.833607
0.816013
0.824455
0.837953
0.640037
0.804762
0.660313
0.816294
0.816205
0.708027
0.816103
0.807061
0.709504
0.817008
0.708983
0.862268
0.785082
0.816783
0.815654
0.816011
0.674059
0.816222
0.637794
0.801386
0.793301
0.82432
0.817587
0.720564
0.76714
0.831873
0.815374
0.822863
0.823972
0.816042
0.827289
0.800897
0.560011
0.754641
0.762166
0.729571
0.839248
0.824296
0.835756
0.779138
0.803057
0.815743
0.815706
0.815702
0.776385
0.571247
0.803459
0.545604
0.810136
0.826206
0.801192
0.804092
0.814849
0.806599
0.785072
0.734231
0.815999
0.860257
0.815615
0.800673
0.735792
0.811145
0.789728
0.83511
0.527796
0.796631
0.808286
0.800357
0.698601
0.815514
0.812901
0.859634
0.576111
0.807889
0.803507
0.815407
0.625144
0.815761
0.803567
0.803676
0.803308
0.815851
0.815929
0.818391
0.815746
0.713763
0.804941
0.803431
0.815721
0.896829
0.815807
0.776456
0.842876
0.799599
0.803325
0.60747
0.815633
0.803603
0.827574
0.802947
0.867333
0.816766
0.855665
0.801864
0.82273
0.779366
0.566765
0.756271
0.796592
0.806323
0.81446
0.816311
0.563775
0.862826
0.86045
0.771556
0.758615
0.738134
0.813945
0.850404
0.815661
0.814996
0.815694
0.804641
0.725521
0.803833
0.800532
0.764387
0.826218
0.825021
0.862874
0.817964
0.815713
0.589548
0.809367
0.815675
0.801955
0.776213
0.818669
0.803287
0.815479
0.828789
0.799162
0.804781
0.802223
0.817201
0.840676
0.803897
0.800501
0.803155
0.766099
0.822001
0.574882
0.869337
0.804068
0.554473
0.804541
0.80508
0.821223
0.625054
0.612535
0.802849
0.805253
0.802248
0.86178
0.780851
0.816753
0.803258
0.86874
0.805097
0.804813
0.827855
0.81807
0.821906
0.823326
0.822413
0.868441
0.732299
0.853327
0.819426
0.658321
0.803758
0.803533
0.804003
0.823202
0.825474
0.80512
0.802431
0.801444
0.824702
0.804335
0.804012
0.801122
0.826354
0.804318
0.802719
0.806516
0.829692
0.80219
0.802819
0.826285
0.80089
0.817754
0.655991
0.828296
0.851104
0.805924
0.821718
0.803645
0.830588
0.839117
0.803666
0.82353
0.801619
0.808566
0.790315
0.802826
0.804313
0.806782
0.807001
0.805999
0.820702
0.81717
0.81187
0.833178
0.803737
0.802669
0.80131
0.789758
0.835444
0.803587
0.821453
0.817589
0.8081
0.806385
0.803125
0.840434
0.867622
0.801034
0.682863
0.802119
0.843671
0.818871
0.806799
0.804824
0.820882
0.845983
0.628432
0.830729
0.796788
0.852959
0.82089
0.812771
0.814378
0.80979
0.804304
0.813687
0.809473
0.597525
0.849387
0.795596
0.81666
0.855872
0.821431
0.76555
0.809719
0.816901
0.817684
0.803492
0.66628
0.810929
0.864293
0.804494
0.801739
0.77823
0.872153
0.801372
0.877951
0.808486
0.819405
0.822709
0.80393
0.805012
0.815271
0.818204
0.805111
0.815884
0.818384
0.882199
0.821898
0.809799
0.801729
0.830085
0.811027
0.840913
0.810055
0.807391
0.813875
0.818835
0.831486
0.816148
0.824448
0.833915
0.815887
0.707703
0.699497
0.815688
0.819964
0.805514
0.815688
0.534509
0.855993
0.801022
0.806654
0.816316
0.816
0.804402
0.815074
0.801815
0.802302
0.809467
0.81658
0.760388
0.786678
0.824939
0.844901
0.836219
0.801681
0.807267
0.803627
0.813529
0.806851
0.800961
0.801111
0.802
0.812607
0.798553
0.804345
0.837157
0.833266
0.735404
0.687931
0.808277
0.708197
0.801064
0.599008
0.804903
0.807974
0.804574
0.820362
0.835732
0.816427
0.815562
0.810837
0.804386
0.882385
0.818569
0.80651
0.773942
0.608
0.810735
0.808255
0.771258
0.816856
0.816386
0.792346
0.801365
0.80446
0.654174
0.831917
0.803796
0.784315
0.780771
0.853915
0.810465
0.804459
0.804287
0.811949
0.811735
0.536506
0.802762
0.841072
0.81643
0.799369
0.598343
0.815896
0.816548
0.815705
0.835435
0.816415
0.804596
0.823939
0.80705
0.582735
0.80939
0.741199
0.799414
0.816179
0.72489
0.817325
0.848259
0.832817
0.668967
0.891611
0.786749
0.780224
0.797613
0.780309
0.809884
0.852301
0.809557
0.8035
0.816107
0.811323
0.78391
0.787058
0.816335
0.809981
0.836064
0.823234
0.836948
0.803575
0.801265
0.815738
0.857865
0.818419
0.819875
0.815942
0.612974
0.796333
0.825743
0.830781
0.866997
0.815352
0.8203
0.526815
0.812231
0.801901
0.815157
0.816575
0.848914
0.815707
0.81161
0.882316
0.767037
0.8135
0.815822
0.811448
0.805749
0.816685
0.660389
0.801129
0.850906
0.834716
0.812177
0.815767
0.815955
0.810049
0.707026
0.814738
0.801754
0.840165
0.820621
0.813391
0.832889
0.795135
0.81383
0.819979
0.810552
0.821428
0.748782
0.857004
0.821115
0.815512
0.815718
0.815388
0.817946
0.819341
0.815449
0.813105
0.842555
0.820757
0.801636
0.826443
0.828677
0.817753
0.815515
0.801764
0.80246
0.815729
0.82118
0.830623
0.815508
0.818663
0.801403
0.812313
0.815555
0.815454
0.802827
0.817083
0.815899
0.80395
0.815589
0.837268
0.80063
0.811821
0.823344
0.569756
0.816651
0.820342
0.817583
0.817261
0.823979
0.830505
0.81792
0.820998
0.705071
0.815743
0.802388
0.817956
0.820667
0.836307
0.823616
0.817146
0.831187
0.826882
0.813328
0.819759
0.821342
0.806536
0.815803
0.817943
0.820634
0.833858
0.815248
0.818028
0.802987
0.815667
0.815693
0.543278
0.637407
0.814937
0.823498
0.803014
0.824393
0.818226
0.843347
0.711547
0.816263
0.734888
0.81924
0.812718
0.815798
0.830963
0.816185
0.806664
0.815644
0.831608
0.841527
0.815398
0.722411
0.82039
0.81831
0.801208
0.80321
0.817672
0.857115
0.815316
0.815962
0.851006
0.830508
0.844517
0.590649
0.830895
0.816426
0.813265
0.819631
0.85292
0.819975
0.721463
0.800975
0.832931
0.801393
0.801093
0.806391
0.750445
0.81598
0.816749
0.730217
0.816743
0.828501
0.815875
0.816435
0.800709
0.820537
0.815704
0.825327
0.809182
0.810337
0.817205
0.690982
0.821224
0.816497
0.815703
0.647532
0.71526
0.60526
0.824428
0.561215
0.856288
0.730245
0.844254
0.815129
0.730178
0.822945
0.818123
0.745242
0.808628
0.820536
0.794852
0.818741
0.818182
0.818112
0.815697
0.810344
0.803967
0.74006
0.838155
0.822205
0.818838
0.800547
0.816454
0.803763
0.818317
0.815979
0.856905
0.819948
0.538124
0.815552
0.820946
0.82083
0.779298
0.816749
0.807165
0.819552
0.847631
0.603308
0.810742
0.800847
0.817672
0.819821
0.819878
0.81509
0.820767
0.81612
0.816873
0.803359
0.816554
0.847554
0.816322
0.792833
0.813976
0.628156
0.716596
0.815741
0.819234
0.803668
0.824326
0.734916
0.803295
0.803296
0.822308
0.686866
0.819812
0.80092
0.817767
0.8676
0.786582
0.823984
0.820175
0.824585
0.816498
0.771307
0.802839
0.816086
0.902877
0.828349
0.81871
0.833407
0.812214
0.871289
0.716536
0.687965
0.854417
0.802935
0.687661
0.852324
0.787121
0.833204