# vtk DataFile Version 1.0
unstructured grid
ascii
DATASET UNSTRUCTURED_GRID
points 7812 float
-1 0 0
-1 1 0
2 0 0
2 1 0
0 0 0
1 0 0
-1 1 0.1
-1 0 0.1
0 0 0.1
1 0 0.1
2 0 0.1
2 1 0.1
-0.99 0 0
-0.98 0 0
-0.97 0 0
-0.96 0 0
-0.95 0 0
-0.94 0 0
-0.93 0 0
-0.92 0 0
-0.91 0 0
-0.9 0 0
-0.89 0 0
-0.88 0 0
-0.87 0 0
-0.86 0 0
-0.85 0 0
-0.84 0 0
-0.83 0 0
-0.82 0 0
-0.81 0 0
-0.8 0 0
-0.79 0 0
-0.78 0 0
-0.77 0 0
-0.76 0 0
-0.75 0 0
-0.74 0 0
-0.73 0 0
-0.72 0 0
-0.71 0 0
-0.7 0 0
-0.69 0 0
-0.68 0 0
-0.67 0 0
-0.66 0 0
-0.65 0 0
-0.64 0 0
-0.63 0 0
-0.62 0 0
-0.61 0 0
-0.6 0 0
-0.59 0 0
-0.58 0 0
-0.57 0 0
-0.56 0 0
-0.55 0 0
-0.54 0 0
-0.53 0 0
-0.52 0 0
-0.51 0 0
-0.5 0 0
-0.49 0 0
-0.48 0 0
-0.47 0 0
-0.46 0 0
-0.45 0 0
-0.44 0 0
-0.43 0 0
-0.42 0 0
-0.41 0 0
-0.4 0 0
-0.39 0 0
-0.38 0 0
-0.37 0 0
-0.36 0 0
-0.35 0 0
-0.34 0 0
-0.33 0 0
-0.32 0 0
-0.31 0 0
-0.3 0 0
-0.29 0 0
-0.28 0 0
-0.27 0 0
-0.26 0 0
-0.25 0 0
-0.24 0 0
-0.23 0 0
-0.22 0 0
-0.21 0 0
-0.2 0 0
-0.19 0 0
-0.18 0 0
-0.17 0 0
-0.16 0 0
-0.15 0 0
-0.14 0 0
-0.13 0 0
-0.12 0 0
-0.11 0 0
-0.1 0 0
-0.09 0 0
-0.08 0 0
-0.07 0 0
-0.06 0 0
-0.05 0 0
-0.04 0 0
-0.03 0 0
-0.02 0 0
-0.01 0 0
1.01 0 0
1.02 0 0
1.03 0 0
1.04 0 0
1.05 0 0
1.06 0 0
1.07 0 0
1.08 0 0
1.09 0 0
1.1 0 0
1.11 0 0
1.12 0 0
1.13 0 0
1.14 0 0
1.15 0 0
1.16 0 0
1.17 0 0
1.18 0 0
1.19 0 0
1.2 0 0
1.21 0 0
1.22 0 0
1.23 0 0
1.24 0 0
1.25 0 0
1.26 0 0
1.27 0 0
1.28 0 0
1.29 0 0
1.3 0 0
1.31 0 0
1.32 0 0
1.33 0 0
1.34 0 0
1.35 0 0
1.36 0 0
1.37 0 0
1.38 0 0
1.39 0 0
1.4 0 0
1.41 0 0
1.42 0 0
1.43 0 0
1.44 0 0
1.45 0 0
1.46 0 0
1.47 0 0
1.48 0 0
1.49 0 0
1.5 0 0
1.51 0 0
1.52 0 0
1.53 0 0
1.54 0 0
1.55 0 0
1.56 0 0
1.57 0 0
1.58 0 0
1.59 0 0
1.6 0 0
1.61 0 0
1.62 0 0
1.63 0 0
1.64 0 0
1.65 0 0
1.66 0 0
1.67 0 0
1.68 0 0
1.69 0 0
1.7 0 0
1.71 0 0
1.72 0 0
1.73 0 0
1.74 0 0
1.75 0 0
1.76 0 0
1.77 0 0
1.78 0 0
1.79 0 0
1.8 0 0
1.81 0 0
1.82 0 0
1.83 0 0
1.84 0 0
1.85 0 0
1.86 0 0
1.87 0 0
1.88 0 0
1.89 0 0
1.9 0 0
1.91 0 0
1.92 0 0
1.93 0 0
1.94 0 0
1.95 0 0
1.96 0 0
1.97 0 0
1.98 0 0
1.99 0 0
2 0.010289 0
2 0.0215307 0
2 0.0338135 0
2 0.0472336 0
2 0.0618965 0
2 0.0779171 0
2 0.0954213 0
2 0.114546 0
2 0.135442 0
2 0.158274 0
2 0.183219 0
2 0.210474 0
2 0.240253 0
2 0.27279 0
2 0.308339 0
2 0.347181 0
2 0.389619 0
2 0.435987 0
2 0.486649 0
2 0.542002 0
2 0.602481 0
2 0.66856 0
2 0.740758 0
2 0.819642 0
2 0.90583 0
1.9 1 0
1.8 1 0
1.7 1 0
1.6 1 0
1.5 1 0
1.4 1 0
1.3 1 0
1.2 1 0
1.1 1 0
1 1 0
0.9 1 0
0.8 1 0
0.7 1 0
0.6 1 0
0.5 1 0
0.4 1 0
0.3 1 0
0.2 1 0
0.1 1 0
3.69793e-12 1 0
-0.1 1 0
-0.2 1 0
-0.3 1 0
-0.4 1 0
-0.5 1 0
-0.6 1 0
-0.7 1 0
-0.8 1 0
-0.9 1 0
-1 0.90583 0
-1 0.819642 0
-1 0.740758 0
-1 0.66856 0
-1 0.602481 0
-1 0.542002 0
-1 0.486649 0
-1 0.435987 0
-1 0.389619 0
-1 0.347181 0
-1 0.308339 0
-1 0.27279 0
-1 0.240253 0
-1 0.210474 0
-1 0.183219 0
-1 0.158274 0
-1 0.135442 0
-1 0.114546 0
-1 0.0954213 0
-1 0.0779171 0
-1 0.0618965 0
-1 0.0472336 0
-1 0.0338135 0
-1 0.0215307 0
-1 0.010289 0
0.00921362 0.00379763 0
0.0184561 0.00752451 0
0.0277268 0.0111804 0
0.0370253 0.0147652 0
0.0463511 0.0182786 0
0.0557034 0.0217203 0
0.0650819 0.0250903 0
0.074486 0.0283883 0
0.083915 0.0316141 0
0.0933685 0.0347675 0
0.102846 0.0378484 0
0.112347 0.0408565 0
0.12187 0.0437917 0
0.131416 0.0466538 0
0.140983 0.0494427 0
0.150572 0.0521581 0
0.160181 0.0547999 0
0.16981 0.0573681 0
0.179458 0.0598623 0
0.189125 0.0622825 0
0.198811 0.0646285 0
0.208514 0.0669001 0
0.218234 0.0690974 0
0.227971 0.07122 0
0.237724 0.073268 0
0.247493 0.0752411 0
0.257276 0.0771393 0
0.267073 0.0789625 0
0.276884 0.0807105 0
0.286708 0.0823832 0
0.296545 0.0839806 0
0.306394 0.0855025 0
0.316254 0.0869488 0
0.326125 0.0883196 0
0.336006 0.0896146 0
0.345896 0.0908339 0
0.355796 0.0919773 0
0.365704 0.0930447 0
0.375621 0.0940362 0
0.385544 0.0949517 0
0.395474 0.095791 0
0.40541 0.0965542 0
0.415352 0.0972412 0
0.425299 0.097852 0
0.43525 0.0983865 0
0.445205 0.0988447 0
0.455164 0.0992266 0
0.465125 0.0995321 0
0.475088 0.0997613 0
0.485052 0.0999141 0
0.495017 0.0999904 0
0.504983 0.0999904 0
0.514948 0.0999141 0
0.524912 0.0997613 0
0.534875 0.0995321 0
0.544836 0.0992266 0
0.554795 0.0988447 0
0.56475 0.0983865 0
0.574701 0.097852 0
0.584648 0.0972412 0
0.59459 0.0965542 0
0.604526 0.095791 0
0.614456 0.0949517 0
0.624379 0.0940362 0
0.634296 0.0930447 0
0.644204 0.0919773 0
0.654104 0.0908339 0
0.663994 0.0896146 0
0.673875 0.0883196 0
0.683746 0.0869488 0
0.693606 0.0855025 0
0.703455 0.0839806 0
0.713292 0.0823832 0
0.723116 0.0807105 0
0.732927 0.0789625 0
0.742724 0.0771393 0
0.752508 0.0752411 0
0.762276 0.073268 0
0.772029 0.07122 0
0.781766 0.0690974 0
0.791486 0.0669001 0
0.801189 0.0646285 0
0.810875 0.0622825 0
0.820542 0.0598623 0
0.83019 0.0573681 0
0.839819 0.0547999 0
0.849428 0.0521581 0
0.859017 0.0494427 0
0.868584 0.0466538 0
0.87813 0.0437917 0
0.887653 0.0408565 0
0.897154 0.0378484 0
0.906631 0.0347675 0
0.916085 0.0316141 0
0.925514 0.0283883 0
0.934918 0.0250903 0
0.944297 0.0217203 0
0.953649 0.0182786 0
0.962975 0.0147652 0
0.972273 0.0111804 0
0.981544 0.00752451 0
0.990786 0.00379763 0
-1 0.90583 0.1
-1 0.819642 0.1
-1 0.740758 0.1
-1 0.66856 0.1
-1 0.602481 0.1
-1 0.542002 0.1
-1 0.486649 0.1
-1 0.435987 0.1
-1 0.389619 0.1
-1 0.347181 0.1
-1 0.308339 0.1
-1 0.27279 0.1
-1 0.240253 0.1
-1 0.210474 0.1
-1 0.183219 0.1
-1 0.158274 0.1
-1 0.135442 0.1
-1 0.114546 0.1
-1 0.0954213 0.1
-1 0.0779171 0.1
-1 0.0618965 0.1
-1 0.0472336 0.1
-1 0.0338135 0.1
-1 0.0215307 0.1
-1 0.010289 0.1
-0.99 0 0.1
-0.98 0 0.1
-0.97 0 0.1
-0.96 0 0.1
-0.95 0 0.1
-0.94 0 0.1
-0.93 0 0.1
-0.92 0 0.1
-0.91 0 0.1
-0.9 0 0.1
-0.89 0 0.1
-0.88 0 0.1
-0.87 0 0.1
-0.86 0 0.1
-0.85 0 0.1
-0.84 0 0.1
-0.83 0 0.1
-0.82 0 0.1
-0.81 0 0.1
-0.8 0 0.1
-0.79 0 0.1
-0.78 0 0.1
-0.77 0 0.1
-0.76 0 0.1
-0.75 0 0.1
-0.74 0 0.1
-0.73 0 0.1
-0.72 0 0.1
-0.71 0 0.1
-0.7 0 0.1
-0.69 0 0.1
-0.68 0 0.1
-0.67 0 0.1
-0.66 0 0.1
-0.65 0 0.1
-0.64 0 0.1
-0.63 0 0.1
-0.62 0 0.1
-0.61 0 0.1
-0.6 0 0.1
-0.59 0 0.1
-0.58 0 0.1
-0.57 0 0.1
-0.56 0 0.1
-0.55 0 0.1
-0.54 0 0.1
-0.53 0 0.1
-0.52 0 0.1
-0.51 0 0.1
-0.5 0 0.1
-0.49 0 0.1
-0.48 0 0.1
-0.47 0 0.1
-0.46 0 0.1
-0.45 0 0.1
-0.44 0 0.1
-0.43 0 0.1
-0.42 0 0.1
-0.41 0 0.1
-0.4 0 0.1
-0.39 0 0.1
-0.38 0 0.1
-0.37 0 0.1
-0.36 0 0.1
-0.35 0 0.1
-0.34 0 0.1
-0.33 0 0.1
-0.32 0 0.1
-0.31 0 0.1
-0.3 0 0.1
-0.29 0 0.1
-0.28 0 0.1
-0.27 0 0.1
-0.26 0 0.1
-0.25 0 0.1
-0.24 0 0.1
-0.23 0 0.1
-0.22 0 0.1
-0.21 0 0.1
-0.2 0 0.1
-0.19 0 0.1
-0.18 0 0.1
-0.17 0 0.1
-0.16 0 0.1
-0.15 0 0.1
-0.14 0 0.1
-0.13 0 0.1
-0.12 0 0.1
-0.11 0 0.1
-0.1 0 0.1
-0.09 0 0.1
-0.08 0 0.1
-0.07 0 0.1
-0.06 0 0.1
-0.05 0 0.1
-0.04 0 0.1
-0.03 0 0.1
-0.02 0 0.1
-0.01 0 0.1
0.00921362 0.00379763 0.1
0.0184561 0.00752451 0.1
0.0277268 0.0111804 0.1
0.0370253 0.0147652 0.1
0.0463511 0.0182786 0.1
0.0557034 0.0217203 0.1
0.0650819 0.0250903 0.1
0.074486 0.0283883 0.1
0.083915 0.0316141 0.1
0.0933685 0.0347675 0.1
0.102846 0.0378484 0.1
0.112347 0.0408565 0.1
0.12187 0.0437917 0.1
0.131416 0.0466538 0.1
0.140983 0.0494427 0.1
0.150572 0.0521581 0.1
0.160181 0.0547999 0.1
0.16981 0.0573681 0.1
0.179458 0.0598623 0.1
0.189125 0.0622825 0.1
0.198811 0.0646285 0.1
0.208514 0.0669001 0.1
0.218234 0.0690974 0.1
0.227971 0.07122 0.1
0.237724 0.073268 0.1
0.247493 0.0752411 0.1
0.257276 0.0771393 0.1
0.267073 0.0789625 0.1
0.276884 0.0807105 0.1
0.286708 0.0823832 0.1
0.296545 0.0839806 0.1
0.306394 0.0855025 0.1
0.316254 0.0869488 0.1
0.326125 0.0883196 0.1
0.336006 0.0896146 0.1
0.345896 0.0908339 0.1
0.355796 0.0919773 0.1
0.365704 0.0930447 0.1
0.375621 0.0940362 0.1
0.385544 0.0949517 0.1
0.395474 0.095791 0.1
0.40541 0.0965542 0.1
0.415352 0.0972412 0.1
0.425299 0.097852 0.1
0.43525 0.0983865 0.1
0.445205 0.0988447 0.1
0.455164 0.0992266 0.1
0.465125 0.0995321 0.1
0.475088 0.0997613 0.1
0.485052 0.0999141 0.1
0.495017 0.0999904 0.1
0.504983 0.0999904 0.1
0.514948 0.0999141 0.1
0.524912 0.0997613 0.1
0.534875 0.0995321 0.1
0.544836 0.0992266 0.1
0.554795 0.0988447 0.1
0.56475 0.0983865 0.1
0.574701 0.097852 0.1
0.584648 0.0972412 0.1
0.59459 0.0965542 0.1
0.604526 0.095791 0.1
0.614456 0.0949517 0.1
0.624379 0.0940362 0.1
0.634296 0.0930447 0.1
0.644204 0.0919773 0.1
0.654104 0.0908339 0.1
0.663994 0.0896146 0.1
0.673875 0.0883196 0.1
0.683746 0.0869488 0.1
0.693606 0.0855025 0.1
0.703455 0.0839806 0.1
0.713292 0.0823832 0.1
0.723116 0.0807105 0.1
0.732927 0.0789625 0.1
0.742724 0.0771393 0.1
0.752508 0.0752411 0.1
0.762276 0.073268 0.1
0.772029 0.07122 0.1
0.781766 0.0690974 0.1
0.791486 0.0669001 0.1
0.801189 0.0646285 0.1
0.810875 0.0622825 0.1
0.820542 0.0598623 0.1
0.83019 0.0573681 0.1
0.839819 0.0547999 0.1
0.849428 0.0521581 0.1
0.859017 0.0494427 0.1
0.868584 0.0466538 0.1
0.87813 0.0437917 0.1
0.887653 0.0408565 0.1
0.897154 0.0378484 0.1
0.906631 0.0347675 0.1
0.916085 0.0316141 0.1
0.925514 0.0283883 0.1
0.934918 0.0250903 0.1
0.944297 0.0217203 0.1
0.953649 0.0182786 0.1
0.962975 0.0147652 0.1
0.972273 0.0111804 0.1
0.981544 0.00752451 0.1
0.990786 0.00379763 0.1
1.01 0 0.1
1.02 0 0.1
1.03 0 0.1
1.04 0 0.1
1.05 0 0.1
1.06 0 0.1
1.07 0 0.1
1.08 0 0.1
1.09 0 0.1
1.1 0 0.1
1.11 0 0.1
1.12 0 0.1
1.13 0 0.1
1.14 0 0.1
1.15 0 0.1
1.16 0 0.1
1.17 0 0.1
1.18 0 0.1
1.19 0 0.1
1.2 0 0.1
1.21 0 0.1
1.22 0 0.1
1.23 0 0.1
1.24 0 0.1
1.25 0 0.1
1.26 0 0.1
1.27 0 0.1
1.28 0 0.1
1.29 0 0.1
1.3 0 0.1
1.31 0 0.1
1.32 0 0.1
1.33 0 0.1
1.34 0 0.1
1.35 0 0.1
1.36 0 0.1
1.37 0 0.1
1.38 0 0.1
1.39 0 0.1
1.4 0 0.1
1.41 0 0.1
1.42 0 0.1
1.43 0 0.1
1.44 0 0.1
1.45 0 0.1
1.46 0 0.1
1.47 0 0.1
1.48 0 0.1
1.49 0 0.1
1.5 0 0.1
1.51 0 0.1
1.52 0 0.1
1.53 0 0.1
1.54 0 0.1
1.55 0 0.1
1.56 0 0.1
1.57 0 0.1
1.58 0 0.1
1.59 0 0.1
1.6 0 0.1
1.61 0 0.1
1.62 0 0.1
1.63 0 0.1
1.64 0 0.1
1.65 0 0.1
1.66 0 0.1
1.67 0 0.1
1.68 0 0.1
1.69 0 0.1
1.7 0 0.1
1.71 0 0.1
1.72 0 0.1
1.73 0 0.1
1.74 0 0.1
1.75 0 0.1
1.76 0 0.1
1.77 0 0.1
1.78 0 0.1
1.79 0 0.1
1.8 0 0.1
1.81 0 0.1
1.82 0 0.1
1.83 0 0.1
1.84 0 0.1
1.85 0 0.1
1.86 0 0.1
1.87 0 0.1
1.88 0 0.1
[...]
CELL_DATA 7425
SCALARS rho float
LOOKUP_TABLE default
0.797289
0.799044
0.930229
0.925382
0.800215
0.927478
0.910527
0.934913
0.93736
0.864504
0.920133
0.801984
0.935332
0.925264
0.799072
0.93196
0.802664
0.936616
0.800323
0.799262
0.925805
0.811534
0.858324
0.926544
0.799398
0.835032
0.924399
0.832981
0.795431
0.800855
0.910654
0.789224
0.800159
0.822959
0.777224
0.926551
0.799186
0.935004
0.802733
0.921097
0.843434
0.802866
0.887463
0.774483
0.797908
0.798757
0.902531
0.935409
0.795933
0.779043
0.788125
0.798864
0.808161
0.801715
0.778748
0.770717
0.928429
0.802767
0.864971
0.845475
0.822264
0.799951
0.936679
0.8018
0.794733
0.931345
0.797066
0.879854
0.770368
0.800822
0.799121
0.802147
0.928493
0.810886
0.811978
0.937336
0.798978
0.79588
0.936591
0.792623
0.933012
0.799708
0.932725
0.804305
0.911461
0.799515
0.792394
0.920079
0.784564
0.923687
0.778744
0.860305
0.831272
0.801075
0.931469
0.868453
0.821441
0.794098
0.927349
0.79876
0.922791
0.785192
0.799326
0.921794
0.801131
0.802738
0.92346
0.84378
0.933995
0.800927
0.931301
0.802152
0.804798
0.804003
0.887652
0.793834
0.924093
0.802479
0.773809
0.788854
0.798764
0.881536
0.937469
0.798252
0.926513
0.823872
0.800003
0.895527
0.826098
0.771851
0.933752
0.82221
0.7764
0.843734
0.79429
0.800074
0.80729
0.854303
0.794437
0.802957
0.847488
0.802395
0.933241
0.777493
0.799058
0.800035
0.788737
0.898326
0.802211
0.926741
0.906882
0.780737
0.798888
0.787017
0.774811
0.798577
0.802239
0.926057
0.892547
0.813429
0.800574
0.775311
0.799423
0.926161
0.929356
0.80291
0.937135
0.884775
0.799852
0.799468
0.930118
0.799456
0.901648
0.801027
0.802779
0.803001
0.79905
0.869135
0.800164
0.775925
0.800652
0.894465
0.927397
0.920132
0.780387
0.928435
0.802041
0.815833
0.800638
0.935944
0.938082
0.800893
0.800439
0.774325
0.933863
0.927908
0.798961
0.897917
0.838342
0.800143
0.803745
0.935961
0.807374
0.823978
0.79083
0.780379
0.800256
0.798866
0.816096
0.928002
0.799844
0.794536
0.910332
0.93771
0.93106
0.929219
0.933615
0.817648
0.7859
0.935629
0.785012
0.798771
0.775185
0.928524
0.934223
0.937343
0.923982
0.938406
0.84026
0.780091
0.820709
0.824941
0.799628
0.799525
0.802232
0.850702
0.802205
0.810023
0.780073
0.927387
0.847886
0.924163
0.800015
0.904032
0.80375
0.8043
0.929095
0.79926
0.925906
0.795086
0.934156
0.780201
0.9382
0.928017
0.805224
0.779032
0.802228
0.783887
0.826395
0.933838
0.789948
0.932962
0.934165
0.914843
0.931138
0.799346
0.801047
0.927327
0.926883
0.800022
0.81011
0.923394
0.805332
0.799063
0.925812
0.914069
0.936133
0.92573
0.798827
0.933913
0.841711
0.914315
0.815537
0.925082
0.800529
0.93197
0.801846
0.793423
0.83551
0.794727
0.774331
0.908952
0.937378
0.932999
0.834197
0.79899
0.820124
0.926881
0.778463
0.880865
0.799554
0.820904
0.773035
0.817858
0.933798
0.936649
0.937702
0.934196
0.92697
0.797978
0.803312
0.797487
0.938447
0.924779
0.843443
0.923651
0.799945
0.777271
0.892448
0.910696
0.842191
0.802024
0.802638
0.925019
0.932069
0.799319
0.935914
0.805238
0.832663
0.855525
0.932487
0.938587
0.79968
0.807143
0.826252
0.816101
0.779969
0.889671
0.926064
0.933941
0.935686
0.851691
0.836255
0.800155
0.892155
0.815259
0.858452
0.802431
0.930903
0.798271
0.799776
0.799425
0.802633
0.935978
0.933227
0.932393
0.815673
0.817247
0.810972
0.812584
0.815769
0.907426
0.802685
0.824896
0.843919
0.811409
0.923448
0.931825
0.802129
0.802881
0.812324
0.81395
0.814291
0.93712
0.935948
0.797142
0.795274
0.786493
0.799159
0.935428
0.801241
0.938208
0.80675
0.774096
0.82787
0.93603
0.799423
0.885579
0.936589
0.799261
0.799076
0.932757
0.799865
0.928125
0.796434
0.899832
0.80014
0.788682
0.798905
0.818444
0.909737
0.816627
0.932839
0.930663
0.798642
0.808609
0.867856
0.797909
0.923977
0.781936
0.92725
0.928705
0.79883
0.927244
0.803228
0.928116
0.925903
0.926073
0.804257
0.926676
0.79439
0.802752
0.79405
0.890283
0.871458
0.799172
0.799954
0.926831
0.863012
0.799231
0.803852
0.80864
0.82678
0.936112
0.922902
0.927694
0.920907
0.801834
0.938017
0.7993
0.92076
0.837785
0.800054
0.799136
0.903136
0.931418
0.800318
0.781374
0.856635
0.781189
0.804996
0.799414
0.806988
0.897005
0.794778
0.79551
0.788846
0.87342
0.876803
0.932003
0.934079
0.930165
0.936039
0.83876
0.799947
0.922891
0.920925
0.79817
0.803432
0.799981
0.925144
0.815606
0.925938
0.793868
0.813536
0.874957
0.929158
0.784831
0.801887
0.924848
0.805171
0.935542
0.931342
0.800316
0.889778
0.913221
0.801415
0.924988
0.794547
0.776741
0.802865
0.891863
0.928152
0.844104
0.92512
0.79886
0.932096
0.802571
0.798532
0.802119
0.799679
0.836062
0.815439
0.933982
0.893947
0.925431
0.869159
0.802417
0.934234
0.929249
0.801213
0.843944
0.909031
0.8068
0.801436
0.812618
0.935782
0.927313
0.824297
0.935406
0.927429
0.919304
0.920911
0.861677
0.803384
0.910083
0.79975
0.911553
0.934814
0.812273
0.93598
0.9355
0.789909
0.800231
0.916309
0.938305
0.888713
0.89786
0.799532
0.839019
0.801783
0.938291
0.934181
0.928983
0.801647
0.935863
0.826189
0.929044
0.779468
0.932392
0.817332
0.794143
0.810783
0.890922
0.927501
0.905882
0.925805
0.805653
0.811048
0.801754
0.799416
0.827064
0.915772
0.796084
0.801875
0.934751
0.93654
0.837309
0.7934
0.915372
0.925149
0.893706
0.813912
0.825868
0.80011
0.803636
0.801046
0.799018
0.926166
0.802568
0.92237
0.796472
0.811285
0.800245
0.905969
0.85237
0.938022
0.931046
0.870937
0.935769
0.915656
0.816119
0.92652
0.799658
0.801533
0.914421
0.79711
0.814752
0.922812
0.798022
0.773241
0.937236
0.926563
0.915084
0.92978
0.802011
0.812409
0.919879
0.801151
0.797428
0.799812
0.937968
0.814022
0.799203
0.817246
0.802307
0.794624
0.905533
0.924751
0.799236
0.912807
0.799711
0.927871
0.934626
0.799434
0.910872
0.937177
0.830449
0.930754
0.799551
0.934708
0.937851
0.801928
0.920614
0.803083
0.801813
0.932659
0.801586
0.800297
0.802918
0.788649
0.924279
0.938091
0.87195
0.900147
0.927139
0.804398
0.928672
0.799838
0.92722
0.925167
0.925885
0.794134
0.850641
0.924721
0.931796
0.921786
0.932955
0.920975
0.801314
0.900694
0.801547
0.922549
0.92658
0.925361
0.855798
0.935078
0.925605
0.789691
0.808786
0.798791
0.803005
0.858079
0.932762
0.925944
0.813245
0.839942
0.934095
0.936467
0.929897
0.933274
0.917464
0.803503
0.802725
0.802113
0.858934
0.936237
0.799244
0.919667
0.805405
0.818412
0.799275
0.803896
0.801993
0.930166
0.798796
0.933334
0.931802
0.799196
0.929158
0.798448
0.80046
0.799969
0.925139
0.926646
0.927
0.806974
0.798603
0.846894
0.801327
0.939219
0.933621
0.798641
0.934948
0.797519
0.801494
0.933615
0.929236
0.805517
0.936602
0.932766
0.771349
0.883289
0.874379
0.936493
0.799433
0.798685
0.811034
0.800335
0.79884
0.845456
0.825079
0.931682
0.799502
0.80117
0.803103
0.930474
0.906853
0.936515
0.938259
0.85063
0.918653
0.797346
0.801592
0.82605
0.808885
0.931945
0.800749
0.790752
0.923053
0.893385
0.928396
0.79748
0.800485
0.929497
0.795771
0.922931
0.807976
0.928966
0.847529
0.924827
0.914782
0.926133
0.806528
0.801356
0.929647
0.824413
0.823114
0.921836
0.930105
0.931023
0.907945
0.79953
0.800826
0.817681
0.820157
0.795837
0.778807
0.91805
0.774389
0.799266
0.837643
0.799153
0.804441
0.802129
0.93507
0.775839
0.803559
0.929444
0.914497
0.925894
0.786829
0.81103
0.807029
0.798552
0.938046
0.799941
0.862576
0.934149
0.933235
0.937667
0.880941
0.800853
0.799254
0.799204
0.787375
0.938158
0.819969
0.794675
0.933776
0.932882
0.934169
0.931053
0.934199
0.927082
0.800341
0.79243
0.799446
0.812029
0.816826
0.813598
0.825909
0.794921
0.930768
0.833656
0.797069
0.802267
0.929382
0.936163
0.797044
0.837352
0.937968
0.913275
0.932135
0.931726
0.933626
0.924984
0.934486
0.937316
0.80327
0.935347
0.798805
0.92852
0.799745
0.928538
0.936075
0.794337
0.935983
0.925319
0.835969
0.824276
0.769853
0.932029
0.897868
0.770353
0.824168
0.808378
0.918785
0.899777
0.803157
0.936356
0.802319
0.932211
0.803061
0.781824
0.828486
0.808442
0.799387
0.932776
0.800221
0.801935
0.935142
0.926585
0.803032
0.823451
0.836856
0.802264
0.80544
0.93496
0.873436
0.768765
0.925437
0.805153
0.788899
0.801367
0.80116
0.796919
0.820454
0.932536
0.926678
0.930764
0.815316
0.799043
0.815614
0.820014
0.78771
0.927448
0.802502
0.802335
0.937344
0.885731
0.9314
0.92443
0.875263
0.929084
0.933452
0.926132
0.932086
0.934066
0.934602
0.797571
0.804999
0.8343
0.926487
0.802145
0.803914
0.801794
0.800229
0.925855
0.927847
0.910736
0.929053
0.795323
0.799216
0.798991
0.928518
0.802276
0.798682
0.797734
0.882658
0.933522
0.796346
0.811653
0.830442
0.934465
0.79725
0.787899
0.902379
0.92043
0.865195
0.807509
0.870907
0.850488
0.797084
0.938349
0.873988
0.799034
0.934696
0.798823
0.797973
0.810878
0.892087
0.915438
0.934395
0.923307
0.798287
0.800084
0.825642
0.815797
0.805364
0.925115
0.770117
0.846693
0.938048
0.866787
0.928788
0.879369
0.938272
0.801829
0.902873
0.869803
0.792078
0.87421
0.929629
0.802688
0.814378
0.800289
0.795263
0.830561
0.934605
0.926427
0.779585
0.814347
0.802427
0.92636
0.796658
0.808478
0.799039
0.886066
0.80234
0.922037
0.908892
0.811427
0.930355
0.775794
0.880185
0.925035
0.798796
0.935207
0.798163
0.778324
0.889518
0.799134
0.803799
0.821114
0.914602
0.925725
0.93607
0.800536
0.799195
0.799565
0.794298
0.807772
0.912032
0.852584
0.827051
0.924517
0.802961
0.801188
0.800541
0.871076
0.80081
0.937621
0.819025
0.902937
0.931615
0.916323
0.901341
0.936242
0.901746
0.852082
0.846116
0.817908
0.926251
0.927697
0.899312
0.824839
0.922789
0.920294
0.808721
0.921123
0.924205
0.915857
0.938534
0.912862
0.856736
0.92964
0.801091
0.800606
0.775346
0.93761
0.79892
0.936355
0.807983
0.800254
0.775565
0.936255
0.80634
0.813694
0.79908
0.902046
0.925839
0.800374
0.793576
0.9294
0.932641
0.799488
0.798958
0.774029
0.928357
0.797065
0.817439
0.926561
0.917112
0.799581
0.916685
0.850609
0.772747
0.931753
0.903643
0.9333
0.798106
0.778008
0.802381
0.800217
0.933901
0.849262
0.82115
0.928191
0.85085
0.924909
0.934338
0.925353
0.924052
0.902315
0.799024
0.934932
0.915613
0.864311
0.923066
0.935089
0.788749
0.798715
0.794083
0.925452
0.871642
0.798211
0.798814
0.801646
0.802198
0.930621
0.938307
0.834695
0.800339
0.803155
0.79846
0.800914
0.938074
0.932205
0.803233
0.938253
0.925275
0.803022
0.884586
0.80327
0.824199
0.83355
0.935713
0.934604
0.787276
0.851355
0.80069
0.925075
0.799239
0.774671
0.835173
0.933492
0.819874
0.798992
0.800922
0.803295
0.888914
0.797723
0.798941
0.93288
0.822785
0.92974
0.93784
0.911349
0.801658
0.807393
0.874873
0.798644
0.801302
0.791256
0.790623
0.800121
0.814245
0.932174
0.912646
0.830336
0.78711
0.924967
0.938564
0.810634
0.799287
0.812292
0.937671
0.934864
0.891966
0.842059
0.799379
0.87211
0.919299
0.796766
0.796229
0.924135
0.828743
0.821166
0.800548
0.799781
0.771606
0.824725
0.796125
0.927056
0.937381
0.928555
0.800218
0.909348
0.936669
0.927111
0.922507
0.803437
0.93858
0.87141
0.799171
0.932206
0.937799
0.836785
0.790312
0.938604
0.821909
0.857106
0.78653
0.92398
0.800504
0.779603
0.802289
0.907277
0.939505
0.930859
0.824728
0.934386
0.886777
0.799366
0.803151
0.811528
0.919214
0.799283
0.926343
0.912579
0.798485
0.931051
0.876187
0.931152
0.773462
0.928255
0.890989
0.934708
0.799682
0.828628
0.913126
0.896996
0.800855
0.769488
0.932055
0.800719
0.832478
0.777403
0.931926
0.794827
0.828514
0.799777
0.893803
0.844548
0.847757
0.781989
0.773928
0.792972
0.799392
0.776668
0.928585
0.779682
0.872833
0.824934
0.796326
0.782883
0.866557
0.801395
0.783055
0.929242
0.80185
0.799203
0.874501
0.933518
0.801176
0.926971
0.800194
0.938202
0.84908
0.80126
0.862741
0.928896
0.932551
0.918409
0.866365
0.927617
0.877928
0.926917
0.799306
0.873763
0.925353
0.881872
0.79616
0.800118
0.872748
0.856585
0.796874
0.798901
0.80089
0.928251
0.924212
0.807488
0.801903
0.783034
0.832692
0.802777
0.809823
0.928837
0.929873
0.798414
0.808241
0.923589
0.803314
0.80325
0.927249
0.938339
0.793564
0.938176
0.803334
0.931375
0.803114
0.853958
0.799061
0.813814
0.802408
0.908712
0.803376
0.817332
0.907096
0.899533
0.79399
0.809108
0.786375
0.792902
0.797725
0.844346
0.858803
0.791107
0.850915
0.935663
0.77994
0.798246
0.780992
0.898117
0.833605
0.874389
0.799878
0.929419
0.821249
0.803079
0.935152
0.801347
0.932286
0.797078
0.84194
0.914005
0.937897
0.934515
0.91938
0.936224
0.798413
0.797367
0.800667
0.849599
0.780214
0.808149
0.879032
0.782021
0.784083
0.93063
0.933431
0.80042
0.800628
0.780835
0.929072
0.798576
0.786922
0.784027
0.868171
0.798314
0.912812
0.785903
0.808379
0.791794
0.828319
0.804652
0.814746
0.799299
0.801536
0.806563
0.926858
0.802422
0.876274
0.847624
0.806837
0.824575
0.781522
0.930738
0.8737
0.797466
0.811871
0.869571
0.928449
0.933113
0.937861
0.933484
0.840766
0.868683
0.929673
0.79831
0.921564
0.938516
0.802248
0.936612
0.785038
0.926936
0.927123
0.930192
0.927464
0.930105
0.800723
0.929875
0.927693
0.927982
0.92995
0.795736
0.930029
0.930418
0.831933
0.930524
0.92791
0.930646
0.792827
0.820041
0.926061
0.930761
0.927562
0.800786
0.937463
0.793356
0.925567
0.788584
0.838652
0.802097
0.933213
0.798184
0.800512
0.925663
0.811373
0.799411
0.933696
0.883336
0.92485
0.922607
0.916554
0.828543
0.799822
0.933051
0.930612
0.898665
0.925187
0.920656
0.804142
0.928284
0.882376
0.933499
0.930352
0.933876
0.930668
0.805657
0.933104
0.925105
0.932997
0.930281
0.931661
0.930777
0.79101
0.929371
0.79922
0.799467
0.799366
0.930882
0.937103
0.888396
0.792798
0.935343
0.799153
0.929619
0.799264
0.919854
0.798992
0.933048
0.937213
0.799493
0.769531
0.79967
0.937438
0.807136
0.801983
0.937628
0.935865
0.937027
0.801879
0.921995
0.772561
0.937787
0.921566
0.93697
0.800521
0.800916
0.933997
0.924676
0.799747
0.798545
0.898016
0.773041
0.93793
0.801451
0.801372
0.93587
0.937162
0.936898
0.936323
0.775488
0.813781
0.807763
0.931192
0.925341
0.786512
0.790812
0.9336
0.810648
0.809476
0.822074
0.801224
0.9364
0.822046
0.800285
0.799395
0.807662
0.895343
0.925982
0.801704
0.805481
0.800761
0.799595
0.804478
0.93306
0.898759
0.80773
0.809677
0.906347
0.936249
0.928689
0.922466
0.815768
0.903569
0.825705
0.935451
0.935545
0.779264
0.935655
0.913284
0.778466
0.921293
0.795874
0.926674
0.802567
0.934792
0.937919
0.935766
0.827435
0.93575
0.814865
0.801995
0.799961
0.927325
0.933832
0.79648
0.796402
0.926013
0.935754
0.902179
0.928819
0.936158
0.927355
0.801735
0.78647
0.795654
0.797355
0.787268
0.92499
0.812757
0.822842
0.8853
0.798629
0.937419
0.937887
0.937798
0.794049
0.790052
0.799708
0.780986
0.903163
0.814052
0.800767
0.798565
0.805883
0.800242
0.885985
0.796305
0.936239
0.921906
0.910607
0.802282
0.791042
0.813489
0.792782
0.907342
0.773814
0.793365
0.92161
0.802219
0.787896
0.936665
0.9185
0.836484
0.790673
0.799892
0.800559
0.9352
0.803741
0.936914
0.80079
0.800681
0.798989
0.936701
0.936489
0.931272
0.937341
0.783157
0.799272
0.801248
0.937646
0.934939
0.936805
0.879818
0.826485
0.795179
0.802104
0.803436
0.937804
0.799999
0.81491
0.809781
0.927696
0.913787
0.833854
0.799786
0.928845
0.7973
0.7881
0.866566
0.89861
0.918789
0.805273
0.934803
0.787892
0.919563
0.835959
0.877703
0.798147
0.785647
0.805161
0.830478
0.937696
0.805372
0.937706
0.798572
0.782262
0.798288
0.802314
0.796008
0.926537
0.928326
0.919137
0.931861
0.937806
0.7802
0.800856
0.937811
0.800816
0.8798
0.809551
0.801539
0.935602
0.926887
0.79687
0.799079
0.80125
0.919073
0.923293
0.798841
0.802996
0.798687
0.79826
0.929941
0.79163
0.922575
0.799934
0.784172
0.798976
0.897204
0.810287
0.794097
0.80512
0.799704
0.799072
0.799876
0.920311
0.800661
0.923322
0.798221
0.841607
0.7989
0.799076
0.907817
0.924899
0.810919
0.927972
0.928575
0.922568
0.859299
0.918217
0.930792
0.825627
0.799242
0.797975
0.797899
0.929198
0.926704
0.799097
0.799874
0.800837
0.928461
0.799127
0.800028
0.801015
0.927694
0.799574
0.801316
0.798977
0.924731
0.799006
0.799606
0.814162
0.802376
0.933589
0.825303
0.927007
0.920152
0.799239
0.930287
0.80048
0.926328
0.92477
0.800558
0.928572
0.802095
0.800875
0.803525
0.801246
0.799185
0.799201
0.799642
0.799338
0.929802
0.934274
0.802718
0.925692
0.798818
0.802309
0.801005
0.804546
0.922911
0.800583
0.930316
0.933712
0.800176
0.799446
0.80274
0.921985
0.840363
0.801099
0.838194
0.801643
0.92464
0.932183
0.799841
0.799194
0.809774
0.921149
0.797414
0.817161
0.897129
0.833741
0.930112
0.803421
0.804768
0.80169
0.7997
0.80415
0.80095
0.799744
0.92483
0.806804
0.934983
0.925487
0.930437
0.875601
0.801267
0.934636
0.928978
0.809007
0.829643
0.802704
0.926838
0.895586
0.802042
0.882194
0.925166
0.803217
0.928058
0.8961
0.93155
0.929556
0.798652
0.799101
0.936697
0.932866
0.79903
0.935666
0.808235
0.93036
0.817336
0.801431
0.799595
0.918217
0.802891
0.823672
0.801603
0.799533
0.80495
0.932519
0.914779
0.934696
0.923397
0.81903
0.80643
0.831002
0.788334
0.936753
0.931504
0.799187
0.935591
0.777558
0.918496
0.802342
0.799063
0.932488
0.935086
0.799629
0.935474
0.800614
0.800871
0.801326
0.909538
0.869786
0.885359
0.92786
0.829552
0.820633
0.800418
0.911849
0.800367
0.806531
0.799584
0.801475
0.801824
0.801707
0.897321
0.797326
0.798817
0.924922
0.818797
0.804064
0.774791
0.806883
0.819856
0.800434
0.79245
0.799316
0.800111
0.798915
0.931198
0.820405
0.935309
0.937481
0.801886
0.798058
0.931103
0.932755
0.799693
0.797691
0.796076
0.80182
0.800692
0.798069
0.934519
0.93544
0.793129
0.797769
0.799532
0.795652
0.91012
0.800068
0.889629
0.793776
0.920507
0.801662
0.798835
0.79874
0.813582
0.802557
0.777883
0.800456
0.924849
0.935369
0.801089
0.799091
0.806099
0.935008
0.938242
0.925163
0.935227
0.799405
0.928956
0.811567
0.793922
0.800868
0.856093
0.80831
0.935824
0.795301
0.934096
0.828443
0.820862
0.829664
0.932634
0.797042
0.884959
0.804963
0.801388
0.801471
0.830943
0.801529
0.800307
0.935988
0.92881
0.794307
0.793188
0.934296
0.801944
0.821969
0.92457
0.821933
0.909716
0.808823
0.937506
0.925877
0.918335
0.809152
0.936412
0.805757
0.796849
0.922155
0.906135
0.927502
0.937951
0.809343
0.775193
0.930447
0.800561
0.934867
0.807106
0.921489
0.937026
0.802996
0.929234
0.796002
0.803946
0.936154
0.928098
0.79906
0.934778
0.824311
0.796908
0.925048
0.819833
0.803498
0.926441
0.936325
0.801443
0.795199
0.926499
0.799544
0.92479
0.929662
0.804618
0.916301
0.898792
0.926708
0.929719
0.802447
0.930267
0.85858
0.83388
0.930373
0.806141
0.937143
0.937189
0.92989
0.929784
0.937415
0.927069
0.922111
0.930465
0.800192
0.813861
0.919581
0.807783
0.805628
0.80037
0.801011
0.937425
0.930625
0.816883
0.937615
0.929844
0.799979
0.927186
0.93778
0.936822
0.797797
0.934405
0.936014
0.806126
0.937929
0.922935
0.80644
0.927599
0.811986
0.789495
0.934371
0.930595
0.922803
0.929967
0.927755
0.919344
0.93214
0.930743
0.846094
0.937457
0.800806
0.933353
0.809861
0.821125
0.92903
0.899368
0.926217
0.927553
0.935047
0.809826
0.810496
0.917062
0.93704
0.933345
0.809496
0.925602
0.936164
0.9332
0.802331
0.938033
0.93689
0.77896
0.809896
0.806911
0.929232
0.799557
0.924279
0.93311
0.825922
0.849302
0.93556
0.800349
0.913444
0.929077
0.936904
0.916554
0.93566
0.799855
0.937919
0.912869
0.827839
0.936035
0.854212
0.816805
0.932016
0.801772
0.802515
0.933699
0.922933
0.936941
0.936401
0.922712
0.910572
0.911494
0.792797
0.924596
0.935075
0.928809
0.931819
0.833372
0.93154
0.854917
0.801405
0.818494
0.799739
0.801586
0.799369
0.868026
0.936323
0.933725
0.850218
0.933309
0.815342
0.935841
0.933396
0.801561
0.930275
0.937889
0.813318
0.800837
0.91524
0.929287
0.778999
0.930562
0.933785
0.938061
0.81688
0.782165
0.801814
0.812389
0.781313
0.83346
0.858815
0.825914
0.935805
0.823122
0.901921
0.930586
0.866679
0.800488
0.931139
0.806344
0.930484
0.933096
0.933031
0.9378
0.92769
0.80004
0.863337
0.822031
0.927103
0.931005
0.802949
0.806278
0.798583
0.93299
0.935291
0.83468
0.930246
0.772775
0.927917
0.930632
0.930901
0.799463
0.806565
0.799359
0.808733
0.827966
0.800671
0.80246
0.800892
0.933459
0.931055
0.930671
0.936359
0.930858
0.929088
0.930864
0.798975
0.930036
0.925126
0.932913
0.805846
0.932527
0.812275
0.779727
0.937419
0.931779
0.80001
0.928759
0.784988
0.802098
0.802534
0.929974
0.772198
0.931653
0.800706
0.933598
0.840254
0.799566
0.928909
0.931366
0.812782
0.935125
0.798667
0.802028
0.935451
0.936831
0.815088
0.932643
0.821373
0.933225
0.84314
0.781253
0.776065
0.832395
0.799808
0.773239
0.831662