# vtk DataFile Version 1.0
unstructured grid
ascii
DATASET UNSTRUCTURED_GRID
points 7812 float
-1 0 0
-1 1 0
2 0 0
2 1 0
0 0 0
1 0 0
-1 1 0.1
-1 0 0.1
0 0 0.1
1 0 0.1
2 0 0.1
2 1 0.1
-0.99 0 0
-0.98 0 0
-0.97 0 0
-0.96 0 0
-0.95 0 0
-0.94 0 0
-0.93 0 0
-0.92 0 0
-0.91 0 0
-0.9 0 0
-0.89 0 0
-0.88 0 0
-0.87 0 0
-0.86 0 0
-0.85 0 0
-0.84 0 0
-0.83 0 0
-0.82 0 0
-0.81 0 0
-0.8 0 0
-0.79 0 0
-0.78 0 0
-0.77 0 0
-0.76 0 0
-0.75 0 0
-0.74 0 0
-0.73 0 0
-0.72 0 0
-0.71 0 0
-0.7 0 0
-0.69 0 0
-0.68 0 0
-0.67 0 0
-0.66 0 0
-0.65 0 0
-0.64 0 0
-0.63 0 0
-0.62 0 0
-0.61 0 0
-0.6 0 0
-0.59 0 0
-0.58 0 0
-0.57 0 0
-0.56 0 0
-0.55 0 0
-0.54 0 0
-0.53 0 0
-0.52 0 0
-0.51 0 0
-0.5 0 0
-0.49 0 0
-0.48 0 0
-0.47 0 0
-0.46 0 0
-0.45 0 0
-0.44 0 0
-0.43 0 0
-0.42 0 0
-0.41 0 0
-0.4 0 0
-0.39 0 0
-0.38 0 0
-0.37 0 0
-0.36 0 0
-0.35 0 0
-0.34 0 0
-0.33 0 0
-0.32 0 0
-0.31 0 0
-0.3 0 0
-0.29 0 0
-0.28 0 0
-0.27 0 0
-0.26 0 0
-0.25 0 0
-0.24 0 0
-0.23 0 0
-0.22 0 0
-0.21 0 0
-0.2 0 0
-0.19 0 0
-0.18 0 0
-0.17 0 0
-0.16 0 0
-0.15 0 0
-0.14 0 0
-0.13 0 0
-0.12 0 0
-0.11 0 0
-0.1 0 0
-0.09 0 0
-0.08 0 0
-0.07 0 0
-0.06 0 0
-0.05 0 0
-0.04 0 0
-0.03 0 0
-0.02 0 0
-0.01 0 0
1.01 0 0
1.02 0 0
1.03 0 0
1.04 0 0
1.05 0 0
1.06 0 0
1.07 0 0
1.08 0 0
1.09 0 0
1.1 0 0
1.11 0 0
1.12 0 0
1.13 0 0
1.14 0 0
1.15 0 0
1.16 0 0
1.17 0 0
1.18 0 0
1.19 0 0
1.2 0 0
1.21 0 0
1.22 0 0
1.23 0 0
1.24 0 0
1.25 0 0
1.26 0 0
1.27 0 0
1.28 0 0
1.29 0 0
1.3 0 0
1.31 0 0
1.32 0 0
1.33 0 0
1.34 0 0
1.35 0 0
1.36 0 0
1.37 0 0
1.38 0 0
1.39 0 0
1.4 0 0
1.41 0 0
1.42 0 0
1.43 0 0
1.44 0 0
1.45 0 0
1.46 0 0
1.47 0 0
1.48 0 0
1.49 0 0
1.5 0 0
1.51 0 0
1.52 0 0
1.53 0 0
1.54 0 0
1.55 0 0
1.56 0 0
1.57 0 0
1.58 0 0
1.59 0 0
1.6 0 0
1.61 0 0
1.62 0 0
1.63 0 0
1.64 0 0
1.65 0 0
1.66 0 0
1.67 0 0
1.68 0 0
1.69 0 0
1.7 0 0
1.71 0 0
1.72 0 0
1.73 0 0
1.74 0 0
1.75 0 0
1.76 0 0
1.77 0 0
1.78 0 0
1.79 0 0
1.8 0 0
1.81 0 0
1.82 0 0
1.83 0 0
1.84 0 0
1.85 0 0
1.86 0 0
1.87 0 0
1.88 0 0
1.89 0 0
1.9 0 0
1.91 0 0
1.92 0 0
1.93 0 0
1.94 0 0
1.95 0 0
1.96 0 0
1.97 0 0
1.98 0 0
1.99 0 0
2 0.010289 0
2 0.0215307 0
2 0.0338135 0
2 0.0472336 0
2 0.0618965 0
2 0.0779171 0
2 0.0954213 0
2 0.114546 0
2 0.135442 0
2 0.158274 0
2 0.183219 0
2 0.210474 0
2 0.240253 0
2 0.27279 0
2 0.308339 0
2 0.347181 0
2 0.389619 0
2 0.435987 0
2 0.486649 0
2 0.542002 0
2 0.602481 0
2 0.66856 0
2 0.740758 0
2 0.819642 0
2 0.90583 0
1.9 1 0
1.8 1 0
1.7 1 0
1.6 1 0
1.5 1 0
1.4 1 0
1.3 1 0
1.2 1 0
1.1 1 0
1 1 0
0.9 1 0
0.8 1 0
0.7 1 0
0.6 1 0
0.5 1 0
0.4 1 0
0.3 1 0
0.2 1 0
0.1 1 0
3.69793e-12 1 0
-0.1 1 0
-0.2 1 0
-0.3 1 0
-0.4 1 0
-0.5 1 0
-0.6 1 0
-0.7 1 0
-0.8 1 0
-0.9 1 0
-1 0.90583 0
-1 0.819642 0
-1 0.740758 0
-1 0.66856 0
-1 0.602481 0
-1 0.542002 0
-1 0.486649 0
-1 0.435987 0
-1 0.389619 0
-1 0.347181 0
-1 0.308339 0
-1 0.27279 0
-1 0.240253 0
-1 0.210474 0
-1 0.183219 0
-1 0.158274 0
-1 0.135442 0
-1 0.114546 0
-1 0.0954213 0
-1 0.0779171 0
-1 0.0618965 0
-1 0.0472336 0
-1 0.0338135 0
-1 0.0215307 0
-1 0.010289 0
0.00921362 0.00379763 0
0.0184561 0.00752451 0
0.0277268 0.0111804 0
0.0370253 0.0147652 0
0.0463511 0.0182786 0
0.0557034 0.0217203 0
0.0650819 0.0250903 0
0.074486 0.0283883 0
0.083915 0.0316141 0
0.0933685 0.0347675 0
0.102846 0.0378484 0
0.112347 0.0408565 0
0.12187 0.0437917 0
0.131416 0.0466538 0
0.140983 0.0494427 0
0.150572 0.0521581 0
0.160181 0.0547999 0
0.16981 0.0573681 0
0.179458 0.0598623 0
0.189125 0.0622825 0
0.198811 0.0646285 0
0.208514 0.0669001 0
0.218234 0.0690974 0
0.227971 0.07122 0
0.237724 0.073268 0
0.247493 0.0752411 0
0.257276 0.0771393 0
0.267073 0.0789625 0
0.276884 0.0807105 0
0.286708 0.0823832 0
0.296545 0.0839806 0
0.306394 0.0855025 0
0.316254 0.0869488 0
0.326125 0.0883196 0
0.336006 0.0896146 0
0.345896 0.0908339 0
0.355796 0.0919773 0
0.365704 0.0930447 0
0.375621 0.0940362 0
0.385544 0.0949517 0
0.395474 0.095791 0
0.40541 0.0965542 0
0.415352 0.0972412 0
0.425299 0.097852 0
0.43525 0.0983865 0
0.445205 0.0988447 0
0.455164 0.0992266 0
0.465125 0.0995321 0
0.475088 0.0997613 0
0.485052 0.0999141 0
0.495017 0.0999904 0
0.504983 0.0999904 0
0.514948 0.0999141 0
0.524912 0.0997613 0
0.534875 0.0995321 0
0.544836 0.0992266 0
0.554795 0.0988447 0
0.56475 0.0983865 0
0.574701 0.097852 0
0.584648 0.0972412 0
0.59459 0.0965542 0
0.604526 0.095791 0
0.614456 0.0949517 0
0.624379 0.0940362 0
0.634296 0.0930447 0
0.644204 0.0919773 0
0.654104 0.0908339 0
0.663994 0.0896146 0
0.673875 0.0883196 0
0.683746 0.0869488 0
0.693606 0.0855025 0
0.703455 0.0839806 0
0.713292 0.0823832 0
0.723116 0.0807105 0
0.732927 0.0789625 0
0.742724 0.0771393 0
0.752508 0.0752411 0
0.762276 0.073268 0
0.772029 0.07122 0
0.781766 0.0690974 0
0.791486 0.0669001 0
0.801189 0.0646285 0
0.810875 0.0622825 0
0.820542 0.0598623 0
0.83019 0.0573681 0
0.839819 0.0547999 0
0.849428 0.0521581 0
0.859017 0.0494427 0
0.868584 0.0466538 0
0.87813 0.0437917 0
0.887653 0.0408565 0
0.897154 0.0378484 0
0.906631 0.0347675 0
0.916085 0.0316141 0
0.925514 0.0283883 0
0.934918 0.0250903 0
0.944297 0.0217203 0
0.953649 0.0182786 0
0.962975 0.0147652 0
0.972273 0.0111804 0
0.981544 0.00752451 0
0.990786 0.00379763 0
-1 0.90583 0.1
-1 0.819642 0.1
-1 0.740758 0.1
-1 0.66856 0.1
-1 0.602481 0.1
-1 0.542002 0.1
-1 0.486649 0.1
-1 0.435987 0.1
-1 0.389619 0.1
-1 0.347181 0.1
-1 0.308339 0.1
-1 0.27279 0.1
-1 0.240253 0.1
-1 0.210474 0.1
-1 0.183219 0.1
-1 0.158274 0.1
-1 0.135442 0.1
-1 0.114546 0.1
-1 0.0954213 0.1
-1 0.0779171 0.1
-1 0.0618965 0.1
-1 0.0472336 0.1
-1 0.0338135 0.1
-1 0.0215307 0.1
-1 0.010289 0.1
-0.99 0 0.1
-0.98 0 0.1
-0.97 0 0.1
-0.96 0 0.1
-0.95 0 0.1
-0.94 0 0.1
-0.93 0 0.1
-0.92 0 0.1
-0.91 0 0.1
-0.9 0 0.1
-0.89 0 0.1
-0.88 0 0.1
-0.87 0 0.1
-0.86 0 0.1
-0.85 0 0.1
-0.84 0 0.1
-0.83 0 0.1
-0.82 0 0.1
-0.81 0 0.1
-0.8 0 0.1
-0.79 0 0.1
-0.78 0 0.1
-0.77 0 0.1
-0.76 0 0.1
-0.75 0 0.1
-0.74 0 0.1
-0.73 0 0.1
-0.72 0 0.1
-0.71 0 0.1
-0.7 0 0.1
-0.69 0 0.1
-0.68 0 0.1
-0.67 0 0.1
-0.66 0 0.1
-0.65 0 0.1
-0.64 0 0.1
-0.63 0 0.1
-0.62 0 0.1
-0.61 0 0.1
-0.6 0 0.1
-0.59 0 0.1
-0.58 0 0.1
-0.57 0 0.1
-0.56 0 0.1
-0.55 0 0.1
-0.54 0 0.1
-0.53 0 0.1
-0.52 0 0.1
-0.51 0 0.1
-0.5 0 0.1
-0.49 0 0.1
-0.48 0 0.1
-0.47 0 0.1
-0.46 0 0.1
-0.45 0 0.1
-0.44 0 0.1
-0.43 0 0.1
-0.42 0 0.1
-0.41 0 0.1
-0.4 0 0.1
-0.39 0 0.1
-0.38 0 0.1
-0.37 0 0.1
-0.36 0 0.1
-0.35 0 0.1
-0.34 0 0.1
-0.33 0 0.1
-0.32 0 0.1
-0.31 0 0.1
-0.3 0 0.1
-0.29 0 0.1
-0.28 0 0.1
-0.27 0 0.1
-0.26 0 0.1
-0.25 0 0.1
-0.24 0 0.1
-0.23 0 0.1
-0.22 0 0.1
-0.21 0 0.1
-0.2 0 0.1
-0.19 0 0.1
-0.18 0 0.1
-0.17 0 0.1
-0.16 0 0.1
-0.15 0 0.1
-0.14 0 0.1
-0.13 0 0.1
-0.12 0 0.1
-0.11 0 0.1
-0.1 0 0.1
-0.09 0 0.1
-0.08 0 0.1
-0.07 0 0.1
-0.06 0 0.1
-0.05 0 0.1
-0.04 0 0.1
-0.03 0 0.1
-0.02 0 0.1
-0.01 0 0.1
0.00921362 0.00379763 0.1
0.0184561 0.00752451 0.1
0.0277268 0.0111804 0.1
0.0370253 0.0147652 0.1
0.0463511 0.0182786 0.1
0.0557034 0.0217203 0.1
0.0650819 0.0250903 0.1
0.074486 0.0283883 0.1
0.083915 0.0316141 0.1
0.0933685 0.0347675 0.1
0.102846 0.0378484 0.1
0.112347 0.0408565 0.1
0.12187 0.0437917 0.1
0.131416 0.0466538 0.1
0.140983 0.0494427 0.1
0.150572 0.0521581 0.1
0.160181 0.0547999 0.1
0.16981 0.0573681 0.1
0.179458 0.0598623 0.1
0.189125 0.0622825 0.1
0.198811 0.0646285 0.1
0.208514 0.0669001 0.1
0.218234 0.0690974 0.1
0.227971 0.07122 0.1
0.237724 0.073268 0.1
0.247493 0.0752411 0.1
0.257276 0.0771393 0.1
0.267073 0.0789625 0.1
0.276884 0.0807105 0.1
0.286708 0.0823832 0.1
0.296545 0.0839806 0.1
0.306394 0.0855025 0.1
0.316254 0.0869488 0.1
0.326125 0.0883196 0.1
0.336006 0.0896146 0.1
0.345896 0.0908339 0.1
0.355796 0.0919773 0.1
0.365704 0.0930447 0.1
0.375621 0.0940362 0.1
0.385544 0.0949517 0.1
0.395474 0.095791 0.1
0.40541 0.0965542 0.1
0.415352 0.0972412 0.1
0.425299 0.097852 0.1
0.43525 0.0983865 0.1
0.445205 0.0988447 0.1
0.455164 0.0992266 0.1
0.465125 0.0995321 0.1
0.475088 0.0997613 0.1
0.485052 0.0999141 0.1
0.495017 0.0999904 0.1
0.504983 0.0999904 0.1
0.514948 0.0999141 0.1
0.524912 0.0997613 0.1
0.534875 0.0995321 0.1
0.544836 0.0992266 0.1
0.554795 0.0988447 0.1
0.56475 0.0983865 0.1
0.574701 0.097852 0.1
0.584648 0.0972412 0.1
0.59459 0.0965542 0.1
0.604526 0.095791 0.1
0.614456 0.0949517 0.1
0.624379 0.0940362 0.1
0.634296 0.0930447 0.1
0.644204 0.0919773 0.1
0.654104 0.0908339 0.1
0.663994 0.0896146 0.1
0.673875 0.0883196 0.1
0.683746 0.0869488 0.1
0.693606 0.0855025 0.1
0.703455 0.0839806 0.1
0.713292 0.0823832 0.1
0.723116 0.0807105 0.1
0.732927 0.0789625 0.1
0.742724 0.0771393 0.1
0.752508 0.0752411 0.1
0.762276 0.073268 0.1
0.772029 0.07122 0.1
0.781766 0.0690974 0.1
0.791486 0.0669001 0.1
0.801189 0.0646285 0.1
0.810875 0.0622825 0.1
0.820542 0.0598623 0.1
0.83019 0.0573681 0.1
0.839819 0.0547999 0.1
0.849428 0.0521581 0.1
0.859017 0.0494427 0.1
0.868584 0.0466538 0.1
0.87813 0.0437917 0.1
0.887653 0.0408565 0.1
0.897154 0.0378484 0.1
0.906631 0.0347675 0.1
0.916085 0.0316141 0.1
0.925514 0.0283883 0.1
0.934918 0.0250903 0.1
0.944297 0.0217203 0.1
0.953649 0.0182786 0.1
0.962975 0.0147652 0.1
0.972273 0.0111804 0.1
0.981544 0.00752451 0.1
0.990786 0.00379763 0.1
1.01 0 0.1
1.02 0 0.1
1.03 0 0.1
1.04 0 0.1
1.05 0 0.1
1.06 0 0.1
1.07 0 0.1
1.08 0 0.1
1.09 0 0.1
1.1 0 0.1
1.11 0 0.1
1.12 0 0.1
1.13 0 0.1
1.14 0 0.1
1.15 0 0.1
1.16 0 0.1
1.17 0 0.1
1.18 0 0.1
1.19 0 0.1
1.2 0 0.1
1.21 0 0.1
1.22 0 0.1
1.23 0 0.1
1.24 0 0.1
1.25 0 0.1
1.26 0 0.1
1.27 0 0.1
1.28 0 0.1
1.29 0 0.1
1.3 0 0.1
1.31 0 0.1
1.32 0 0.1
1.33 0 0.1
1.34 0 0.1
1.35 0 0.1
1.36 0 0.1
1.37 0 0.1
1.38 0 0.1
1.39 0 0.1
1.4 0 0.1
1.41 0 0.1
1.42 0 0.1
1.43 0 0.1
1.44 0 0.1
1.45 0 0.1
1.46 0 0.1
1.47 0 0.1
1.48 0 0.1
1.49 0 0.1
1.5 0 0.1
1.51 0 0.1
1.52 0 0.1
1.53 0 0.1
1.54 0 0.1
1.55 0 0.1
1.56 0 0.1
1.57 0 0.1
1.58 0 0.1
1.59 0 0.1
1.6 0 0.1
1.61 0 0.1
1.62 0 0.1
1.63 0 0.1
1.64 0 0.1
1.65 0 0.1
1.66 0 0.1
1.67 0 0.1
1.68 0 0.1
1.69 0 0.1
1.7 0 0.1
1.71 0 0.1
1.72 0 0.1
1.73 0 0.1
1.74 0 0.1
1.75 0 0.1
1.76 0 0.1
1.77 0 0.1
1.78 0 0.1
1.79 0 0.1
1.8 0 0.1
1.81 0 0.1
1.82 0 0.1
1.83 0 0.1
1.84 0 0.1
1.85 0 0.1
1.86 0 0.1
1.87 0 0.1
1.88 0 0.1
[...]
CELL_DATA 7425
SCALARS rho float
LOOKUP_TABLE default
0.588563
0.805114
0.81994
0.827846
0.799841
0.819525
0.821207
0.814591
0.813491
0.739114
0.863657
0.810195
0.814361
0.827703
0.804073
0.81756
0.799137
0.813757
0.803532
0.76758
0.831587
0.822196
0.725302
0.828378
0.803941
0.704341
0.831513
0.848962
0.800255
0.808158
0.819672
0.725064
0.803679
0.653246
0.521968
0.828345
0.803565
0.814569
0.811306
0.828314
0.717057
0.705118
0.79032
0.699512
0.588168
0.748652
0.799698
0.814297
0.665747
0.718947
0.746436
0.805232
0.812495
0.799465
0.708633
0.685338
0.823274
0.800361
0.738987
0.701602
0.711159
0.807752
0.813728
0.799746
0.798869
0.818011
0.585703
0.773675
0.702114
0.80809
0.804453
0.803237
0.883525
0.821269
0.811002
0.81355
0.805129
0.800524
0.813733
0.757938
0.816403
0.807332
0.810766
0.78905
0.836139
0.801443
0.575763
0.83025
0.544516
0.848714
0.703559
0.730243
0.845907
0.803236
0.817802
0.758939
0.836359
0.788226
0.825971
0.802873
0.808511
0.738672
0.803344
0.828547
0.598382
0.811228
0.824703
0.708345
0.815436
0.799575
0.817116
0.784856
0.790128
0.812535
0.790054
0.786538
0.831561
0.803137
0.698488
0.639522
0.805127
0.777644
0.813457
0.790601
0.859143
0.839423
0.807791
0.804592
0.662062
0.50681
0.814918
0.656208
0.517696
0.86854
0.666399
0.799934
0.811241
0.724199
0.583333
0.725985
0.724283
0.809897
0.810133
0.706058
0.803422
0.779882
0.566764
0.788981
0.782579
0.828098
0.817066
0.704785
0.803263
0.744443
0.704218
0.803339
0.810596
0.830726
0.797903
0.654394
0.802657
0.70086
0.801455
0.830063
0.820833
0.802439
0.813568
0.785171
0.806387
0.801034
0.820092
0.804885
0.791635
0.799536
0.800167
0.741065
0.80406
0.759435
0.595993
0.701806
0.800065
0.793103
0.879926
0.832129
0.644546
0.823286
0.799045
0.827775
0.800242
0.813886
0.813136
0.803255
0.807056
0.703545
0.81545
0.81963
0.770419
0.797525
0.861884
0.807876
0.812056
0.811676
0.613957
0.83948
0.574369
0.534275
0.59665
0.603645
0.828473
0.879464
0.807616
0.798747
0.841593
0.813485
0.817088
0.82114
0.815638
0.638863
0.557259
0.814198
0.547644
0.594402
0.702387
0.812122
0.814516
0.81355
0.833431
0.813441
0.864991
0.708426
0.83549
0.71425
0.805285
0.803988
0.802081
0.714618
0.721681
0.620376
0.703668
0.863809
0.876314
0.806678
0.80779
0.799262
0.811787
0.717347
0.821976
0.80061
0.826029
0.794782
0.810349
0.721226
0.813338
0.82409
0.740775
0.53029
0.800169
0.736376
0.843575
0.814789
0.726192
0.816004
0.815284
0.850142
0.809982
0.804335
0.803307
0.825995
0.86096
0.80585
0.620109
0.849116
0.812473
0.805687
0.827868
0.837572
0.813479
0.821785
0.793679
0.815511
0.867421
0.850139
0.82766
0.837024
0.802805
0.817569
0.803226
0.759899
0.702567
0.582201
0.699152
0.802737
0.813403
0.81641
0.855399
0.779911
0.64658
0.827414
0.523494
0.774661
0.801328
0.647246
0.501273
0.639946
0.815634
0.81373
0.813484
0.813191
0.827051
0.774685
0.811582
0.80274
0.813438
0.840979
0.867939
0.833849
0.802908
0.702664
0.796248
0.834521
0.692333
0.799145
0.802147
0.864958
0.81751
0.594161
0.813874
0.741487
0.85297
0.732748
0.810588
0.907731
0.800284
0.796042
0.659837
0.636446
0.710295
0.781103
0.826872
0.815375
0.814166
0.883396
0.858817
0.79995
0.799477
0.82619
0.739958
0.802676
0.879532
0.801437
0.805156
0.801082
0.802626
0.813456
0.816149
0.816789
0.637556
0.830316
0.647932
0.808701
0.640661
0.803005
0.802319
0.840512
0.729821
0.816484
0.808986
0.817389
0.799842
0.802552
0.811425
0.698844
0.824627
0.813564
0.813418
0.800747
0.736997
0.56125
0.806506
0.811526
0.80324
0.813422
0.795111
0.509222
0.84638
0.8138
0.803913
0.786082
0.813755
0.80494
0.803322
0.816658
0.807602
0.822868
0.769014
0.812949
0.807878
0.564008
0.803525
0.640956
0.838975
0.637111
0.815132
0.87805
0.596014
0.81829
0.749477
0.804498
0.873486
0.536206
0.823473
0.822622
0.803559
0.826078
0.811291
0.823812
0.83095
0.825175
0.740664
0.827851
0.761606
0.810495
0.794396
0.793985
0.759068
0.805702
0.802131
0.814862
0.753036
0.804931
0.605584
0.615332
0.690668
0.813305
0.844443
0.865025
0.830173
0.799
0.813171
0.805134
0.818865
0.681279
0.801305
0.743516
0.824308
0.815221
0.805869
0.710252
0.727883
0.535601
0.606594
0.801628
0.612331
0.793004
0.76563
0.770438
0.726578
0.762932
0.768035
0.809919
0.815374
0.819935
0.811976
0.711731
0.605481
0.839298
0.807345
0.783387
0.810305
0.802754
0.836845
0.719711
0.855502
0.763897
0.72967
0.765069
0.811943
0.546894
0.799227
0.841882
0.813584
0.814257
0.810188
0.799595
0.780821
0.835941
0.803159
0.843234
0.721641
0.706404
0.800583
0.795512
0.822382
0.70962
0.848203
0.80086
0.81647
0.799116
0.779435
0.808714
0.595746
0.678209
0.633271
0.813398
0.804118
0.826685
0.749705
0.810698
0.815245
0.820769
0.79939
0.73048
0.797319
0.814774
0.803247
0.705111
0.814071
0.819282
0.840299
0.811287
0.825681
0.862461
0.85746
0.744668
0.604506
0.838254
0.806072
0.843593
0.814686
0.823174
0.814005
0.814275
0.642399
0.805662
0.809686
0.813355
0.792243
0.810889
0.805147
0.861314
0.799078
0.81327
0.815162
0.872088
0.598742
0.813941
0.84303
0.883442
0.532329
0.816823
0.830278
0.796283
0.814885
0.79531
0.867775
0.812523
0.831662
0.8132
0.620355
0.802496
0.804226
0.692513
0.85333
0.759727
0.80196
0.814439
0.813217
0.860477
0.795493
0.833872
0.835017
0.784792
0.825432
0.84292
0.800148
0.810926
0.807383
0.805402
0.815237
0.802688
0.845465
0.769543
0.8099
0.803268
0.815524
0.723915
0.813423
0.818753
0.753052
0.814066
0.816692
0.828035
0.82546
0.801086
0.800928
0.850696
0.767856
0.825639
0.844454
0.80464
0.508396
0.813413
0.828609
0.852578
0.813077
0.803184
0.808667
0.855239
0.780094
0.802659
0.80156
0.813464
0.728505
0.802998
0.830261
0.808502
0.79513
0.793973
0.843461
0.806698
0.845526
0.802067
0.824604
0.813243
0.804291
0.84207
0.813382
0.680776
0.819176
0.807195
0.813315
0.906224
0.801053
0.816257
0.800711
0.800682
0.81663
0.800783
0.803449
0.783757
0.747527
0.806951
0.813428
0.758498
0.791861
0.82338
0.813126
0.822626
0.80654
0.826118
0.875449
0.830967
0.577901
0.709388
0.841026
0.817702
0.844402
0.815203
0.85032
0.807768
0.812706
0.79973
0.838681
0.861133
0.853019
0.732296
0.814557
0.822532
0.743683
0.817583
0.776263
0.800476
0.733773
0.816494
0.831183
0.82363
0.862682
0.814672
0.813797
0.810645
0.815089
0.836054
0.812315
0.799058
0.810338
0.738313
0.811868
0.77413
0.833121
0.81322
0.639662
0.777895
0.811535
0.799561
0.820216
0.80288
0.815122
0.817714
0.804734
0.819785
0.80424
0.806308
0.599411
0.847293
0.825478
0.827045
0.815366
0.803286
0.702483
0.806967
0.907914
0.814049
0.801478
0.813369
0.782535
0.807726
0.813749
0.821665
0.814763
0.81373
0.816668
0.697925
0.778317
0.765157
0.813171
0.805561
0.801469
0.622346
0.806163
0.803006
0.709067
0.837555
0.817614
0.802475
0.807838
0.799724
0.817657
0.814258
0.813789
0.813415
0.710262
0.83198
0.800418
0.807881
0.843193
0.81805
0.816717
0.800531
0.753877
0.824173
0.787872
0.821808
0.78962
0.806125
0.821334
0.737744
0.817771
0.653604
0.872198
0.705038
0.845263
0.801247
0.875303
0.794057
0.801869
0.821055
0.836597
0.838655
0.825795
0.820219
0.81514
0.80154
0.80431
0.808434
0.727167
0.827451
0.80017
0.719331
0.830821
0.701302
0.800441
0.861176
0.805681
0.703445
0.798014
0.814559
0.70374
0.78571
0.819774
0.832125
0.807422
0.584343
0.72997
0.812525
0.801781
0.81346
0.801026
0.73774
0.814478
0.816156
0.813024
0.775748
0.803318
0.804587
0.804053
0.561758
0.813252
0.834331
0.581887
0.815613
0.816536
0.815153
0.818766
0.814881
0.824892
0.799524
0.79525
0.771015
0.823105
0.829876
0.82531
0.835485
0.765846
0.809487
0.725791
0.772632
0.809221
0.821455
0.813783
0.801046
0.859051
0.813462
0.800776
0.810088
0.81652
0.815635
0.836922
0.814956
0.813331
0.812083
0.814298
0.800602
0.821372
0.803858
0.823198
0.813961
0.577557
0.814006
0.834766
0.858814
0.838438
0.494065
0.81723
0.804867
0.499344
0.670898
0.646294
0.834573
0.808302
0.811755
0.813308
0.803234
0.817172
0.811187
0.536481
0.688099
0.818429
0.806714
0.816051
0.803572
0.810375
0.811424
0.820609
0.799835
0.694134
0.856703
0.803182
0.814843
0.814101
0.75821
0.489067
0.833204
0.81379
0.741655
0.802735
0.806698
0.593597
0.827798
0.815224
0.828058
0.819183
0.826489
0.804812
0.720976
0.644392
0.563389
0.825668
0.809003
0.782991
0.813493
0.780273
0.8183
0.873463
0.762786
0.821986
0.813988
0.82618
0.883704
0.8149
0.812331
0.803374
0.813972
0.692873
0.828543
0.800195
0.810663
0.802325
0.784462
0.854388
0.82241
0.840705
0.821901
0.757516
0.756289
0.803756
0.818494
0.803103
0.805328
0.802707
0.776156
0.815135
0.762135
0.821627
0.662854
0.81444
0.803069
0.735235
0.823515
0.818331
0.74048
0.801285
0.757697
0.881653
0.800791
0.813382
0.763166
0.800534
0.814739
0.804021
0.591097
0.82121
0.799003
0.80179
0.814986
0.825944
0.757743
0.805948
0.842235
0.827431
0.814303
0.836134
0.696662
0.700787
0.81346
0.744639
0.82259
0.771765
0.813373
0.802607
0.810727
0.75242
0.794335
0.764847
0.810355
0.803175
0.632035
0.779348
0.799323
0.84968
0.814832
0.828982
0.52875
0.825497
0.785473
0.858947
0.801017
0.818214
0.80072
0.786183
0.799146
0.826036
0.835996
0.822028
0.817527
0.706106
0.774308
0.81575
0.805463
0.8105
0.80398
0.704891
0.793192
0.803715
0.811094
0.827578
0.851406
0.832166
0.813959
0.799841
0.804554
0.802304
0.779925
0.612687
0.80076
0.732177
0.66279
0.823154
0.799218
0.777284
0.800352
0.754609
0.7855
0.811998
0.822574
0.803714
0.816432
0.817693
0.820929
0.813886
0.808808
0.712715
0.700059
0.641721
0.829606
0.869741
0.815644
0.841655
0.848074
0.863908
0.736814
0.81695
0.863195
0.810572
0.813415
0.816526
0.733492
0.812861
0.807126
0.806635
0.519547
0.813491
0.761627
0.813659
0.813921
0.803602
0.704508
0.813697
0.611668
0.825287
0.802594
0.822502
0.855386
0.803496
0.795513
0.821313
0.812051
0.805909
0.762683
0.512682
0.821272
0.80318
0.829456
0.826106
0.802542
0.807116
0.834729
0.721588
0.50344
0.886388
0.800979
0.816126
0.8044
0.70963
0.799034
0.800391
0.815512
0.73713
0.647328
0.883375
0.714832
0.83684
0.812473
0.833196
0.842925
0.792636
0.80482
0.81407
0.852973
0.738806
0.870855
0.814488
0.564118
0.802889
0.748728
0.853141
0.760864
0.804292
0.804022
0.799983
0.801746
0.809358
0.813445
0.856195
0.806399
0.802901
0.801366
0.800358
0.812781
0.817293
0.80266
0.813025
0.849449
0.803126
0.783847
0.802303
0.840141
0.726373
0.814112
0.814294
0.648557
0.713782
0.805673
0.823371
0.804035
0.514285
0.85705
0.813675
0.833527
0.805387
0.803363
0.801479
0.786669
0.588199
0.804411
0.816531
0.836226
0.820947
0.813478
0.798607
0.747781
0.801695
0.766419
0.787747
0.79972
0.791128
0.751207
0.801162
0.811937
0.810851
0.832456
0.849724
0.555064
0.842172
0.813386
0.820973
0.802305
0.822811
0.811618
0.894723
0.800553
0.867938
0.805798
0.760337
0.862294
0.802362
0.800319
0.824498
0.661228
0.646129
0.803454
0.803933
0.700733
0.655118
0.799975
0.824204
0.813548
0.822954
0.733837
0.817498
0.81335
0.826475
0.817314
0.812049
0.813407
0.755037
0.804291
0.816105
0.811872
0.676932
0.5678
0.813444
0.650795
0.722459
0.556583
0.841662
0.800479
0.52978
0.60186
0.827771
0.908146
0.818548
0.653154
0.814619
0.786826
0.802031
0.786758
0.821148
0.810493
0.788491
0.821417
0.801434
0.58905
0.818229
0.767144
0.816347
0.699642
0.822586
0.790046
0.814416
0.800454
0.663677
0.843726
0.806869
0.807048
0.496652
0.81725
0.800709
0.852855
0.71076
0.817501
0.587587
0.72039
0.801708
0.79703
0.733873
0.716423
0.714877
0.509933
0.595825
0.800412
0.520438
0.822965
0.524669
0.757629
0.672779
0.604262
0.543248
0.74591
0.803118
0.713968
0.821672
0.801164
0.803192
0.761624
0.8898
0.799453
0.824831
0.803512
0.813324
0.70658
0.807943
0.737208
0.822281
0.88617
0.833845
0.748256
0.823149
0.770931
0.880033
0.804268
0.759092
0.85092
0.777282
0.800001
0.805748
0.758666
0.745534
0.669265
0.805063
0.803063
0.818296
0.833788
0.612384
0.80837
0.540246
0.669336
0.619057
0.818993
0.821416
0.809467
0.804048
0.616604
0.872606
0.802717
0.802977
0.863711
0.812966
0.772408
0.812702
0.802422
0.818308
0.803171
0.71762
0.803643
0.657633
0.799374
0.80448
0.801666
0.639965
0.811861
0.810613
0.725879
0.818231
0.550916
0.578018
0.804231
0.69714
0.726468
0.573363
0.724479
0.814104
0.70553
0.773298
0.715964
0.813086
0.670981
0.762534
0.806657
0.811055
0.655769
0.80204
0.895264
0.796867
0.817215
0.587502
0.69454
0.801367
0.813472
0.814472
0.851862
0.813148
0.804364
0.803817
0.803396
0.714515
0.717096
0.616714
0.771977
0.535947
0.723164
0.810387
0.814856
0.806534
0.799677
0.54696
0.809525
0.803827
0.555805
0.545644
0.747062
0.803641
0.806564
0.550884
0.798433
0.571008
0.721944
0.608921
0.813786
0.802547
0.598261
0.609343
0.86807
0.810272
0.765831
0.718729
0.623866
0.656123
0.70813
0.816426
0.760197
0.765467
0.625026
0.754393
0.809761
0.815801
0.812986
0.81591
0.866417
0.755267
0.81932
0.803451
0.851495
0.813398
0.802826
0.81358
0.721702
0.813358
0.812409
0.815599
0.811579
0.816302
0.803321
0.818321
0.810821
0.810181
0.817666
0.800196
0.816998
0.819344
0.668251
0.819003
0.868592
0.818566
0.793086
0.646739
0.858787
0.819183
0.825235
0.799929
0.811747
0.757429
0.852772
0.564511
0.727902
0.809967
0.816099
0.803948
0.803418
0.832356
0.805463
0.805452
0.815703
0.781076
0.838831
0.842201
0.815555
0.665104
0.616386
0.816196
0.817027
0.788782
0.849865
0.847483
0.811315
0.814041
0.778184
0.814537
0.81823
0.814565
0.81917
0.813535
0.816254
0.851273
0.816397
0.814921
0.817961
0.818167
0.785122
0.814534
0.804438
0.804591
0.804954
0.818964
0.81201
0.788737
0.753781
0.813156
0.806364
0.809245
0.806465
0.857951
0.803645
0.814441
0.813209
0.805473
0.635676
0.803963
0.813256
0.815462
0.810425
0.813302
0.813783
0.813529
0.810275
0.864557
0.504402
0.813335
0.84191
0.813159
0.803069
0.808586
0.815442
0.83995
0.800819
0.801658
0.812894
0.701617
0.813355
0.808523
0.807782
0.813046
0.813391
0.813528
0.813847
0.514581
0.812012
0.717333
0.885966
0.821409
0.732912
0.67565
0.815797
0.803865
0.819062
0.64733
0.801843
0.81382
0.648794
0.800237
0.804211
0.815916
0.806571
0.85695
0.809944
0.607972
0.801114
0.775153
0.811338
0.889192
0.803627
0.815635
0.819576
0.832436
0.813882
0.82276
0.836615
0.635856
0.802999
0.656588
0.814215
0.814117
0.711575
0.814006
0.805212
0.712469
0.815286
0.702979
0.86127
0.784403
0.81475
0.81341
0.813904
0.668987
0.814126
0.634087
0.800483
0.792551
0.822648
0.815616
0.716999
0.766669
0.830363
0.813238
0.821559
0.822266
0.813918
0.825671
0.79985
0.553485
0.7548
0.759783
0.730846
0.837885
0.822853
0.83458
0.776584
0.80282
0.813534
0.813466
0.813468
0.774977
0.565126
0.803254
0.531277
0.808531
0.82477
0.800077
0.803824
0.813439
0.80613
0.783047
0.732616
0.813869
0.859324
0.814025
0.799639
0.736641
0.810058
0.788917
0.833946
0.507297
0.796106
0.806328
0.799256
0.691883
0.813337
0.811128
0.857786
0.57032
0.807441
0.803316
0.813297
0.614758
0.813583
0.80338
0.803457
0.803083
0.813689
0.813782
0.816511
0.813542
0.716763
0.804588
0.803246
0.813497
0.896263
0.813637
0.774415
0.841513
0.799264
0.803171
0.602421
0.813395
0.803406
0.826143
0.80208
0.866403
0.815156
0.854012
0.80072
0.820998
0.778168
0.559784
0.753335
0.79465
0.804358
0.814038
0.814258
0.556977
0.861948
0.858624
0.769015
0.757838
0.738641
0.812542
0.848888
0.813431
0.813944
0.813465
0.804345
0.726681
0.803566
0.79947
0.764103
0.824595
0.823344
0.862004
0.816058
0.813478
0.532433
0.80898
0.813438
0.801004
0.774357
0.818192
0.803145
0.813354
0.827207
0.798589
0.803839
0.801444
0.815518
0.839373
0.802736
0.799502
0.801909
0.766049
0.820233
0.568447
0.868526
0.803762
0.547272
0.803474
0.803459
0.819968
0.59834
0.60728
0.801855
0.804027
0.801187
0.860895
0.780233
0.814993
0.803
0.866559
0.804788
0.804521
0.826565
0.81631
0.82056
0.821623
0.82068
0.867627
0.729797
0.852334
0.817583
0.654504
0.802809
0.803252
0.803708
0.821474
0.823835
0.804207
0.801405
0.800394
0.823017
0.803437
0.803684
0.80003
0.824713
0.804039
0.802146
0.806161
0.828165
0.800958
0.801823
0.824761
0.799909
0.815796
0.652116
0.826703
0.850041
0.805077
0.819936
0.803311
0.82905
0.837756
0.80345
0.821821
0.800788
0.807353
0.789698
0.802295
0.803405
0.806437
0.806114
0.804856
0.81891
0.815171
0.811359
0.831696
0.802557
0.802311
0.800252
0.78906
0.834053
0.803232
0.819666
0.815622
0.807291
0.805328
0.802982
0.839149
0.865536
0.799941
0.679641
0.801391
0.842392
0.816983
0.805536
0.804532
0.81989
0.844812
0.606743
0.829265
0.794887
0.851073
0.819094
0.812141
0.813464
0.808592
0.804022
0.812934
0.808887
0.592839
0.848204
0.794799
0.814615
0.854787
0.819641
0.763591
0.80883
0.814879
0.815837
0.803071
0.662512
0.809632
0.863328
0.802899
0.800944
0.775907
0.871357
0.800649
0.8772
0.806984
0.817544
0.820963
0.80265
0.804072
0.813081
0.816279
0.803869
0.813776
0.817123
0.881476
0.820862
0.809391
0.800538
0.828678
0.810584
0.839397
0.809044
0.807025
0.81256
0.816937
0.830159
0.814093
0.822846
0.832757
0.814594
0.70119
0.693311
0.813514
0.818119
0.80423
0.813574
0.517305
0.855042
0.80007
0.806306
0.814343
0.813923
0.804043
0.812937
0.800798
0.801454
0.808338
0.815032
0.757507
0.784987
0.82327
0.843298
0.835049
0.800607
0.805447
0.803407
0.813032
0.805931
0.799885
0.800116
0.801233
0.811179
0.797951
0.803135
0.835759
0.831827
0.730935
0.701637
0.807716
0.700464
0.799895
0.576741
0.804501
0.807128
0.803445
0.818533
0.834285
0.81436
0.813341
0.810371
0.803949
0.881648
0.816657
0.805221
0.772577
0.589716
0.810329
0.807014
0.769723
0.814836
0.814311
0.791635
0.80083
0.804112
0.631097
0.830673
0.803558
0.781985
0.779584
0.852895
0.810075
0.803261
0.803021
0.810642
0.811185
0.521528
0.801994
0.839742
0.81436
0.798725
0.590423
0.814794
0.814498
0.813443
0.834003
0.81435
0.804056
0.822229
0.80602
0.577018
0.808771
0.737367
0.798595
0.814078
0.722794
0.815336
0.846602
0.831819
0.665287
0.891003
0.785807
0.777903
0.797013
0.779662
0.80886
0.850602
0.808346
0.80299
0.813995
0.809285
0.782859
0.78614
0.814303
0.808721
0.835059
0.821589
0.835893
0.801675
0.800037
0.813523
0.856806
0.816776
0.818686
0.8138
0.608326
0.795677
0.824186
0.829564
0.866065
0.813094
0.819183
0.511592
0.810173
0.800904
0.813052
0.81519
0.847789
0.813519
0.811184
0.881617
0.765019
0.812714
0.813687
0.809438
0.805312
0.814649
0.6567
0.800619
0.849743
0.833711
0.81096
0.813925
0.813818
0.809653
0.700759
0.812868
0.800567
0.83882
0.818829
0.812044
0.831566
0.793128
0.811931
0.818172
0.809232
0.819642
0.745071
0.855341
0.819319
0.814203
0.813524
0.813177
0.816086
0.817517
0.813227
0.811175
0.841305
0.818952
0.800523
0.82546
0.82722
0.816457
0.814634
0.800705
0.801717
0.813519
0.81938
0.829599
0.813276
0.816821
0.800229
0.810357
0.813316
0.813265
0.80256
0.815076
0.813774
0.803381
0.813342
0.835909
0.800138
0.809836
0.821984
0.561689
0.814628
0.818524
0.81585
0.815382
0.822293
0.829087
0.816006
0.819193
0.702078
0.813531
0.801569
0.81601
0.819394
0.835274
0.821899
0.81579
0.82966
0.825253
0.811139
0.819292
0.819983
0.804608
0.813619
0.815997
0.819636
0.832389
0.813085
0.816089
0.802768
0.813416
0.813513
0.525908
0.62939
0.814458
0.821775
0.802026
0.822776
0.816295
0.842101
0.708722
0.814178
0.731353
0.817688
0.810723
0.813622
0.829598
0.814091
0.805315
0.8134
0.830314
0.839925
0.813248
0.719758
0.819389
0.81641
0.800235
0.803062
0.815708
0.856104
0.813115
0.813821
0.849896
0.829229
0.843453
0.576326
0.829392
0.814368
0.811295
0.817769
0.851181
0.818129
0.718935
0.799903
0.831938
0.800188
0.800069
0.805586
0.748287
0.813844
0.814752
0.72629
0.814759
0.827511
0.813758
0.814438
0.799603
0.81873
0.813464
0.823989
0.808787
0.808549
0.81534
0.705772
0.819427
0.814489
0.813452
0.641246
0.717755
0.600402
0.823441
0.533951
0.854495
0.727836
0.843035
0.812978
0.724181
0.821645
0.816252
0.743022
0.807836
0.818712
0.794487
0.816888
0.816251
0.81618
0.813463
0.808305
0.80372
0.737777
0.836663
0.820496
0.816977
0.79956
0.815581
0.802445
0.816392
0.813891
0.855221
0.818129
0.50059
0.813673
0.819142
0.819017
0.778289
0.815891
0.806803
0.818721
0.845959
0.597633
0.8095
0.799701
0.815714
0.817982
0.818049
0.812911
0.818954
0.81423
0.814961
0.803127
0.814654
0.846332
0.814335
0.792073
0.811915
0.623515
0.718458
0.813532
0.817364
0.803081
0.822627
0.735555
0.803178
0.803205
0.820547
0.689172
0.81796
0.799756
0.815809
0.865462
0.785697
0.822276
0.818337
0.823227
0.814441
0.769924
0.802507
0.813997
0.902376
0.827344
0.816806
0.832405
0.810058
0.869051
0.718729
0.703241
0.852831
0.802747
0.698698
0.850774
0.786253