# vtk DataFile Version 1.0
unstructured grid
ascii
DATASET UNSTRUCTURED_GRID
points 7812 float
-1 0 0
-1 1 0
2 0 0
2 1 0
0 0 0
1 0 0
-1 1 0.1
-1 0 0.1
0 0 0.1
1 0 0.1
2 0 0.1
2 1 0.1
-0.99 0 0
-0.98 0 0
-0.97 0 0
-0.96 0 0
-0.95 0 0
-0.94 0 0
-0.93 0 0
-0.92 0 0
-0.91 0 0
-0.9 0 0
-0.89 0 0
-0.88 0 0
-0.87 0 0
-0.86 0 0
-0.85 0 0
-0.84 0 0
-0.83 0 0
-0.82 0 0
-0.81 0 0
-0.8 0 0
-0.79 0 0
-0.78 0 0
-0.77 0 0
-0.76 0 0
-0.75 0 0
-0.74 0 0
-0.73 0 0
-0.72 0 0
-0.71 0 0
-0.7 0 0
-0.69 0 0
-0.68 0 0
-0.67 0 0
-0.66 0 0
-0.65 0 0
-0.64 0 0
-0.63 0 0
-0.62 0 0
-0.61 0 0
-0.6 0 0
-0.59 0 0
-0.58 0 0
-0.57 0 0
-0.56 0 0
-0.55 0 0
-0.54 0 0
-0.53 0 0
-0.52 0 0
-0.51 0 0
-0.5 0 0
-0.49 0 0
-0.48 0 0
-0.47 0 0
-0.46 0 0
-0.45 0 0
-0.44 0 0
-0.43 0 0
-0.42 0 0
-0.41 0 0
-0.4 0 0
-0.39 0 0
-0.38 0 0
-0.37 0 0
-0.36 0 0
-0.35 0 0
-0.34 0 0
-0.33 0 0
-0.32 0 0
-0.31 0 0
-0.3 0 0
-0.29 0 0
-0.28 0 0
-0.27 0 0
-0.26 0 0
-0.25 0 0
-0.24 0 0
-0.23 0 0
-0.22 0 0
-0.21 0 0
-0.2 0 0
-0.19 0 0
-0.18 0 0
-0.17 0 0
-0.16 0 0
-0.15 0 0
-0.14 0 0
-0.13 0 0
-0.12 0 0
-0.11 0 0
-0.1 0 0
-0.09 0 0
-0.08 0 0
-0.07 0 0
-0.06 0 0
-0.05 0 0
-0.04 0 0
-0.03 0 0
-0.02 0 0
-0.01 0 0
1.01 0 0
1.02 0 0
1.03 0 0
1.04 0 0
1.05 0 0
1.06 0 0
1.07 0 0
1.08 0 0
1.09 0 0
1.1 0 0
1.11 0 0
1.12 0 0
1.13 0 0
1.14 0 0
1.15 0 0
1.16 0 0
1.17 0 0
1.18 0 0
1.19 0 0
1.2 0 0
1.21 0 0
1.22 0 0
1.23 0 0
1.24 0 0
1.25 0 0
1.26 0 0
1.27 0 0
1.28 0 0
1.29 0 0
1.3 0 0
1.31 0 0
1.32 0 0
1.33 0 0
1.34 0 0
1.35 0 0
1.36 0 0
1.37 0 0
1.38 0 0
1.39 0 0
1.4 0 0
1.41 0 0
1.42 0 0
1.43 0 0
1.44 0 0
1.45 0 0
1.46 0 0
1.47 0 0
1.48 0 0
1.49 0 0
1.5 0 0
1.51 0 0
1.52 0 0
1.53 0 0
1.54 0 0
1.55 0 0
1.56 0 0
1.57 0 0
1.58 0 0
1.59 0 0
1.6 0 0
1.61 0 0
1.62 0 0
1.63 0 0
1.64 0 0
1.65 0 0
1.66 0 0
1.67 0 0
1.68 0 0
1.69 0 0
1.7 0 0
1.71 0 0
1.72 0 0
1.73 0 0
1.74 0 0
1.75 0 0
1.76 0 0
1.77 0 0
1.78 0 0
1.79 0 0
1.8 0 0
1.81 0 0
1.82 0 0
1.83 0 0
1.84 0 0
1.85 0 0
1.86 0 0
1.87 0 0
1.88 0 0
1.89 0 0
1.9 0 0
1.91 0 0
1.92 0 0
1.93 0 0
1.94 0 0
1.95 0 0
1.96 0 0
1.97 0 0
1.98 0 0
1.99 0 0
2 0.010289 0
2 0.0215307 0
2 0.0338135 0
2 0.0472336 0
2 0.0618965 0
2 0.0779171 0
2 0.0954213 0
2 0.114546 0
2 0.135442 0
2 0.158274 0
2 0.183219 0
2 0.210474 0
2 0.240253 0
2 0.27279 0
2 0.308339 0
2 0.347181 0
2 0.389619 0
2 0.435987 0
2 0.486649 0
2 0.542002 0
2 0.602481 0
2 0.66856 0
2 0.740758 0
2 0.819642 0
2 0.90583 0
1.9 1 0
1.8 1 0
1.7 1 0
1.6 1 0
1.5 1 0
1.4 1 0
1.3 1 0
1.2 1 0
1.1 1 0
1 1 0
0.9 1 0
0.8 1 0
0.7 1 0
0.6 1 0
0.5 1 0
0.4 1 0
0.3 1 0
0.2 1 0
0.1 1 0
3.69793e-12 1 0
-0.1 1 0
-0.2 1 0
-0.3 1 0
-0.4 1 0
-0.5 1 0
-0.6 1 0
-0.7 1 0
-0.8 1 0
-0.9 1 0
-1 0.90583 0
-1 0.819642 0
-1 0.740758 0
-1 0.66856 0
-1 0.602481 0
-1 0.542002 0
-1 0.486649 0
-1 0.435987 0
-1 0.389619 0
-1 0.347181 0
-1 0.308339 0
-1 0.27279 0
-1 0.240253 0
-1 0.210474 0
-1 0.183219 0
-1 0.158274 0
-1 0.135442 0
-1 0.114546 0
-1 0.0954213 0
-1 0.0779171 0
-1 0.0618965 0
-1 0.0472336 0
-1 0.0338135 0
-1 0.0215307 0
-1 0.010289 0
0.00921362 0.00379763 0
0.0184561 0.00752451 0
0.0277268 0.0111804 0
0.0370253 0.0147652 0
0.0463511 0.0182786 0
0.0557034 0.0217203 0
0.0650819 0.0250903 0
0.074486 0.0283883 0
0.083915 0.0316141 0
0.0933685 0.0347675 0
0.102846 0.0378484 0
0.112347 0.0408565 0
0.12187 0.0437917 0
0.131416 0.0466538 0
0.140983 0.0494427 0
0.150572 0.0521581 0
0.160181 0.0547999 0
0.16981 0.0573681 0
0.179458 0.0598623 0
0.189125 0.0622825 0
0.198811 0.0646285 0
0.208514 0.0669001 0
0.218234 0.0690974 0
0.227971 0.07122 0
0.237724 0.073268 0
0.247493 0.0752411 0
0.257276 0.0771393 0
0.267073 0.0789625 0
0.276884 0.0807105 0
0.286708 0.0823832 0
0.296545 0.0839806 0
0.306394 0.0855025 0
0.316254 0.0869488 0
0.326125 0.0883196 0
0.336006 0.0896146 0
0.345896 0.0908339 0
0.355796 0.0919773 0
0.365704 0.0930447 0
0.375621 0.0940362 0
0.385544 0.0949517 0
0.395474 0.095791 0
0.40541 0.0965542 0
0.415352 0.0972412 0
0.425299 0.097852 0
0.43525 0.0983865 0
0.445205 0.0988447 0
0.455164 0.0992266 0
0.465125 0.0995321 0
0.475088 0.0997613 0
0.485052 0.0999141 0
0.495017 0.0999904 0
0.504983 0.0999904 0
0.514948 0.0999141 0
0.524912 0.0997613 0
0.534875 0.0995321 0
0.544836 0.0992266 0
0.554795 0.0988447 0
0.56475 0.0983865 0
0.574701 0.097852 0
0.584648 0.0972412 0
0.59459 0.0965542 0
0.604526 0.095791 0
0.614456 0.0949517 0
0.624379 0.0940362 0
0.634296 0.0930447 0
0.644204 0.0919773 0
0.654104 0.0908339 0
0.663994 0.0896146 0
0.673875 0.0883196 0
0.683746 0.0869488 0
0.693606 0.0855025 0
0.703455 0.0839806 0
0.713292 0.0823832 0
0.723116 0.0807105 0
0.732927 0.0789625 0
0.742724 0.0771393 0
0.752508 0.0752411 0
0.762276 0.073268 0
0.772029 0.07122 0
0.781766 0.0690974 0
0.791486 0.0669001 0
0.801189 0.0646285 0
0.810875 0.0622825 0
0.820542 0.0598623 0
0.83019 0.0573681 0
0.839819 0.0547999 0
0.849428 0.0521581 0
0.859017 0.0494427 0
0.868584 0.0466538 0
0.87813 0.0437917 0
0.887653 0.0408565 0
0.897154 0.0378484 0
0.906631 0.0347675 0
0.916085 0.0316141 0
0.925514 0.0283883 0
0.934918 0.0250903 0
0.944297 0.0217203 0
0.953649 0.0182786 0
0.962975 0.0147652 0
0.972273 0.0111804 0
0.981544 0.00752451 0
0.990786 0.00379763 0
-1 0.90583 0.1
-1 0.819642 0.1
-1 0.740758 0.1
-1 0.66856 0.1
-1 0.602481 0.1
-1 0.542002 0.1
-1 0.486649 0.1
-1 0.435987 0.1
-1 0.389619 0.1
-1 0.347181 0.1
-1 0.308339 0.1
-1 0.27279 0.1
-1 0.240253 0.1
-1 0.210474 0.1
-1 0.183219 0.1
-1 0.158274 0.1
-1 0.135442 0.1
-1 0.114546 0.1
-1 0.0954213 0.1
-1 0.0779171 0.1
-1 0.0618965 0.1
-1 0.0472336 0.1
-1 0.0338135 0.1
-1 0.0215307 0.1
-1 0.010289 0.1
-0.99 0 0.1
-0.98 0 0.1
-0.97 0 0.1
-0.96 0 0.1
-0.95 0 0.1
-0.94 0 0.1
-0.93 0 0.1
-0.92 0 0.1
-0.91 0 0.1
-0.9 0 0.1
-0.89 0 0.1
-0.88 0 0.1
-0.87 0 0.1
-0.86 0 0.1
-0.85 0 0.1
-0.84 0 0.1
-0.83 0 0.1
-0.82 0 0.1
-0.81 0 0.1
-0.8 0 0.1
-0.79 0 0.1
-0.78 0 0.1
-0.77 0 0.1
-0.76 0 0.1
-0.75 0 0.1
-0.74 0 0.1
-0.73 0 0.1
-0.72 0 0.1
-0.71 0 0.1
-0.7 0 0.1
-0.69 0 0.1
-0.68 0 0.1
-0.67 0 0.1
-0.66 0 0.1
-0.65 0 0.1
-0.64 0 0.1
-0.63 0 0.1
-0.62 0 0.1
-0.61 0 0.1
-0.6 0 0.1
-0.59 0 0.1
-0.58 0 0.1
-0.57 0 0.1
-0.56 0 0.1
-0.55 0 0.1
-0.54 0 0.1
-0.53 0 0.1
-0.52 0 0.1
-0.51 0 0.1
-0.5 0 0.1
-0.49 0 0.1
-0.48 0 0.1
-0.47 0 0.1
-0.46 0 0.1
-0.45 0 0.1
-0.44 0 0.1
-0.43 0 0.1
-0.42 0 0.1
-0.41 0 0.1
-0.4 0 0.1
-0.39 0 0.1
-0.38 0 0.1
-0.37 0 0.1
-0.36 0 0.1
-0.35 0 0.1
-0.34 0 0.1
-0.33 0 0.1
-0.32 0 0.1
-0.31 0 0.1
-0.3 0 0.1
-0.29 0 0.1
-0.28 0 0.1
-0.27 0 0.1
-0.26 0 0.1
-0.25 0 0.1
-0.24 0 0.1
-0.23 0 0.1
-0.22 0 0.1
-0.21 0 0.1
-0.2 0 0.1
-0.19 0 0.1
-0.18 0 0.1
-0.17 0 0.1
-0.16 0 0.1
-0.15 0 0.1
-0.14 0 0.1
-0.13 0 0.1
-0.12 0 0.1
-0.11 0 0.1
-0.1 0 0.1
-0.09 0 0.1
-0.08 0 0.1
-0.07 0 0.1
-0.06 0 0.1
-0.05 0 0.1
-0.04 0 0.1
-0.03 0 0.1
-0.02 0 0.1
-0.01 0 0.1
0.00921362 0.00379763 0.1
0.0184561 0.00752451 0.1
0.0277268 0.0111804 0.1
0.0370253 0.0147652 0.1
0.0463511 0.0182786 0.1
0.0557034 0.0217203 0.1
0.0650819 0.0250903 0.1
0.074486 0.0283883 0.1
0.083915 0.0316141 0.1
0.0933685 0.0347675 0.1
0.102846 0.0378484 0.1
0.112347 0.0408565 0.1
0.12187 0.0437917 0.1
0.131416 0.0466538 0.1
0.140983 0.0494427 0.1
0.150572 0.0521581 0.1
0.160181 0.0547999 0.1
0.16981 0.0573681 0.1
0.179458 0.0598623 0.1
0.189125 0.0622825 0.1
0.198811 0.0646285 0.1
0.208514 0.0669001 0.1
0.218234 0.0690974 0.1
0.227971 0.07122 0.1
0.237724 0.073268 0.1
0.247493 0.0752411 0.1
0.257276 0.0771393 0.1
0.267073 0.0789625 0.1
0.276884 0.0807105 0.1
0.286708 0.0823832 0.1
0.296545 0.0839806 0.1
0.306394 0.0855025 0.1
0.316254 0.0869488 0.1
0.326125 0.0883196 0.1
0.336006 0.0896146 0.1
0.345896 0.0908339 0.1
0.355796 0.0919773 0.1
0.365704 0.0930447 0.1
0.375621 0.0940362 0.1
0.385544 0.0949517 0.1
0.395474 0.095791 0.1
0.40541 0.0965542 0.1
0.415352 0.0972412 0.1
0.425299 0.097852 0.1
0.43525 0.0983865 0.1
0.445205 0.0988447 0.1
0.455164 0.0992266 0.1
0.465125 0.0995321 0.1
0.475088 0.0997613 0.1
0.485052 0.0999141 0.1
0.495017 0.0999904 0.1
0.504983 0.0999904 0.1
0.514948 0.0999141 0.1
0.524912 0.0997613 0.1
0.534875 0.0995321 0.1
0.544836 0.0992266 0.1
0.554795 0.0988447 0.1
0.56475 0.0983865 0.1
0.574701 0.097852 0.1
0.584648 0.0972412 0.1
0.59459 0.0965542 0.1
0.604526 0.095791 0.1
0.614456 0.0949517 0.1
0.624379 0.0940362 0.1
0.634296 0.0930447 0.1
0.644204 0.0919773 0.1
0.654104 0.0908339 0.1
0.663994 0.0896146 0.1
0.673875 0.0883196 0.1
0.683746 0.0869488 0.1
0.693606 0.0855025 0.1
0.703455 0.0839806 0.1
0.713292 0.0823832 0.1
0.723116 0.0807105 0.1
0.732927 0.0789625 0.1
0.742724 0.0771393 0.1
0.752508 0.0752411 0.1
0.762276 0.073268 0.1
0.772029 0.07122 0.1
0.781766 0.0690974 0.1
0.791486 0.0669001 0.1
0.801189 0.0646285 0.1
0.810875 0.0622825 0.1
0.820542 0.0598623 0.1
0.83019 0.0573681 0.1
0.839819 0.0547999 0.1
0.849428 0.0521581 0.1
0.859017 0.0494427 0.1
0.868584 0.0466538 0.1
0.87813 0.0437917 0.1
0.887653 0.0408565 0.1
0.897154 0.0378484 0.1
0.906631 0.0347675 0.1
0.916085 0.0316141 0.1
0.925514 0.0283883 0.1
0.934918 0.0250903 0.1
0.944297 0.0217203 0.1
0.953649 0.0182786 0.1
0.962975 0.0147652 0.1
0.972273 0.0111804 0.1
0.981544 0.00752451 0.1
0.990786 0.00379763 0.1
1.01 0 0.1
1.02 0 0.1
1.03 0 0.1
1.04 0 0.1
1.05 0 0.1
1.06 0 0.1
1.07 0 0.1
1.08 0 0.1
1.09 0 0.1
1.1 0 0.1
1.11 0 0.1
1.12 0 0.1
1.13 0 0.1
1.14 0 0.1
1.15 0 0.1
1.16 0 0.1
1.17 0 0.1
1.18 0 0.1
1.19 0 0.1
1.2 0 0.1
1.21 0 0.1
1.22 0 0.1
1.23 0 0.1
1.24 0 0.1
1.25 0 0.1
1.26 0 0.1
1.27 0 0.1
1.28 0 0.1
1.29 0 0.1
1.3 0 0.1
1.31 0 0.1
1.32 0 0.1
1.33 0 0.1
1.34 0 0.1
1.35 0 0.1
1.36 0 0.1
1.37 0 0.1
1.38 0 0.1
1.39 0 0.1
1.4 0 0.1
1.41 0 0.1
1.42 0 0.1
1.43 0 0.1
1.44 0 0.1
1.45 0 0.1
1.46 0 0.1
1.47 0 0.1
1.48 0 0.1
1.49 0 0.1
1.5 0 0.1
1.51 0 0.1
1.52 0 0.1
1.53 0 0.1
1.54 0 0.1
1.55 0 0.1
1.56 0 0.1
1.57 0 0.1
1.58 0 0.1
1.59 0 0.1
1.6 0 0.1
1.61 0 0.1
1.62 0 0.1
1.63 0 0.1
1.64 0 0.1
1.65 0 0.1
1.66 0 0.1
1.67 0 0.1
1.68 0 0.1
1.69 0 0.1
1.7 0 0.1
1.71 0 0.1
1.72 0 0.1
1.73 0 0.1
1.74 0 0.1
1.75 0 0.1
1.76 0 0.1
1.77 0 0.1
1.78 0 0.1
1.79 0 0.1
1.8 0 0.1
1.81 0 0.1
1.82 0 0.1
1.83 0 0.1
1.84 0 0.1
1.85 0 0.1
1.86 0 0.1
1.87 0 0.1
1.88 0 0.1
[...]
CELL_DATA 7425
SCALARS rho float
LOOKUP_TABLE default
0.587398
0.805046
0.819602
0.827559
0.799484
0.819197
0.820946
0.81419
0.813049
0.738703
0.863507
0.810055
0.813954
0.827416
0.803768
0.817202
0.798812
0.813328
0.803477
0.767297
0.831312
0.822066
0.724861
0.828089
0.803884
0.703227
0.831243
0.84836
0.800176
0.80797
0.819404
0.725417
0.803624
0.652284
0.519709
0.828055
0.803514
0.814168
0.811165
0.828045
0.716147
0.703506
0.790023
0.701755
0.586752
0.748277
0.799358
0.813888
0.662217
0.719202
0.746332
0.805163
0.812372
0.799136
0.709635
0.638063
0.822958
0.800135
0.738574
0.701018
0.709737
0.80767
0.813298
0.799438
0.798786
0.817658
0.584582
0.773335
0.70443
0.807891
0.804218
0.803207
0.883414
0.821138
0.810863
0.813108
0.805059
0.80045
0.813304
0.757797
0.816031
0.80725
0.810349
0.788734
0.835931
0.801146
0.574662
0.829992
0.542835
0.848507
0.706123
0.729815
0.845321
0.803185
0.817448
0.758318
0.836092
0.788045
0.825669
0.802536
0.808146
0.738645
0.803294
0.828277
0.597419
0.811091
0.824412
0.707592
0.81505
0.799228
0.816759
0.784573
0.789854
0.812442
0.789755
0.786344
0.831292
0.803109
0.699821
0.631947
0.805058
0.777316
0.813013
0.790429
0.85896
0.838924
0.807707
0.804311
0.661333
0.504526
0.81453
0.655239
0.51556
0.867799
0.662615
0.799578
0.811118
0.723646
0.582222
0.724987
0.723414
0.809649
0.809705
0.70713
0.803188
0.779637
0.565683
0.788572
0.782547
0.827807
0.816799
0.704382
0.802959
0.744309
0.705028
0.803284
0.810456
0.830448
0.797603
0.652456
0.802532
0.703032
0.801153
0.829781
0.820503
0.802384
0.81313
0.784859
0.80629
0.800706
0.819755
0.804538
0.791237
0.79919
0.799924
0.740254
0.80375
0.758821
0.594383
0.705665
0.799738
0.792756
0.879808
0.831877
0.621127
0.82297
0.798698
0.827393
0.799928
0.813467
0.812679
0.803202
0.806957
0.704395
0.815065
0.819301
0.770138
0.79719
0.861234
0.80778
0.81186
0.811234
0.613051
0.838977
0.573245
0.532196
0.595678
0.601031
0.828193
0.879343
0.807537
0.798664
0.841402
0.813038
0.816731
0.820811
0.815257
0.638156
0.550477
0.813786
0.545892
0.592832
0.703245
0.81175
0.814121
0.813109
0.833169
0.812982
0.8643
0.709729
0.835255
0.712881
0.805183
0.803931
0.801979
0.714017
0.72063
0.619657
0.705186
0.863638
0.875502
0.806294
0.807708
0.798913
0.811565
0.716065
0.821652
0.800251
0.825733
0.794643
0.809916
0.721385
0.812882
0.823779
0.73992
0.528804
0.799906
0.736401
0.843331
0.8144
0.726528
0.81563
0.814896
0.849969
0.809572
0.803934
0.803261
0.825693
0.860781
0.805498
0.61941
0.848911
0.812051
0.805613
0.82758
0.837361
0.813054
0.821473
0.793522
0.815127
0.866706
0.849963
0.827379
0.836771
0.802691
0.81721
0.803196
0.759746
0.701455
0.581111
0.700616
0.802392
0.812959
0.816038
0.854791
0.779687
0.645891
0.82712
0.521273
0.774331
0.801028
0.646552
0.49626
0.639251
0.815252
0.8133
0.813036
0.812784
0.826755
0.774455
0.811489
0.802676
0.812978
0.84074
0.8672
0.83359
0.802762
0.705549
0.795936
0.834309
0.691703
0.798805
0.802063
0.8648
0.817151
0.593239
0.813455
0.74064
0.852379
0.732103
0.810171
0.90766
0.799929
0.795699
0.659107
0.635722
0.711492
0.780655
0.826579
0.81499
0.813753
0.882534
0.858261
0.799597
0.7992
0.826049
0.739321
0.802543
0.879399
0.801388
0.804764
0.800756
0.802576
0.813032
0.815774
0.816423
0.636424
0.830031
0.645946
0.808499
0.639537
0.802668
0.802249
0.840288
0.728859
0.816362
0.808622
0.817031
0.799552
0.802504
0.811269
0.697096
0.824488
0.813126
0.812994
0.800689
0.736838
0.560173
0.806425
0.811089
0.803196
0.812966
0.794779
0.504113
0.846065
0.813379
0.803857
0.78577
0.813327
0.804711
0.803075
0.81629
0.807522
0.822552
0.768659
0.812689
0.807785
0.562904
0.803178
0.640261
0.83878
0.636384
0.814753
0.877914
0.593681
0.818107
0.749026
0.804424
0.873355
0.534143
0.823162
0.822302
0.803505
0.825778
0.811092
0.8235
0.830673
0.824875
0.739843
0.827559
0.761658
0.810253
0.794259
0.793672
0.758656
0.805614
0.802093
0.814515
0.752345
0.804736
0.604633
0.614416
0.689289
0.812877
0.844224
0.864857
0.829911
0.798644
0.812715
0.804923
0.81856
0.680635
0.801035
0.743026
0.824082
0.814851
0.805459
0.711517
0.727329
0.534011
0.605782
0.801343
0.611549
0.792639
0.765405
0.770096
0.726999
0.762524
0.7676
0.809501
0.814988
0.819597
0.811535
0.710683
0.602781
0.839061
0.806983
0.783177
0.8099
0.802593
0.83659
0.718404
0.855308
0.763706
0.728541
0.764592
0.811565
0.545336
0.798888
0.841646
0.813338
0.813847
0.809779
0.79923
0.78037
0.835727
0.803116
0.843003
0.721172
0.707299
0.800376
0.795198
0.822064
0.708861
0.847988
0.800488
0.816105
0.798788
0.779208
0.808329
0.594817
0.677564
0.632565
0.812995
0.803853
0.826394
0.749318
0.810609
0.814856
0.820439
0.799039
0.729511
0.796938
0.814364
0.803206
0.703504
0.813656
0.818954
0.840057
0.810849
0.825378
0.86231
0.857293
0.744042
0.603607
0.838056
0.805844
0.843405
0.814287
0.822949
0.813587
0.813865
0.635457
0.805253
0.809355
0.812898
0.791947
0.810628
0.804824
0.860635
0.798726
0.812812
0.814772
0.871939
0.597831
0.813524
0.842517
0.88333
0.530801
0.816458
0.829999
0.796161
0.814765
0.795
0.867617
0.81224
0.831387
0.812782
0.619531
0.802412
0.80416
0.691126
0.853161
0.759758
0.801828
0.814039
0.812783
0.859816
0.795371
0.833643
0.834757
0.784365
0.825216
0.842447
0.799805
0.810559
0.807025
0.805328
0.814895
0.802641
0.845252
0.769295
0.809796
0.803179
0.815254
0.723265
0.81297
0.818405
0.75267
0.813651
0.816396
0.827642
0.82516
0.800779
0.800703
0.850522
0.767918
0.825205
0.844236
0.804569
0.506146
0.812972
0.82832
0.852409
0.812703
0.803155
0.80855
0.855069
0.780083
0.802596
0.801289
0.813012
0.72736
0.802768
0.83004
0.808084
0.794995
0.79358
0.843231
0.80662
0.845343
0.802028
0.824295
0.812831
0.804229
0.841879
0.812941
0.679673
0.818831
0.807114
0.812903
0.906152
0.800849
0.815942
0.800523
0.800448
0.816262
0.800553
0.803376
0.783731
0.747382
0.806568
0.812974
0.758094
0.791471
0.823069
0.813033
0.822306
0.806352
0.825818
0.875321
0.830689
0.575361
0.708903
0.840788
0.817345
0.844187
0.814823
0.850129
0.807407
0.812441
0.799413
0.838444
0.860956
0.852819
0.731654
0.814154
0.822224
0.743921
0.817179
0.775991
0.800269
0.73319
0.816124
0.830906
0.82349
0.861967
0.814279
0.813371
0.810251
0.814706
0.835826
0.812217
0.79873
0.810247
0.737678
0.811425
0.774169
0.832876
0.812839
0.638954
0.777675
0.811209
0.799246
0.81988
0.802544
0.814739
0.817357
0.804506
0.819451
0.804176
0.805923
0.597639
0.847075
0.825177
0.826749
0.814994
0.803232
0.701952
0.806552
0.907842
0.813655
0.801105
0.812956
0.782319
0.80733
0.813353
0.821338
0.814657
0.813301
0.8163
0.701263
0.777921
0.764676
0.812737
0.805358
0.801101
0.621513
0.805787
0.802698
0.708348
0.837253
0.817257
0.802245
0.80752
0.799459
0.817307
0.813979
0.813362
0.812959
0.70978
0.831732
0.800302
0.807486
0.84287
0.817693
0.816354
0.80024
0.753697
0.823881
0.787486
0.821486
0.789444
0.805713
0.821006
0.737555
0.817454
0.651098
0.872049
0.704454
0.84504
0.800872
0.875175
0.793769
0.801711
0.820725
0.836285
0.83844
0.825514
0.819883
0.814772
0.801192
0.804201
0.808274
0.725982
0.827266
0.800097
0.719596
0.830572
0.705173
0.800075
0.860514
0.805597
0.701783
0.797869
0.814157
0.704793
0.785664
0.819439
0.831893
0.807033
0.575303
0.728858
0.812405
0.801402
0.813006
0.800733
0.737307
0.814083
0.815781
0.812573
0.775421
0.803274
0.804508
0.80365
0.560671
0.812795
0.834133
0.580172
0.815231
0.816166
0.814764
0.818418
0.814489
0.824587
0.799154
0.795141
0.771025
0.822925
0.829691
0.825132
0.834967
0.765429
0.809077
0.724645
0.772403
0.808874
0.821127
0.81336
0.800984
0.858414
0.81301
0.800403
0.809671
0.816157
0.815254
0.836669
0.814562
0.812888
0.811995
0.81389
0.800217
0.821048
0.803782
0.822881
0.813542
0.57589
0.813588
0.834504
0.858191
0.838217
0.491326
0.816869
0.804576
0.497051
0.669634
0.643754
0.834334
0.808022
0.811665
0.812877
0.80321
0.81681
0.810995
0.5349
0.686763
0.818263
0.806639
0.815678
0.803518
0.810258
0.810988
0.82029
0.799573
0.692596
0.856039
0.803156
0.814735
0.813695
0.757847
0.486275
0.832936
0.813584
0.741935
0.802707
0.806276
0.591388
0.827567
0.814847
0.827767
0.818838
0.826058
0.804743
0.719682
0.643699
0.562293
0.825365
0.808593
0.782974
0.813051
0.77987
0.817949
0.873332
0.762434
0.821662
0.813595
0.825885
0.883581
0.81451
0.811911
0.80328
0.81388
0.691918
0.828254
0.799935
0.81024
0.802228
0.78428
0.854191
0.822093
0.840512
0.821576
0.757578
0.755961
0.803384
0.818158
0.80307
0.805257
0.802604
0.77573
0.814751
0.761665
0.821227
0.662196
0.814042
0.802976
0.735622
0.823289
0.818025
0.740069
0.80118
0.757291
0.880793
0.800733
0.812924
0.762758
0.800159
0.814341
0.80396
0.590072
0.820982
0.79871
0.801415
0.814594
0.825657
0.757228
0.805594
0.84172
0.827015
0.814127
0.835877
0.700213
0.700251
0.813007
0.744237
0.82227
0.771431
0.812915
0.802533
0.810445
0.75203
0.794217
0.764411
0.809961
0.803148
0.631334
0.77907
0.799249
0.849106
0.814437
0.828696
0.526851
0.825357
0.785186
0.858763
0.800952
0.818017
0.800354
0.785845
0.798813
0.825755
0.835794
0.821805
0.817177
0.706834
0.773906
0.815415
0.805392
0.810057
0.803918
0.706555
0.792883
0.803509
0.810725
0.827245
0.851235
0.831893
0.813539
0.799497
0.804285
0.802074
0.779677
0.611789
0.800391
0.731434
0.662051
0.822853
0.798907
0.777271
0.800039
0.754231
0.785324
0.811539
0.822252
0.803396
0.816069
0.817399
0.820696
0.813464
0.808522
0.71224
0.6995
0.641036
0.829322
0.869589
0.815401
0.841395
0.847868
0.863758
0.735858
0.816636
0.863035
0.810247
0.812954
0.816238
0.732898
0.812487
0.806728
0.806264
0.517627
0.813044
0.761243
0.813232
0.813802
0.803551
0.70539
0.813272
0.610785
0.825067
0.80233
0.822274
0.855192
0.80344
0.79539
0.820985
0.811648
0.805737
0.762314
0.51029
0.820947
0.803098
0.829
0.825807
0.802166
0.807037
0.834499
0.720944
0.500884
0.886276
0.800642
0.815751
0.804333
0.710354
0.798695
0.800066
0.815128
0.736238
0.646636
0.883263
0.714259
0.836586
0.812057
0.832929
0.842696
0.792244
0.804755
0.813664
0.852803
0.738391
0.870721
0.814084
0.563014
0.802525
0.748889
0.852941
0.760379
0.804227
0.803963
0.799686
0.801615
0.808948
0.812987
0.855658
0.806051
0.802872
0.801318
0.800061
0.812321
0.816931
0.802624
0.812565
0.849237
0.803102
0.783508
0.802247
0.839679
0.725229
0.813699
0.813893
0.639562
0.713208
0.805561
0.823068
0.803623
0.512125
0.856429
0.813279
0.833078
0.805317
0.80332
0.801362
0.786304
0.587337
0.804309
0.816161
0.836013
0.820616
0.813028
0.798226
0.74707
0.801583
0.765875
0.787563
0.799392
0.790985
0.751117
0.80089
0.811528
0.810439
0.832231
0.849169
0.553537
0.841937
0.812924
0.820863
0.802048
0.822679
0.811157
0.894626
0.800278
0.867216
0.805701
0.759852
0.862142
0.80229
0.800253
0.824203
0.660529
0.645418
0.803403
0.803866
0.704435
0.65443
0.79991
0.823897
0.813106
0.822636
0.733087
0.817226
0.812915
0.826176
0.816996
0.811955
0.812945
0.754649
0.803956
0.815737
0.811411
0.676332
0.566652
0.812982
0.650125
0.722007
0.555345
0.841429
0.800176
0.527397
0.600938
0.827546
0.908074
0.8182
0.652446
0.814223
0.786489
0.801766
0.786442
0.820721
0.810155
0.78831
0.821101
0.801068
0.587884
0.817879
0.766741
0.815986
0.700703
0.822268
0.789696
0.814016
0.800109
0.662997
0.843538
0.806593
0.806679
0.494044
0.816889
0.800432
0.852259
0.711249
0.817142
0.584497
0.719134
0.801449
0.796714
0.732908
0.715675
0.715815
0.507436
0.590525
0.80005
0.517968
0.822647
0.520886
0.757255
0.671493
0.600043
0.541004
0.745502
0.803087
0.714974
0.821345
0.800971
0.802978
0.761255
0.889692
0.799106
0.824526
0.803441
0.812868
0.706054
0.807626
0.736772
0.821958
0.886053
0.833605
0.747794
0.822836
0.770555
0.879916
0.804206
0.758726
0.850713
0.776921
0.799937
0.805357
0.758295
0.744749
0.665972
0.804995
0.803028
0.81796
0.833527
0.611622
0.807979
0.53843
0.668704
0.616728
0.818585
0.821091
0.809064
0.803985
0.61582
0.872475
0.802683
0.80295
0.86354
0.812505
0.772077
0.812241
0.802375
0.817957
0.803149
0.717127
0.803408
0.655684
0.799061
0.804146
0.801565
0.639286
0.811571
0.810344
0.72567
0.817865
0.549403
0.576903
0.804156
0.69658
0.726021
0.572293
0.72374
0.81369
0.7072
0.773019
0.716599
0.812838
0.670319
0.762168
0.80648
0.810669
0.654696
0.801961
0.895167
0.79672
0.816853
0.585519
0.693917
0.800996
0.813021
0.814074
0.851681
0.812717
0.804267
0.803739
0.803346
0.713903
0.7175
0.61579
0.771543
0.533249
0.723806
0.809985
0.814471
0.806189
0.799326
0.537699
0.809129
0.803766
0.554256
0.543673
0.746662
0.803581
0.806228
0.549566
0.798253
0.569806
0.720704
0.607951
0.813575
0.802299
0.597228
0.60845
0.867915
0.810073
0.765469
0.717983
0.62201
0.655448
0.709483
0.816067
0.759836
0.765494
0.624167
0.753945
0.809372
0.815425
0.812532
0.815532
0.865725
0.754772
0.818982
0.803348
0.851305
0.812937
0.802781
0.81315
0.722409
0.813003
0.812047
0.815239
0.81121
0.815946
0.803278
0.817977
0.810445
0.809799
0.817318
0.800124
0.816647
0.819003
0.66759
0.818659
0.868435
0.818219
0.792948
0.646034
0.858604
0.818839
0.82493
0.7996
0.811289
0.757498
0.852571
0.560088
0.726832
0.809873
0.815724
0.803883
0.803369
0.832085
0.805085
0.805239
0.815322
0.780764
0.838585
0.841975
0.81525
0.664434
0.612941
0.815823
0.816673
0.788371
0.849655
0.847283
0.810913
0.813683
0.777816
0.814148
0.817883
0.814173
0.818826
0.813157
0.81588
0.851069
0.816025
0.814557
0.817606
0.817818
0.784923
0.814173
0.804108
0.804192
0.804665
0.818619
0.811558
0.7884
0.753936
0.812737
0.806287
0.808842
0.806387
0.857789
0.80339
0.814054
0.812766
0.80523
0.575618
0.803897
0.81281
0.815079
0.810326
0.812854
0.813364
0.813092
0.810187
0.864408
0.501967
0.812885
0.841688
0.812718
0.802978
0.808436
0.815056
0.839709
0.800501
0.801276
0.812642
0.705374
0.812903
0.808261
0.807413
0.812618
0.812951
0.813093
0.813423
0.512219
0.811885
0.716012
0.885854
0.821097
0.733331
0.672041
0.815417
0.803563
0.818769
0.646616
0.801686
0.813394
0.648099
0.799908
0.804111
0.815498
0.806308
0.856761
0.809859
0.607082
0.800871
0.775165
0.811228
0.889084
0.803326
0.815526
0.819352
0.832228
0.81346
0.822441
0.83637
0.635098
0.802674
0.655898
0.813805
0.813706
0.712398
0.813592
0.804867
0.713033
0.814964
0.701526
0.861093
0.784137
0.814353
0.812959
0.813487
0.668049
0.813713
0.633409
0.800239
0.792389
0.822334
0.815233
0.716162
0.766699
0.830083
0.812814
0.821325
0.821944
0.813497
0.825369
0.79955
0.552296
0.75488
0.759286
0.731312
0.837635
0.822418
0.834362
0.776106
0.802768
0.813091
0.813015
0.813018
0.774682
0.564006
0.803209
0.528933
0.808238
0.824339
0.799756
0.803766
0.813019
0.806026
0.782675
0.732247
0.813446
0.85916
0.813733
0.799341
0.736869
0.80967
0.788744
0.833739
0.504383
0.795993
0.805955
0.798929
0.689536
0.812902
0.810796
0.857168
0.569257
0.807346
0.803275
0.81288
0.612856
0.813148
0.803339
0.803409
0.803033
0.813258
0.813356
0.816151
0.813101
0.717666
0.804512
0.803206
0.81305
0.89617
0.813204
0.774041
0.841196
0.79919
0.803138
0.601498
0.812945
0.803363
0.82572
0.801981
0.866239
0.814858
0.853499
0.800394
0.82067
0.777915
0.558516
0.752788
0.794292
0.803985
0.813945
0.813855
0.555726
0.861796
0.858015
0.768543
0.757685
0.738537
0.812124
0.848478
0.812983
0.813734
0.813017
0.804281
0.726751
0.803507
0.799159
0.764188
0.824291
0.823028
0.861853
0.815692
0.813029
0.525644
0.808896
0.812989
0.800751
0.774019
0.818079
0.803114
0.812933
0.826912
0.798464
0.803621
0.801251
0.815205
0.839136
0.802424
0.799212
0.801551
0.766079
0.819898
0.567278
0.868387
0.803697
0.545967
0.803205
0.803164
0.819622
0.59284
0.60632
0.801597
0.803691
0.800897
0.860741
0.779977
0.814662
0.802943
0.865838
0.804721
0.804458
0.826333
0.815978
0.820159
0.821302
0.820352
0.867487
0.729337
0.852159
0.817231
0.653794
0.802579
0.803191
0.803644
0.821147
0.823528
0.804
0.801132
0.800101
0.8227
0.803229
0.803614
0.799715
0.824405
0.803979
0.802014
0.806084
0.827882
0.8006
0.801566
0.824323
0.799631
0.815416
0.651394
0.826406
0.849852
0.804895
0.819598
0.803239
0.828764
0.837507
0.803402
0.821498
0.800569
0.807031
0.789566
0.802175
0.803191
0.806363
0.805925
0.804561
0.818569
0.814781
0.811247
0.831422
0.802234
0.802231
0.799953
0.789005
0.833798
0.803155
0.819326
0.81524
0.807126
0.805076
0.802952
0.838915
0.864846
0.799624
0.679044
0.801211
0.842159
0.816619
0.805184
0.804469
0.81971
0.844601
0.60242
0.828821
0.794537
0.850458
0.818753
0.812008
0.813291
0.808281
0.803961
0.812784
0.808765
0.591983
0.84799
0.79463
0.814214
0.854593
0.8193
0.763234
0.808654
0.814484
0.815485
0.802973
0.661811
0.809261
0.863157
0.80261
0.800739
0.775477
0.87122
0.800462
0.877071
0.806712
0.817188
0.820632
0.802282
0.803853
0.812644
0.815908
0.803525
0.813359
0.816767
0.881352
0.820703
0.809301
0.800192
0.828421
0.810486
0.838925
0.808835
0.806947
0.812178
0.816571
0.829918
0.81369
0.822547
0.832529
0.814221
0.699912
0.691203
0.813081
0.817766
0.803867
0.813156
0.514534
0.854876
0.799805
0.80623
0.81396
0.813514
0.803966
0.812513
0.80052
0.80124
0.808068
0.814748
0.75697
0.78468
0.822956
0.842764
0.834819
0.800306
0.805109
0.803359
0.812917
0.805729
0.799574
0.799837
0.801038
0.810921
0.79782
0.802802
0.835502
0.831388
0.729985
0.673346
0.807587
0.698867
0.79955
0.572893
0.804416
0.806952
0.803152
0.818183
0.833839
0.813953
0.812895
0.810271
0.803853
0.881522
0.816289
0.804857
0.77229
0.586474
0.810242
0.806676
0.769401
0.814441
0.813903
0.791483
0.800713
0.804037
0.625638
0.83045
0.803506
0.781552
0.779334
0.852714
0.809991
0.802935
0.80266
0.810252
0.811068
0.519111
0.801811
0.839499
0.813953
0.798583
0.588992
0.814559
0.814096
0.812986
0.833739
0.813944
0.803942
0.821906
0.805647
0.575966
0.808642
0.736642
0.79851
0.813663
0.722274
0.814949
0.84607
0.831614
0.664604
0.890902
0.785606
0.777473
0.796881
0.779529
0.808643
0.850048
0.808027
0.80288
0.813576
0.808889
0.782636
0.785945
0.813906
0.808371
0.834844
0.821281
0.83568
0.801321
0.7997
0.813079
0.856617
0.816471
0.818389
0.813375
0.607485
0.795535
0.823898
0.829347
0.865901
0.812639
0.818948
0.509147
0.809771
0.800635
0.812636
0.814783
0.847588
0.813082
0.81109
0.881499
0.764597
0.812559
0.813264
0.809049
0.805216
0.81425
0.656023
0.800507
0.849534
0.83351
0.810635
0.813575
0.813394
0.809567
0.699237
0.812512
0.800223
0.838574
0.818488
0.81165
0.831326
0.792756
0.811568
0.817828
0.808853
0.819302
0.744367
0.854821
0.818978
0.813824
0.813086
0.812734
0.815731
0.817169
0.812781
0.810805
0.841078
0.818608
0.800207
0.825281
0.826952
0.816082
0.814468
0.800412
0.801538
0.813076
0.819038
0.829405
0.812828
0.81647
0.799885
0.809981
0.812866
0.812828
0.802501
0.814684
0.813353
0.803251
0.81289
0.83566
0.800029
0.809454
0.821575
0.560231
0.814233
0.818178
0.815524
0.815022
0.821975
0.828827
0.815637
0.818849
0.701526
0.813088
0.801366
0.815633
0.819037
0.835062
0.821574
0.815546
0.829377
0.824948
0.810703
0.819183
0.819575
0.804244
0.813183
0.815621
0.819454
0.832118
0.812655
0.815714
0.80272
0.812963
0.813077
0.523108
0.627913
0.814347
0.821449
0.801773
0.822474
0.815922
0.841869
0.708202
0.813767
0.730585
0.817403
0.810336
0.813187
0.82935
0.813678
0.804926
0.812948
0.83008
0.839378
0.812821
0.719271
0.819252
0.816045
0.799966
0.80303
0.815327
0.855925
0.812675
0.813396
0.849697
0.828998
0.843265
0.573875
0.829113
0.813964
0.810915
0.817413
0.850598
0.817776
0.71847
0.799594
0.831746
0.799832
0.799779
0.805416
0.747892
0.81342
0.814363
0.725552
0.814373
0.827326
0.813339
0.814049
0.799278
0.818386
0.813013
0.823591
0.808701
0.808215
0.814983
0.705517
0.819085
0.814098
0.812999
0.640093
0.718565
0.59952
0.823262
0.530258
0.853905
0.727394
0.842802
0.812551
0.722944
0.821412
0.815894
0.742614
0.807676
0.818364
0.794409
0.816534
0.815877
0.815807
0.813014
0.80791
0.803666
0.737359
0.836197
0.820174
0.81662
0.799276
0.815419
0.802063
0.81602
0.81348
0.854693
0.817782
0.497584
0.813314
0.818798
0.818672
0.778077
0.815729
0.806725
0.81856
0.845427
0.596605
0.809158
0.799362
0.815335
0.81763
0.8177
0.812476
0.818609
0.813868
0.814594
0.803075
0.814289
0.846111
0.813949
0.792006
0.811511
0.622673
0.718677
0.813089
0.817005
0.802952
0.822307
0.735464
0.803152
0.803186
0.820213
0.636251
0.817605
0.799411
0.815429
0.864762
0.785509
0.821953
0.817986
0.822823
0.814037
0.769633
0.802433
0.813585
0.902296
0.827156
0.816439
0.832199
0.809631
0.868307
0.719278
0.69118
0.852396
0.802705
0.670156