# vtk DataFile Version 1.0
unstructured grid
ascii
DATASET UNSTRUCTURED_GRID
points 7812 float
-1 0 0
-1 1 0
2 0 0
2 1 0
0 0 0
1 0 0
-1 1 0.1
-1 0 0.1
0 0 0.1
1 0 0.1
2 0 0.1
2 1 0.1
-0.99 0 0
-0.98 0 0
-0.97 0 0
-0.96 0 0
-0.95 0 0
-0.94 0 0
-0.93 0 0
-0.92 0 0
-0.91 0 0
-0.9 0 0
-0.89 0 0
-0.88 0 0
-0.87 0 0
-0.86 0 0
-0.85 0 0
-0.84 0 0
-0.83 0 0
-0.82 0 0
-0.81 0 0
-0.8 0 0
-0.79 0 0
-0.78 0 0
-0.77 0 0
-0.76 0 0
-0.75 0 0
-0.74 0 0
-0.73 0 0
-0.72 0 0
-0.71 0 0
-0.7 0 0
-0.69 0 0
-0.68 0 0
-0.67 0 0
-0.66 0 0
-0.65 0 0
-0.64 0 0
-0.63 0 0
-0.62 0 0
-0.61 0 0
-0.6 0 0
-0.59 0 0
-0.58 0 0
-0.57 0 0
-0.56 0 0
-0.55 0 0
-0.54 0 0
-0.53 0 0
-0.52 0 0
-0.51 0 0
-0.5 0 0
-0.49 0 0
-0.48 0 0
-0.47 0 0
-0.46 0 0
-0.45 0 0
-0.44 0 0
-0.43 0 0
-0.42 0 0
-0.41 0 0
-0.4 0 0
-0.39 0 0
-0.38 0 0
-0.37 0 0
-0.36 0 0
-0.35 0 0
-0.34 0 0
-0.33 0 0
-0.32 0 0
-0.31 0 0
-0.3 0 0
-0.29 0 0
-0.28 0 0
-0.27 0 0
-0.26 0 0
-0.25 0 0
-0.24 0 0
-0.23 0 0
-0.22 0 0
-0.21 0 0
-0.2 0 0
-0.19 0 0
-0.18 0 0
-0.17 0 0
-0.16 0 0
-0.15 0 0
-0.14 0 0
-0.13 0 0
-0.12 0 0
-0.11 0 0
-0.1 0 0
-0.09 0 0
-0.08 0 0
-0.07 0 0
-0.06 0 0
-0.05 0 0
-0.04 0 0
-0.03 0 0
-0.02 0 0
-0.01 0 0
1.01 0 0
1.02 0 0
1.03 0 0
1.04 0 0
1.05 0 0
1.06 0 0
1.07 0 0
1.08 0 0
1.09 0 0
1.1 0 0
1.11 0 0
1.12 0 0
1.13 0 0
1.14 0 0
1.15 0 0
1.16 0 0
1.17 0 0
1.18 0 0
1.19 0 0
1.2 0 0
1.21 0 0
1.22 0 0
1.23 0 0
1.24 0 0
1.25 0 0
1.26 0 0
1.27 0 0
1.28 0 0
1.29 0 0
1.3 0 0
1.31 0 0
1.32 0 0
1.33 0 0
1.34 0 0
1.35 0 0
1.36 0 0
1.37 0 0
1.38 0 0
1.39 0 0
1.4 0 0
1.41 0 0
1.42 0 0
1.43 0 0
1.44 0 0
1.45 0 0
1.46 0 0
1.47 0 0
1.48 0 0
1.49 0 0
1.5 0 0
1.51 0 0
1.52 0 0
1.53 0 0
1.54 0 0
1.55 0 0
1.56 0 0
1.57 0 0
1.58 0 0
1.59 0 0
1.6 0 0
1.61 0 0
1.62 0 0
1.63 0 0
1.64 0 0
1.65 0 0
1.66 0 0
1.67 0 0
1.68 0 0
1.69 0 0
1.7 0 0
1.71 0 0
1.72 0 0
1.73 0 0
1.74 0 0
1.75 0 0
1.76 0 0
1.77 0 0
1.78 0 0
1.79 0 0
1.8 0 0
1.81 0 0
1.82 0 0
1.83 0 0
1.84 0 0
1.85 0 0
1.86 0 0
1.87 0 0
1.88 0 0
1.89 0 0
1.9 0 0
1.91 0 0
1.92 0 0
1.93 0 0
1.94 0 0
1.95 0 0
1.96 0 0
1.97 0 0
1.98 0 0
1.99 0 0
2 0.010289 0
2 0.0215307 0
2 0.0338135 0
2 0.0472336 0
2 0.0618965 0
2 0.0779171 0
2 0.0954213 0
2 0.114546 0
2 0.135442 0
2 0.158274 0
2 0.183219 0
2 0.210474 0
2 0.240253 0
2 0.27279 0
2 0.308339 0
2 0.347181 0
2 0.389619 0
2 0.435987 0
2 0.486649 0
2 0.542002 0
2 0.602481 0
2 0.66856 0
2 0.740758 0
2 0.819642 0
2 0.90583 0
1.9 1 0
1.8 1 0
1.7 1 0
1.6 1 0
1.5 1 0
1.4 1 0
1.3 1 0
1.2 1 0
1.1 1 0
1 1 0
0.9 1 0
0.8 1 0
0.7 1 0
0.6 1 0
0.5 1 0
0.4 1 0
0.3 1 0
0.2 1 0
0.1 1 0
3.69793e-12 1 0
-0.1 1 0
-0.2 1 0
-0.3 1 0
-0.4 1 0
-0.5 1 0
-0.6 1 0
-0.7 1 0
-0.8 1 0
-0.9 1 0
-1 0.90583 0
-1 0.819642 0
-1 0.740758 0
-1 0.66856 0
-1 0.602481 0
-1 0.542002 0
-1 0.486649 0
-1 0.435987 0
-1 0.389619 0
-1 0.347181 0
-1 0.308339 0
-1 0.27279 0
-1 0.240253 0
-1 0.210474 0
-1 0.183219 0
-1 0.158274 0
-1 0.135442 0
-1 0.114546 0
-1 0.0954213 0
-1 0.0779171 0
-1 0.0618965 0
-1 0.0472336 0
-1 0.0338135 0
-1 0.0215307 0
-1 0.010289 0
0.00921362 0.00379763 0
0.0184561 0.00752451 0
0.0277268 0.0111804 0
0.0370253 0.0147652 0
0.0463511 0.0182786 0
0.0557034 0.0217203 0
0.0650819 0.0250903 0
0.074486 0.0283883 0
0.083915 0.0316141 0
0.0933685 0.0347675 0
0.102846 0.0378484 0
0.112347 0.0408565 0
0.12187 0.0437917 0
0.131416 0.0466538 0
0.140983 0.0494427 0
0.150572 0.0521581 0
0.160181 0.0547999 0
0.16981 0.0573681 0
0.179458 0.0598623 0
0.189125 0.0622825 0
0.198811 0.0646285 0
0.208514 0.0669001 0
0.218234 0.0690974 0
0.227971 0.07122 0
0.237724 0.073268 0
0.247493 0.0752411 0
0.257276 0.0771393 0
0.267073 0.0789625 0
0.276884 0.0807105 0
0.286708 0.0823832 0
0.296545 0.0839806 0
0.306394 0.0855025 0
0.316254 0.0869488 0
0.326125 0.0883196 0
0.336006 0.0896146 0
0.345896 0.0908339 0
0.355796 0.0919773 0
0.365704 0.0930447 0
0.375621 0.0940362 0
0.385544 0.0949517 0
0.395474 0.095791 0
0.40541 0.0965542 0
0.415352 0.0972412 0
0.425299 0.097852 0
0.43525 0.0983865 0
0.445205 0.0988447 0
0.455164 0.0992266 0
0.465125 0.0995321 0
0.475088 0.0997613 0
0.485052 0.0999141 0
0.495017 0.0999904 0
0.504983 0.0999904 0
0.514948 0.0999141 0
0.524912 0.0997613 0
0.534875 0.0995321 0
0.544836 0.0992266 0
0.554795 0.0988447 0
0.56475 0.0983865 0
0.574701 0.097852 0
0.584648 0.0972412 0
0.59459 0.0965542 0
0.604526 0.095791 0
0.614456 0.0949517 0
0.624379 0.0940362 0
0.634296 0.0930447 0
0.644204 0.0919773 0
0.654104 0.0908339 0
0.663994 0.0896146 0
0.673875 0.0883196 0
0.683746 0.0869488 0
0.693606 0.0855025 0
0.703455 0.0839806 0
0.713292 0.0823832 0
0.723116 0.0807105 0
0.732927 0.0789625 0
0.742724 0.0771393 0
0.752508 0.0752411 0
0.762276 0.073268 0
0.772029 0.07122 0
0.781766 0.0690974 0
0.791486 0.0669001 0
0.801189 0.0646285 0
0.810875 0.0622825 0
0.820542 0.0598623 0
0.83019 0.0573681 0
0.839819 0.0547999 0
0.849428 0.0521581 0
0.859017 0.0494427 0
0.868584 0.0466538 0
0.87813 0.0437917 0
0.887653 0.0408565 0
0.897154 0.0378484 0
0.906631 0.0347675 0
0.916085 0.0316141 0
0.925514 0.0283883 0
0.934918 0.0250903 0
0.944297 0.0217203 0
0.953649 0.0182786 0
0.962975 0.0147652 0
0.972273 0.0111804 0
0.981544 0.00752451 0
0.990786 0.00379763 0
-1 0.90583 0.1
-1 0.819642 0.1
-1 0.740758 0.1
-1 0.66856 0.1
-1 0.602481 0.1
-1 0.542002 0.1
-1 0.486649 0.1
-1 0.435987 0.1
-1 0.389619 0.1
-1 0.347181 0.1
-1 0.308339 0.1
-1 0.27279 0.1
-1 0.240253 0.1
-1 0.210474 0.1
-1 0.183219 0.1
-1 0.158274 0.1
-1 0.135442 0.1
-1 0.114546 0.1
-1 0.0954213 0.1
-1 0.0779171 0.1
-1 0.0618965 0.1
-1 0.0472336 0.1
-1 0.0338135 0.1
-1 0.0215307 0.1
-1 0.010289 0.1
-0.99 0 0.1
-0.98 0 0.1
-0.97 0 0.1
-0.96 0 0.1
-0.95 0 0.1
-0.94 0 0.1
-0.93 0 0.1
-0.92 0 0.1
-0.91 0 0.1
-0.9 0 0.1
-0.89 0 0.1
-0.88 0 0.1
-0.87 0 0.1
-0.86 0 0.1
-0.85 0 0.1
-0.84 0 0.1
-0.83 0 0.1
-0.82 0 0.1
-0.81 0 0.1
-0.8 0 0.1
-0.79 0 0.1
-0.78 0 0.1
-0.77 0 0.1
-0.76 0 0.1
-0.75 0 0.1
-0.74 0 0.1
-0.73 0 0.1
-0.72 0 0.1
-0.71 0 0.1
-0.7 0 0.1
-0.69 0 0.1
-0.68 0 0.1
-0.67 0 0.1
-0.66 0 0.1
-0.65 0 0.1
-0.64 0 0.1
-0.63 0 0.1
-0.62 0 0.1
-0.61 0 0.1
-0.6 0 0.1
-0.59 0 0.1
-0.58 0 0.1
-0.57 0 0.1
-0.56 0 0.1
-0.55 0 0.1
-0.54 0 0.1
-0.53 0 0.1
-0.52 0 0.1
-0.51 0 0.1
-0.5 0 0.1
-0.49 0 0.1
-0.48 0 0.1
-0.47 0 0.1
-0.46 0 0.1
-0.45 0 0.1
-0.44 0 0.1
-0.43 0 0.1
-0.42 0 0.1
-0.41 0 0.1
-0.4 0 0.1
-0.39 0 0.1
-0.38 0 0.1
-0.37 0 0.1
-0.36 0 0.1
-0.35 0 0.1
-0.34 0 0.1
-0.33 0 0.1
-0.32 0 0.1
-0.31 0 0.1
-0.3 0 0.1
-0.29 0 0.1
-0.28 0 0.1
-0.27 0 0.1
-0.26 0 0.1
-0.25 0 0.1
-0.24 0 0.1
-0.23 0 0.1
-0.22 0 0.1
-0.21 0 0.1
-0.2 0 0.1
-0.19 0 0.1
-0.18 0 0.1
-0.17 0 0.1
-0.16 0 0.1
-0.15 0 0.1
-0.14 0 0.1
-0.13 0 0.1
-0.12 0 0.1
-0.11 0 0.1
-0.1 0 0.1
-0.09 0 0.1
-0.08 0 0.1
-0.07 0 0.1
-0.06 0 0.1
-0.05 0 0.1
-0.04 0 0.1
-0.03 0 0.1
-0.02 0 0.1
-0.01 0 0.1
0.00921362 0.00379763 0.1
0.0184561 0.00752451 0.1
0.0277268 0.0111804 0.1
0.0370253 0.0147652 0.1
0.0463511 0.0182786 0.1
0.0557034 0.0217203 0.1
0.0650819 0.0250903 0.1
0.074486 0.0283883 0.1
0.083915 0.0316141 0.1
0.0933685 0.0347675 0.1
0.102846 0.0378484 0.1
0.112347 0.0408565 0.1
0.12187 0.0437917 0.1
0.131416 0.0466538 0.1
0.140983 0.0494427 0.1
0.150572 0.0521581 0.1
0.160181 0.0547999 0.1
0.16981 0.0573681 0.1
0.179458 0.0598623 0.1
0.189125 0.0622825 0.1
0.198811 0.0646285 0.1
0.208514 0.0669001 0.1
0.218234 0.0690974 0.1
0.227971 0.07122 0.1
0.237724 0.073268 0.1
0.247493 0.0752411 0.1
0.257276 0.0771393 0.1
0.267073 0.0789625 0.1
0.276884 0.0807105 0.1
0.286708 0.0823832 0.1
0.296545 0.0839806 0.1
0.306394 0.0855025 0.1
0.316254 0.0869488 0.1
0.326125 0.0883196 0.1
0.336006 0.0896146 0.1
0.345896 0.0908339 0.1
0.355796 0.0919773 0.1
0.365704 0.0930447 0.1
0.375621 0.0940362 0.1
0.385544 0.0949517 0.1
0.395474 0.095791 0.1
0.40541 0.0965542 0.1
0.415352 0.0972412 0.1
0.425299 0.097852 0.1
0.43525 0.0983865 0.1
0.445205 0.0988447 0.1
0.455164 0.0992266 0.1
0.465125 0.0995321 0.1
0.475088 0.0997613 0.1
0.485052 0.0999141 0.1
0.495017 0.0999904 0.1
0.504983 0.0999904 0.1
0.514948 0.0999141 0.1
0.524912 0.0997613 0.1
0.534875 0.0995321 0.1
0.544836 0.0992266 0.1
0.554795 0.0988447 0.1
0.56475 0.0983865 0.1
0.574701 0.097852 0.1
0.584648 0.0972412 0.1
0.59459 0.0965542 0.1
0.604526 0.095791 0.1
0.614456 0.0949517 0.1
0.624379 0.0940362 0.1
0.634296 0.0930447 0.1
0.644204 0.0919773 0.1
0.654104 0.0908339 0.1
0.663994 0.0896146 0.1
0.673875 0.0883196 0.1
0.683746 0.0869488 0.1
0.693606 0.0855025 0.1
0.703455 0.0839806 0.1
0.713292 0.0823832 0.1
0.723116 0.0807105 0.1
0.732927 0.0789625 0.1
0.742724 0.0771393 0.1
0.752508 0.0752411 0.1
0.762276 0.073268 0.1
0.772029 0.07122 0.1
0.781766 0.0690974 0.1
0.791486 0.0669001 0.1
0.801189 0.0646285 0.1
0.810875 0.0622825 0.1
0.820542 0.0598623 0.1
0.83019 0.0573681 0.1
0.839819 0.0547999 0.1
0.849428 0.0521581 0.1
0.859017 0.0494427 0.1
0.868584 0.0466538 0.1
0.87813 0.0437917 0.1
0.887653 0.0408565 0.1
0.897154 0.0378484 0.1
0.906631 0.0347675 0.1
0.916085 0.0316141 0.1
0.925514 0.0283883 0.1
0.934918 0.0250903 0.1
0.944297 0.0217203 0.1
0.953649 0.0182786 0.1
0.962975 0.0147652 0.1
0.972273 0.0111804 0.1
0.981544 0.00752451 0.1
0.990786 0.00379763 0.1
1.01 0 0.1
1.02 0 0.1
1.03 0 0.1
1.04 0 0.1
1.05 0 0.1
1.06 0 0.1
1.07 0 0.1
1.08 0 0.1
1.09 0 0.1
1.1 0 0.1
1.11 0 0.1
1.12 0 0.1
1.13 0 0.1
1.14 0 0.1
1.15 0 0.1
1.16 0 0.1
1.17 0 0.1
1.18 0 0.1
1.19 0 0.1
1.2 0 0.1
1.21 0 0.1
1.22 0 0.1
1.23 0 0.1
1.24 0 0.1
1.25 0 0.1
1.26 0 0.1
1.27 0 0.1
1.28 0 0.1
1.29 0 0.1
1.3 0 0.1
1.31 0 0.1
1.32 0 0.1
1.33 0 0.1
1.34 0 0.1
1.35 0 0.1
1.36 0 0.1
1.37 0 0.1
1.38 0 0.1
1.39 0 0.1
1.4 0 0.1
1.41 0 0.1
1.42 0 0.1
1.43 0 0.1
1.44 0 0.1
1.45 0 0.1
1.46 0 0.1
1.47 0 0.1
1.48 0 0.1
1.49 0 0.1
1.5 0 0.1
1.51 0 0.1
1.52 0 0.1
1.53 0 0.1
1.54 0 0.1
1.55 0 0.1
1.56 0 0.1
1.57 0 0.1
1.58 0 0.1
1.59 0 0.1
1.6 0 0.1
1.61 0 0.1
1.62 0 0.1
1.63 0 0.1
1.64 0 0.1
1.65 0 0.1
1.66 0 0.1
1.67 0 0.1
1.68 0 0.1
1.69 0 0.1
1.7 0 0.1
1.71 0 0.1
1.72 0 0.1
1.73 0 0.1
1.74 0 0.1
1.75 0 0.1
1.76 0 0.1
1.77 0 0.1
1.78 0 0.1
1.79 0 0.1
1.8 0 0.1
1.81 0 0.1
1.82 0 0.1
1.83 0 0.1
1.84 0 0.1
1.85 0 0.1
1.86 0 0.1
1.87 0 0.1
1.88 0 0.1
[...]
CELL_DATA 7425
SCALARS rho float
LOOKUP_TABLE default
0.749454
0.822411
0.858266
0.859751
0.812634
0.856411
0.852016
0.863793
0.872068
0.800224
0.880505
0.831714
0.864912
0.859615
0.824616
0.859004
0.80432
0.869153
0.815417
0.815501
0.862072
0.842027
0.792149
0.860522
0.818351
0.806028
0.861482
0.862729
0.818779
0.82976
0.851163
0.789272
0.816114
0.778815
0.747245
0.860508
0.817277
0.864003
0.83281
0.858559
0.80874
0.801163
0.831886
0.764159
0.760951
0.808235
0.839096
0.865157
0.786346
0.780439
0.796946
0.823091
0.835813
0.807592
0.774286
0.753405
0.858673
0.805157
0.800235
0.78733
0.810931
0.828631
0.869402
0.80766
0.817209
0.858541
0.747988
0.822219
0.754223
0.829657
0.824285
0.808834
0.893996
0.841331
0.835961
0.871901
0.822713
0.817998
0.869124
0.803889
0.860079
0.828084
0.863289
0.822965
0.861259
0.816947
0.738647
0.859389
0.749282
0.871488
0.767346
0.794977
0.86053
0.81282
0.858599
0.822625
0.852579
0.820098
0.859552
0.822846
0.849814
0.792307
0.816574
0.858869
0.748003
0.832815
0.857264
0.800482
0.861642
0.810134
0.858342
0.82017
0.823554
0.834223
0.831809
0.819594
0.861436
0.807738
0.766166
0.776094
0.823127
0.824313
0.872521
0.823146
0.878725
0.855519
0.828154
0.841089
0.773593
0.740677
0.861547
0.780124
0.745122
0.87643
0.785248
0.813186
0.834978
0.801282
0.74074
0.806273
0.811236
0.832264
0.865026
0.772057
0.821738
0.817058
0.734963
0.833748
0.819148
0.860438
0.849232
0.768214
0.822933
0.795465
0.771051
0.8183
0.832128
0.861655
0.837454
0.791306
0.81433
0.7647
0.81726
0.861338
0.858058
0.806328
0.871173
0.828935
0.828946
0.816612
0.858258
0.826751
0.835304
0.809767
0.80497
0.813108
0.824779
0.822758
0.767556
0.762861
0.811601
0.835217
0.891507
0.860524
0.765845
0.858679
0.806106
0.847111
0.811815
0.867042
0.875146
0.813389
0.829649
0.770819
0.861446
0.85669
0.816606
0.837596
0.870709
0.828339
0.834088
0.870138
0.752551
0.855561
0.736749
0.749896
0.746455
0.776188
0.847284
0.891292
0.827979
0.816933
0.865189
0.873346
0.858116
0.858113
0.861011
0.751575
0.7677
0.865789
0.75088
0.765599
0.769093
0.855405
0.862582
0.871919
0.862471
0.876053
0.873667
0.774653
0.85177
0.812076
0.82851
0.818146
0.808338
0.797798
0.803998
0.746403
0.770146
0.881777
0.88173
0.851059
0.828304
0.839148
0.834073
0.805582
0.858416
0.816683
0.858955
0.822154
0.866757
0.781919
0.875371
0.858882
0.814965
0.737555
0.80677
0.790571
0.857089
0.861744
0.790332
0.860085
0.861977
0.870622
0.860719
0.826945
0.812782
0.859559
0.879956
0.828189
0.745344
0.871656
0.835812
0.824126
0.859912
0.862443
0.868209
0.856611
0.824411
0.861485
0.875328
0.871173
0.84668
0.865025
0.8146
0.859015
0.809555
0.805216
0.805131
0.739835
0.765832
0.841651
0.872299
0.860064
0.866844
0.819805
0.760682
0.860143
0.74881
0.821792
0.816649
0.761702
0.753092
0.753282
0.861275
0.869303
0.873319
0.863801
0.859969
0.813818
0.833398
0.81947
0.876193
0.867247
0.876033
0.862616
0.81683
0.765573
0.836583
0.860063
0.783909
0.806244
0.807066
0.881611
0.859103
0.739062
0.866997
0.815295
0.865115
0.810359
0.863014
0.911645
0.814892
0.827271
0.772331
0.758135
0.775808
0.829968
0.859493
0.861591
0.86597
0.886811
0.868259
0.812979
0.837396
0.844806
0.813907
0.829404
0.892257
0.813624
0.827867
0.816824
0.807366
0.867806
0.860371
0.859372
0.776326
0.8485
0.789229
0.835226
0.777652
0.841426
0.807027
0.855033
0.815319
0.838608
0.850323
0.858855
0.806717
0.806481
0.836197
0.805807
0.843763
0.871137
0.867814
0.814561
0.799803
0.734365
0.826911
0.868752
0.812089
0.875313
0.826801
0.7536
0.859318
0.867412
0.818047
0.829727
0.869077
0.825064
0.821602
0.859766
0.828167
0.858314
0.816768
0.846164
0.828435
0.738928
0.824396
0.754217
0.863044
0.759009
0.860141
0.891288
0.773286
0.839524
0.812295
0.823803
0.8872
0.751825
0.858186
0.858496
0.818151
0.859561
0.833424
0.858773
0.861731
0.858554
0.813546
0.860275
0.80639
0.832773
0.820938
0.83511
0.8165
0.82434
0.811512
0.854287
0.821278
0.824413
0.750911
0.754333
0.802495
0.868427
0.868712
0.882653
0.859568
0.806688
0.874919
0.825252
0.853132
0.776274
0.814916
0.807214
0.853797
0.858386
0.829091
0.776228
0.803655
0.742854
0.741898
0.817439
0.744255
0.835363
0.808372
0.816772
0.789637
0.818826
0.823119
0.862488
0.861799
0.858226
0.870091
0.808308
0.777787
0.86562
0.848136
0.820775
0.833617
0.81662
0.864921
0.812383
0.876356
0.807256
0.815137
0.82266
0.856214
0.74766
0.80676
0.867836
0.835779
0.86551
0.860883
0.811971
0.829884
0.861257
0.811519
0.868668
0.794413
0.772534
0.805072
0.836067
0.858079
0.801515
0.871685
0.818386
0.85906
0.804569
0.819518
0.831867
0.740106
0.774143
0.753998
0.863179
0.840261
0.859113
0.806734
0.832396
0.862113
0.857973
0.809072
0.815813
0.839184
0.837528
0.811439
0.806959
0.866348
0.856212
0.85495
0.86898
0.85943
0.879499
0.876019
0.815992
0.743747
0.862692
0.827183
0.866746
0.863522
0.843323
0.866946
0.865392
0.777727
0.828944
0.846937
0.875728
0.833335
0.84506
0.826797
0.870842
0.806957
0.87578
0.862072
0.887207
0.742471
0.86675
0.857975
0.893947
0.73872
0.859376
0.848498
0.821073
0.837658
0.836018
0.884149
0.846381
0.862116
0.836229
0.752885
0.810212
0.819457
0.803651
0.873324
0.807036
0.828806
0.863633
0.86985
0.870219
0.819884
0.860434
0.863833
0.83165
0.844942
0.857677
0.813358
0.833896
0.830186
0.82352
0.853932
0.807598
0.869142
0.810915
0.835078
0.815848
0.8481
0.805616
0.874604
0.858476
0.809099
0.866329
0.850406
0.847347
0.85891
0.815961
0.80961
0.87153
0.810541
0.84586
0.868672
0.823466
0.742493
0.871754
0.860654
0.872687
0.856726
0.808995
0.835043
0.874337
0.817466
0.819112
0.816086
0.874339
0.814776
0.820208
0.848294
0.832152
0.82172
0.836993
0.868746
0.826807
0.867632
0.811821
0.85906
0.864744
0.819333
0.865693
0.871637
0.795229
0.858383
0.827808
0.864791
0.910441
0.808549
0.8517
0.804455
0.808507
0.859665
0.809268
0.815787
0.820105
0.797512
0.851229
0.874841
0.815597
0.835161
0.858089
0.834718
0.858485
0.827291
0.859577
0.888746
0.86173
0.769399
0.784115
0.867272
0.858876
0.868322
0.860253
0.871639
0.830619
0.84623
0.808398
0.86511
0.879923
0.87465
0.809932
0.864158
0.856969
0.79668
0.839688
0.814746
0.804476
0.808751
0.859783
0.861884
0.843078
0.871865
0.86226
0.868641
0.857883
0.860755
0.862182
0.833792
0.804023
0.831999
0.812903
0.87066
0.814074
0.860933
0.83601
0.752581
0.81893
0.834235
0.806856
0.858329
0.822779
0.8608
0.858882
0.824654
0.857508
0.821182
0.829223
0.770073
0.871143
0.85896
0.859971
0.837775
0.817883
0.783528
0.830833
0.911782
0.861882
0.82038
0.865283
0.820259
0.830958
0.86209
0.858353
0.836111
0.869164
0.859777
0.757468
0.827842
0.822771
0.869811
0.82596
0.82019
0.754426
0.828983
0.822495
0.800053
0.853481
0.858762
0.818281
0.830342
0.803454
0.857741
0.847572
0.868797
0.875496
0.784563
0.860046
0.825305
0.831102
0.857241
0.839849
0.85892
0.811824
0.801304
0.856818
0.832964
0.85796
0.822456
0.829381
0.858362
0.80055
0.853391
0.791633
0.887294
0.789697
0.869799
0.842857
0.888201
0.826136
0.811159
0.858339
0.852839
0.853551
0.857315
0.858296
0.857943
0.840814
0.828243
0.829694
0.815364
0.846752
0.817172
0.780678
0.859154
0.760956
0.816378
0.870728
0.824151
0.801665
0.827404
0.864142
0.770093
0.821429
0.857687
0.85917
0.853092
0.770693
0.814438
0.835541
0.821444
0.874643
0.814926
0.802255
0.862507
0.860383
0.873831
0.822449
0.813171
0.82101
0.826599
0.735495
0.875284
0.850755
0.761746
0.861243
0.859916
0.862065
0.858485
0.862283
0.858851
0.811824
0.816805
0.813525
0.843065
0.847816
0.844631
0.853459
0.816453
0.860289
0.815808
0.812458
0.832065
0.858349
0.867813
0.816081
0.868877
0.874339
0.842019
0.862637
0.858687
0.861035
0.864905
0.862717
0.87219
0.83351
0.865028
0.818185
0.857807
0.81809
0.858688
0.867264
0.760033
0.866953
0.863734
0.868731
0.853675
0.745023
0.859035
0.841581
0.739584
0.792921
0.789986
0.861634
0.843514
0.833313
0.86917
0.807879
0.859209
0.833213
0.743865
0.801459
0.839386
0.826473
0.859844
0.81561
0.831661
0.868312
0.856438
0.803828
0.80483
0.867839
0.808147
0.836081
0.86441
0.811236
0.744069
0.862863
0.835781
0.795295
0.809275
0.830573
0.771004
0.847119
0.859702
0.860407
0.858391
0.846467
0.821727
0.812941
0.75931
0.737637
0.85943
0.83241
0.81927
0.872015
0.829063
0.858651
0.887192
0.813981
0.858415
0.861651
0.859115
0.89512
0.862036
0.865807
0.825536
0.835424
0.797852
0.860603
0.80697
0.834189
0.809952
0.821459
0.875649
0.857941
0.864454
0.858356
0.805464
0.811042
0.825384
0.856602
0.808562
0.824001
0.825983
0.827318
0.861088
0.816356
0.842709
0.763022
0.863106
0.825038
0.79207
0.853071
0.852715
0.801344
0.830045
0.815162
0.88538
0.814927
0.875869
0.819069
0.817281
0.863251
0.819782
0.743824
0.841889
0.837793
0.84335
0.862534
0.857921
0.815085
0.828368
0.857413
0.847031
0.83604
0.864488
0.755992
0.782473
0.874651
0.80421
0.858528
0.819781
0.875613
0.810042
0.845168
0.809616
0.817241
0.821285
0.85764
0.80715
0.752722
0.81689
0.816089
0.862733
0.863019
0.860821
0.746968
0.84427
0.820558
0.878552
0.81682
0.839445
0.817586
0.830842
0.80532
0.857547
0.861026
0.84249
0.857623
0.772356
0.825695
0.853463
0.823913
0.869239
0.82085
0.77112
0.834558
0.821696
0.834092
0.847351
0.87177
0.862378
0.867253
0.811637
0.824957
0.817802
0.818442
0.751027
0.84154
0.812603
0.774802
0.856833
0.80349
0.816791
0.812277
0.810044
0.822034
0.874573
0.84433
0.841271
0.858585
0.851162
0.851364
0.867844
0.843873
0.78539
0.783974
0.756687
0.861094
0.88536
0.84793
0.855869
0.870838
0.880637
0.815403
0.852245
0.880342
0.84725
0.876575
0.849695
0.808885
0.856617
0.830323
0.829455
0.740518
0.872972
0.814467
0.868554
0.836431
0.815409
0.771101
0.868191
0.749092
0.844813
0.820134
0.852369
0.876235
0.815224
0.820103
0.858292
0.861753
0.825972
0.814704
0.744958
0.857681
0.8236
0.848636
0.85928
0.8445
0.827108
0.861193
0.804067
0.747688
0.896485
0.84
0.860472
0.822462
0.77487
0.805029
0.813351
0.86147
0.817707
0.757405
0.894124
0.795984
0.864835
0.865053
0.86284
0.868165
0.835861
0.821537
0.864412
0.873151
0.800783
0.885131
0.864253
0.740884
0.823508
0.8018
0.874764
0.820619
0.821846
0.819581
0.808403
0.808206
0.860105
0.875641
0.86653
0.828861
0.805633
0.813085
0.811118
0.875494
0.859214
0.805336
0.875894
0.872502
0.806015
0.82945
0.805038
0.855816
0.816103
0.86612
0.863486
0.775108
0.795428
0.829563
0.857149
0.826836
0.743074
0.867904
0.861968
0.851282
0.823313
0.81291
0.804361
0.831897
0.738685
0.827637
0.859913
0.851912
0.858348
0.873847
0.84042
0.815139
0.830418
0.824618
0.822322
0.809207
0.81703
0.800289
0.814481
0.837559
0.862071
0.859041
0.862534
0.746947
0.868055
0.876691
0.841035
0.818851
0.842462
0.874793
0.902533
0.838295
0.875682
0.828301
0.820279
0.879454
0.820684
0.815833
0.8574
0.765162
0.755801
0.814511
0.817948
0.756486
0.761963
0.81487
0.858478
0.872049
0.858579
0.806065
0.849652
0.870045
0.859728
0.852988
0.833647
0.876736
0.811567
0.825583
0.859194
0.875057
0.768325
0.7449
0.876794
0.760559
0.790987
0.74101
0.867378
0.812511
0.752216
0.744463
0.855557
0.91197
0.858278
0.760195
0.862776
0.831365
0.818186
0.82133
0.84252
0.848391
0.822845
0.856726
0.84202
0.750958
0.858354
0.821376
0.858127
0.767461
0.858246
0.833495
0.863585
0.815108
0.766985
0.866318
0.842699
0.829886
0.741992
0.859057
0.812102
0.864914
0.775432
0.858964
0.773123
0.814198
0.816356
0.837137
0.817291
0.804602
0.779569
0.7479
0.775626
0.815966
0.749939
0.858596
0.758569
0.812276
0.794321
0.778449
0.754921
0.806216
0.810466
0.779525
0.858361
0.808844
0.820461
0.815018
0.899124
0.809262
0.858777
0.816123
0.875392
0.786296
0.830515
0.802023
0.858445
0.896729
0.861051
0.812046
0.858195
0.822652
0.891591
0.819624
0.812415
0.873422
0.826247
0.815009
0.828585
0.812863
0.819654
0.788161
0.822517
0.811692
0.856377
0.862775
0.743473
0.831565
0.749941
0.765886
0.779831
0.840764
0.858019
0.858608
0.820719
0.747598
0.886439
0.805093
0.805335
0.881693
0.87619
0.817048
0.875825
0.804897
0.858629
0.805665
0.7919
0.822221
0.792858
0.805295
0.842473
0.804242
0.754327
0.846261
0.84476
0.794983
0.840037
0.747492
0.740912
0.823617
0.781766
0.793851
0.741166
0.808547
0.86601
0.771723
0.81761
0.779623
0.846312
0.769601
0.815553
0.827503
0.856856
0.782747
0.805482
0.902968
0.826643
0.859283
0.768244
0.78524
0.842523
0.874064
0.863147
0.872227
0.869014
0.826889
0.823796
0.814093
0.798235
0.779863
0.755859
0.825218
0.757255
0.784743
0.859361
0.86107
0.829051
0.811186
0.762817
0.85708
0.819853
0.749484
0.753
0.805998
0.819783
0.844403
0.743097
0.828857
0.748986
0.81484
0.754537
0.838406
0.819201
0.75154
0.74769
0.884088
0.832326
0.817883
0.805859
0.779512
0.76373
0.774914
0.857735
0.813009
0.809986
0.757635
0.815258
0.855918
0.860314
0.874548
0.860756
0.873841
0.817829
0.857682
0.826822
0.872527
0.876526
0.808733
0.869467
0.784626
0.853951
0.853959
0.857133
0.854258
0.857153
0.813351
0.857471
0.854558
0.855094
0.857333
0.817067
0.857229
0.858191
0.767547
0.858158
0.884768
0.858112
0.819349
0.762697
0.878334
0.858388
0.859255
0.810976
0.874259
0.804214
0.874558
0.768279
0.815996
0.831924
0.860364
0.821058
0.814422
0.862453
0.833456
0.825769
0.861105
0.825477
0.865996
0.86726
0.850068
0.768845
0.781395
0.860151
0.857719
0.833728
0.872699
0.869884
0.834488
0.855208
0.826977
0.861356
0.857797
0.861953
0.858315
0.836293
0.860205
0.873511
0.86006
0.857179
0.858797
0.858107
0.817203
0.856269
0.82579
0.827209
0.826098
0.858412
0.872963
0.832544
0.802501
0.866555
0.826126
0.85834
0.826043
0.876136
0.822856
0.860692
0.872013
0.826394
0.750914
0.818276
0.872722
0.837909
0.83181
0.873331
0.866991
0.870884
0.831693
0.880719
0.744596
0.873851
0.866784
0.871301
0.814783
0.829919
0.861644
0.866599
0.815326
0.821194
0.846396
0.758255
0.874348
0.83082
0.830737
0.868156
0.871575
0.870465
0.868137
0.746742
0.83721
0.808012
0.896118
0.856256
0.790356
0.781564
0.860942
0.832297
0.840462
0.75708
0.811436
0.868403
0.758757
0.812903
0.820284
0.838437
0.842205
0.877214
0.831468
0.746104
0.812353
0.814769
0.834006
0.898652
0.840959
0.837342
0.840662
0.859034
0.867867
0.858568
0.863871
0.759834
0.84104
0.763469
0.865359
0.865708
0.776438
0.866119
0.843894
0.776726
0.85149
0.792255
0.880025
0.820086
0.863415
0.874232
0.866553
0.785698
0.866178
0.751375
0.807762
0.824503
0.857802
0.861328
0.795741
0.809638
0.861426
0.867521
0.851891
0.85839
0.867555
0.859389
0.807926
0.738915
0.805181
0.815823
0.789956
0.865478
0.843773
0.85121
0.828158
0.816713
0.872216
0.874036
0.873698
0.817291
0.742592
0.815257
0.753954
0.843993
0.845144
0.811257
0.819543
0.836476
0.829285
0.829942
0.799701
0.867864
0.877289
0.847966
0.806005
0.79507
0.836385
0.819214
0.860212
0.75059
0.819245
0.848559
0.805773
0.77859
0.870062
0.848397
0.867988
0.738964
0.827763
0.813553
0.866034
0.777289
0.870412
0.813087
0.814008
0.816391
0.869539
0.868732
0.858242
0.871924
0.78103
0.820836
0.811841
0.873091
0.903448
0.869958
0.824782
0.856026
0.815854
0.809143
0.745911
0.873831
0.814829
0.846089
0.831078
0.883406
0.849175
0.865049
0.815133
0.857836
0.818974
0.745122
0.818375
0.836394
0.846077
0.835587
0.86394
0.742774
0.879166
0.868573
0.824579
0.809316
0.792241
0.835676
0.861204
0.873378
0.836004
0.873367
0.821191
0.785399
0.8194
0.805742
0.808401
0.858451
0.858655
0.879072
0.858824
0.873715
0.7612
0.830201
0.873796
0.812111
0.822624
0.839213
0.810177
0.866976
0.860024
0.824547
0.822463
0.811059
0.850793
0.865754
0.821899
0.803669
0.820996
0.811012
0.858185
0.746646
0.883577
0.817201
0.738913
0.822608
0.84064
0.841311
0.777333
0.752791
0.816819
0.825168
0.815383
0.877997
0.817305
0.852237
0.818197
0.874381
0.821883
0.820739
0.854992
0.853651
0.841923
0.857626
0.857538
0.882689
0.798415
0.872327
0.857989
0.761547
0.819714
0.819605
0.821043
0.858244
0.858118
0.823157
0.815651
0.811336
0.858556
0.821146
0.816882
0.810396
0.859038
0.818452
0.811426
0.826009
0.859695
0.818021
0.816995
0.845241
0.806015
0.860933
0.759629
0.859793
0.871301
0.824667
0.858316
0.815029
0.860813
0.865325
0.814188
0.858045
0.807763
0.829848
0.82407
0.811749
0.820952
0.825904
0.826731
0.825908
0.857608
0.862211
0.832813
0.862084
0.821653
0.808225
0.810684
0.822912
0.862501
0.814679
0.858229
0.861157
0.8283
0.826165
0.807032
0.865246
0.873673
0.810006
0.770259
0.809687
0.868034
0.859164
0.827791
0.820462
0.84073
0.868394
0.780139
0.848374
0.836239
0.86386
0.857896
0.833716
0.835339
0.831205
0.818117
0.834623
0.830044
0.742189
0.871587
0.826474
0.863911
0.875749
0.858312
0.815488
0.830532
0.863029
0.856141
0.831313
0.766466
0.832683
0.881289
0.840135
0.808038
0.827222
0.885579
0.803938
0.889896
0.842513
0.858631
0.858247
0.823131
0.822932
0.870558
0.859922
0.824982
0.866487
0.83915
0.893158
0.842675
0.831096
0.815506
0.857969
0.832768
0.855293
0.831077
0.827191
0.835477
0.859509
0.858116
0.863872
0.856236
0.849972
0.837163
0.80617
0.780018
0.870023
0.858695
0.826002
0.86659
0.754133
0.873979
0.806268
0.825883
0.859909
0.864903
0.818771
0.867222
0.812551
0.812373
0.830599
0.848279
0.820273
0.828271
0.858369
0.858441
0.851497
0.81296
0.843578
0.814603
0.835631
0.826482
0.808866
0.807944
0.809376
0.845098
0.824791
0.823281
0.864193
0.850132
0.809281
0.759031
0.833201
0.807096
0.812026
0.771988
0.820786
0.828073
0.823186
0.858538
0.851814
0.864854
0.87276
0.83164
0.826393
0.893551
0.859765
0.827487
0.817258
0.774965
0.831585
0.829536
0.816798
0.862852
0.865207
0.819756
0.825825
0.81913
0.782695
0.857612
0.815801
0.830333
0.818127
0.873079
0.831398
0.823481
0.823711
0.836771
0.832576
0.751491
0.814144
0.866556
0.864991
0.827281
0.762966
0.836825
0.864079
0.875412
0.863231
0.864698
0.820164
0.85846
0.833675
0.746579
0.829835
0.814685
0.828793
0.866435
0.795723
0.861842
0.86041
0.849139
0.768577
0.899525
0.821148
0.828296
0.827727
0.819124
0.830849
0.863136
0.830947
0.815496
0.866979
0.856861
0.819083
0.819085
0.86289
0.831596
0.851213
0.856015
0.851795
0.841308
0.829963
0.872541
0.8771
0.851196
0.84015
0.868474
0.744854
0.823885
0.856529
0.857027
0.883151
0.874751
0.840343
0.749477
0.859214
0.812785
0.865505
0.837884
0.870237
0.8709
0.832995
0.892853
0.816264
0.834375
0.867929
0.855605
0.827853
0.86348
0.765657
0.824819
0.872602
0.850354
0.83374
0.853736
0.868191
0.831107
0.791051
0.853524
0.815643
0.865978
0.857494
0.835071
0.859208
0.835668
0.85356
0.85732
0.83233
0.858191
0.818025
0.865957
0.858155
0.836837
0.871281
0.871997
0.856948
0.85718
0.872691
0.853915
0.866559
0.858101
0.813567
0.844788
0.857489
0.83864
0.836338
0.813185
0.812061
0.872255
0.858355
0.847659
0.873328
0.857057
0.813842
0.854113
0.873857
0.87066
0.81803
0.862488
0.867421
0.830942
0.874357
0.863604
0.829321
0.854766
0.843001
0.749303
0.862765
0.858066
0.8524
0.856928
0.857835
0.858479
0.859137
0.85838
0.785139
0.872356
0.812628
0.860561
0.840868
0.851394
0.858343
0.8482
0.861121
0.85926
0.86836
0.83983
0.841485
0.845154
0.870755
0.860556
0.840494
0.862461
0.868965
0.860355
0.808447
0.874646
0.87047
0.754744
0.778284
0.836402
0.858402
0.817483
0.856519
0.86021
0.856024
0.787545
0.865664
0.804919
0.850542
0.856546
0.870308
0.858144
0.866029
0.828068
0.874247
0.857863
0.856124
0.868338
0.793216
0.841667
0.85899
0.808198
0.807816
0.861113
0.87569
0.871292
0.868406
0.871851
0.85689
0.866567
0.767626
0.860363
0.864368
0.855971
0.85891
0.863644
0.858728
0.78967
0.809035
0.849193
0.81453
0.808629
0.825456
0.806646
0.868144
0.861607
0.809489
0.860955
0.846212
0.866982
0.861272
0.808235
0.857886
0.874041
0.844425
0.83022
0.846036
0.856288
0.766075
0.858322
0.861872
0.87471
0.778955
0.781111
0.74068
0.843344
0.759755
0.865834
0.794655
0.85678
0.868106
0.815333
0.852008
0.857588
0.80321
0.829053
0.858542
0.826469
0.857597
0.860199
0.860135
0.873713
0.855538
0.816337
0.800443
0.853472
0.856647
0.858057
0.803825
0.837087
0.823147
0.860053
0.865433
0.865862
0.857695
0.750427
0.854864
0.858282
0.858445
0.819047
0.83738
0.827076
0.839647
0.859953
0.750334
0.83234
0.810336
0.860776
0.858296
0.858
0.869795
0.858393
0.856004
0.857807
0.816779
0.856952
0.870586
0.860575
0.824942
0.861694
0.756083
0.780366
0.872219
0.858817
0.816722
0.858533
0.790592
0.808496
0.806765
0.858336
0.755124
0.858792
0.811053
0.860938
0.873641
0.821885
0.858449
0.85863
0.843867
0.864385
0.816473
0.809293
0.865657
0.907648
0.846079
0.85964
0.849462
0.865012
0.876134
0.781134
0.761442
0.863823
0.81363
0.757149
0.862453
0.822215