# vtk DataFile Version 1.0
unstructured grid
ascii
DATASET UNSTRUCTURED_GRID
points 7812 float
-1 0 0
-1 1 0
2 0 0
2 1 0
0 0 0
1 0 0
-1 1 0.1
-1 0 0.1
0 0 0.1
1 0 0.1
2 0 0.1
2 1 0.1
-0.99 0 0
-0.98 0 0
-0.97 0 0
-0.96 0 0
-0.95 0 0
-0.94 0 0
-0.93 0 0
-0.92 0 0
-0.91 0 0
-0.9 0 0
-0.89 0 0
-0.88 0 0
-0.87 0 0
-0.86 0 0
-0.85 0 0
-0.84 0 0
-0.83 0 0
-0.82 0 0
-0.81 0 0
-0.8 0 0
-0.79 0 0
-0.78 0 0
-0.77 0 0
-0.76 0 0
-0.75 0 0
-0.74 0 0
-0.73 0 0
-0.72 0 0
-0.71 0 0
-0.7 0 0
-0.69 0 0
-0.68 0 0
-0.67 0 0
-0.66 0 0
-0.65 0 0
-0.64 0 0
-0.63 0 0
-0.62 0 0
-0.61 0 0
-0.6 0 0
-0.59 0 0
-0.58 0 0
-0.57 0 0
-0.56 0 0
-0.55 0 0
-0.54 0 0
-0.53 0 0
-0.52 0 0
-0.51 0 0
-0.5 0 0
-0.49 0 0
-0.48 0 0
-0.47 0 0
-0.46 0 0
-0.45 0 0
-0.44 0 0
-0.43 0 0
-0.42 0 0
-0.41 0 0
-0.4 0 0
-0.39 0 0
-0.38 0 0
-0.37 0 0
-0.36 0 0
-0.35 0 0
-0.34 0 0
-0.33 0 0
-0.32 0 0
-0.31 0 0
-0.3 0 0
-0.29 0 0
-0.28 0 0
-0.27 0 0
-0.26 0 0
-0.25 0 0
-0.24 0 0
-0.23 0 0
-0.22 0 0
-0.21 0 0
-0.2 0 0
-0.19 0 0
-0.18 0 0
-0.17 0 0
-0.16 0 0
-0.15 0 0
-0.14 0 0
-0.13 0 0
-0.12 0 0
-0.11 0 0
-0.1 0 0
-0.09 0 0
-0.08 0 0
-0.07 0 0
-0.06 0 0
-0.05 0 0
-0.04 0 0
-0.03 0 0
-0.02 0 0
-0.01 0 0
1.01 0 0
1.02 0 0
1.03 0 0
1.04 0 0
1.05 0 0
1.06 0 0
1.07 0 0
1.08 0 0
1.09 0 0
1.1 0 0
1.11 0 0
1.12 0 0
1.13 0 0
1.14 0 0
1.15 0 0
1.16 0 0
1.17 0 0
1.18 0 0
1.19 0 0
1.2 0 0
1.21 0 0
1.22 0 0
1.23 0 0
1.24 0 0
1.25 0 0
1.26 0 0
1.27 0 0
1.28 0 0
1.29 0 0
1.3 0 0
1.31 0 0
1.32 0 0
1.33 0 0
1.34 0 0
1.35 0 0
1.36 0 0
1.37 0 0
1.38 0 0
1.39 0 0
1.4 0 0
1.41 0 0
1.42 0 0
1.43 0 0
1.44 0 0
1.45 0 0
1.46 0 0
1.47 0 0
1.48 0 0
1.49 0 0
1.5 0 0
1.51 0 0
1.52 0 0
1.53 0 0
1.54 0 0
1.55 0 0
1.56 0 0
1.57 0 0
1.58 0 0
1.59 0 0
1.6 0 0
1.61 0 0
1.62 0 0
1.63 0 0
1.64 0 0
1.65 0 0
1.66 0 0
1.67 0 0
1.68 0 0
1.69 0 0
1.7 0 0
1.71 0 0
1.72 0 0
1.73 0 0
1.74 0 0
1.75 0 0
1.76 0 0
1.77 0 0
1.78 0 0
1.79 0 0
1.8 0 0
1.81 0 0
1.82 0 0
1.83 0 0
1.84 0 0
1.85 0 0
1.86 0 0
1.87 0 0
1.88 0 0
1.89 0 0
1.9 0 0
1.91 0 0
1.92 0 0
1.93 0 0
1.94 0 0
1.95 0 0
1.96 0 0
1.97 0 0
1.98 0 0
1.99 0 0
2 0.010289 0
2 0.0215307 0
2 0.0338135 0
2 0.0472336 0
2 0.0618965 0
2 0.0779171 0
2 0.0954213 0
2 0.114546 0
2 0.135442 0
2 0.158274 0
2 0.183219 0
2 0.210474 0
2 0.240253 0
2 0.27279 0
2 0.308339 0
2 0.347181 0
2 0.389619 0
2 0.435987 0
2 0.486649 0
2 0.542002 0
2 0.602481 0
2 0.66856 0
2 0.740758 0
2 0.819642 0
2 0.90583 0
1.9 1 0
1.8 1 0
1.7 1 0
1.6 1 0
1.5 1 0
1.4 1 0
1.3 1 0
1.2 1 0
1.1 1 0
1 1 0
0.9 1 0
0.8 1 0
0.7 1 0
0.6 1 0
0.5 1 0
0.4 1 0
0.3 1 0
0.2 1 0
0.1 1 0
3.69793e-12 1 0
-0.1 1 0
-0.2 1 0
-0.3 1 0
-0.4 1 0
-0.5 1 0
-0.6 1 0
-0.7 1 0
-0.8 1 0
-0.9 1 0
-1 0.90583 0
-1 0.819642 0
-1 0.740758 0
-1 0.66856 0
-1 0.602481 0
-1 0.542002 0
-1 0.486649 0
-1 0.435987 0
-1 0.389619 0
-1 0.347181 0
-1 0.308339 0
-1 0.27279 0
-1 0.240253 0
-1 0.210474 0
-1 0.183219 0
-1 0.158274 0
-1 0.135442 0
-1 0.114546 0
-1 0.0954213 0
-1 0.0779171 0
-1 0.0618965 0
-1 0.0472336 0
-1 0.0338135 0
-1 0.0215307 0
-1 0.010289 0
0.00921362 0.00379763 0
0.0184561 0.00752451 0
0.0277268 0.0111804 0
0.0370253 0.0147652 0
0.0463511 0.0182786 0
0.0557034 0.0217203 0
0.0650819 0.0250903 0
0.074486 0.0283883 0
0.083915 0.0316141 0
0.0933685 0.0347675 0
0.102846 0.0378484 0
0.112347 0.0408565 0
0.12187 0.0437917 0
0.131416 0.0466538 0
0.140983 0.0494427 0
0.150572 0.0521581 0
0.160181 0.0547999 0
0.16981 0.0573681 0
0.179458 0.0598623 0
0.189125 0.0622825 0
0.198811 0.0646285 0
0.208514 0.0669001 0
0.218234 0.0690974 0
0.227971 0.07122 0
0.237724 0.073268 0
0.247493 0.0752411 0
0.257276 0.0771393 0
0.267073 0.0789625 0
0.276884 0.0807105 0
0.286708 0.0823832 0
0.296545 0.0839806 0
0.306394 0.0855025 0
0.316254 0.0869488 0
0.326125 0.0883196 0
0.336006 0.0896146 0
0.345896 0.0908339 0
0.355796 0.0919773 0
0.365704 0.0930447 0
0.375621 0.0940362 0
0.385544 0.0949517 0
0.395474 0.095791 0
0.40541 0.0965542 0
0.415352 0.0972412 0
0.425299 0.097852 0
0.43525 0.0983865 0
0.445205 0.0988447 0
0.455164 0.0992266 0
0.465125 0.0995321 0
0.475088 0.0997613 0
0.485052 0.0999141 0
0.495017 0.0999904 0
0.504983 0.0999904 0
0.514948 0.0999141 0
0.524912 0.0997613 0
0.534875 0.0995321 0
0.544836 0.0992266 0
0.554795 0.0988447 0
0.56475 0.0983865 0
0.574701 0.097852 0
0.584648 0.0972412 0
0.59459 0.0965542 0
0.604526 0.095791 0
0.614456 0.0949517 0
0.624379 0.0940362 0
0.634296 0.0930447 0
0.644204 0.0919773 0
0.654104 0.0908339 0
0.663994 0.0896146 0
0.673875 0.0883196 0
0.683746 0.0869488 0
0.693606 0.0855025 0
0.703455 0.0839806 0
0.713292 0.0823832 0
0.723116 0.0807105 0
0.732927 0.0789625 0
0.742724 0.0771393 0
0.752508 0.0752411 0
0.762276 0.073268 0
0.772029 0.07122 0
0.781766 0.0690974 0
0.791486 0.0669001 0
0.801189 0.0646285 0
0.810875 0.0622825 0
0.820542 0.0598623 0
0.83019 0.0573681 0
0.839819 0.0547999 0
0.849428 0.0521581 0
0.859017 0.0494427 0
0.868584 0.0466538 0
0.87813 0.0437917 0
0.887653 0.0408565 0
0.897154 0.0378484 0
0.906631 0.0347675 0
0.916085 0.0316141 0
0.925514 0.0283883 0
0.934918 0.0250903 0
0.944297 0.0217203 0
0.953649 0.0182786 0
0.962975 0.0147652 0
0.972273 0.0111804 0
0.981544 0.00752451 0
0.990786 0.00379763 0
-1 0.90583 0.1
-1 0.819642 0.1
-1 0.740758 0.1
-1 0.66856 0.1
-1 0.602481 0.1
-1 0.542002 0.1
-1 0.486649 0.1
-1 0.435987 0.1
-1 0.389619 0.1
-1 0.347181 0.1
-1 0.308339 0.1
-1 0.27279 0.1
-1 0.240253 0.1
-1 0.210474 0.1
-1 0.183219 0.1
-1 0.158274 0.1
-1 0.135442 0.1
-1 0.114546 0.1
-1 0.0954213 0.1
-1 0.0779171 0.1
-1 0.0618965 0.1
-1 0.0472336 0.1
-1 0.0338135 0.1
-1 0.0215307 0.1
-1 0.010289 0.1
-0.99 0 0.1
-0.98 0 0.1
-0.97 0 0.1
-0.96 0 0.1
-0.95 0 0.1
-0.94 0 0.1
-0.93 0 0.1
-0.92 0 0.1
-0.91 0 0.1
-0.9 0 0.1
-0.89 0 0.1
-0.88 0 0.1
-0.87 0 0.1
-0.86 0 0.1
-0.85 0 0.1
-0.84 0 0.1
-0.83 0 0.1
-0.82 0 0.1
-0.81 0 0.1
-0.8 0 0.1
-0.79 0 0.1
-0.78 0 0.1
-0.77 0 0.1
-0.76 0 0.1
-0.75 0 0.1
-0.74 0 0.1
-0.73 0 0.1
-0.72 0 0.1
-0.71 0 0.1
-0.7 0 0.1
-0.69 0 0.1
-0.68 0 0.1
-0.67 0 0.1
-0.66 0 0.1
-0.65 0 0.1
-0.64 0 0.1
-0.63 0 0.1
-0.62 0 0.1
-0.61 0 0.1
-0.6 0 0.1
-0.59 0 0.1
-0.58 0 0.1
-0.57 0 0.1
-0.56 0 0.1
-0.55 0 0.1
-0.54 0 0.1
-0.53 0 0.1
-0.52 0 0.1
-0.51 0 0.1
-0.5 0 0.1
-0.49 0 0.1
-0.48 0 0.1
-0.47 0 0.1
-0.46 0 0.1
-0.45 0 0.1
-0.44 0 0.1
-0.43 0 0.1
-0.42 0 0.1
-0.41 0 0.1
-0.4 0 0.1
-0.39 0 0.1
-0.38 0 0.1
-0.37 0 0.1
-0.36 0 0.1
-0.35 0 0.1
-0.34 0 0.1
-0.33 0 0.1
-0.32 0 0.1
-0.31 0 0.1
-0.3 0 0.1
-0.29 0 0.1
-0.28 0 0.1
-0.27 0 0.1
-0.26 0 0.1
-0.25 0 0.1
-0.24 0 0.1
-0.23 0 0.1
-0.22 0 0.1
-0.21 0 0.1
-0.2 0 0.1
-0.19 0 0.1
-0.18 0 0.1
-0.17 0 0.1
-0.16 0 0.1
-0.15 0 0.1
-0.14 0 0.1
-0.13 0 0.1
-0.12 0 0.1
-0.11 0 0.1
-0.1 0 0.1
-0.09 0 0.1
-0.08 0 0.1
-0.07 0 0.1
-0.06 0 0.1
-0.05 0 0.1
-0.04 0 0.1
-0.03 0 0.1
-0.02 0 0.1
-0.01 0 0.1
0.00921362 0.00379763 0.1
0.0184561 0.00752451 0.1
0.0277268 0.0111804 0.1
0.0370253 0.0147652 0.1
0.0463511 0.0182786 0.1
0.0557034 0.0217203 0.1
0.0650819 0.0250903 0.1
0.074486 0.0283883 0.1
0.083915 0.0316141 0.1
0.0933685 0.0347675 0.1
0.102846 0.0378484 0.1
0.112347 0.0408565 0.1
0.12187 0.0437917 0.1
0.131416 0.0466538 0.1
0.140983 0.0494427 0.1
0.150572 0.0521581 0.1
0.160181 0.0547999 0.1
0.16981 0.0573681 0.1
0.179458 0.0598623 0.1
0.189125 0.0622825 0.1
0.198811 0.0646285 0.1
0.208514 0.0669001 0.1
0.218234 0.0690974 0.1
0.227971 0.07122 0.1
0.237724 0.073268 0.1
0.247493 0.0752411 0.1
0.257276 0.0771393 0.1
0.267073 0.0789625 0.1
0.276884 0.0807105 0.1
0.286708 0.0823832 0.1
0.296545 0.0839806 0.1
0.306394 0.0855025 0.1
0.316254 0.0869488 0.1
0.326125 0.0883196 0.1
0.336006 0.0896146 0.1
0.345896 0.0908339 0.1
0.355796 0.0919773 0.1
0.365704 0.0930447 0.1
0.375621 0.0940362 0.1
0.385544 0.0949517 0.1
0.395474 0.095791 0.1
0.40541 0.0965542 0.1
0.415352 0.0972412 0.1
0.425299 0.097852 0.1
0.43525 0.0983865 0.1
0.445205 0.0988447 0.1
0.455164 0.0992266 0.1
0.465125 0.0995321 0.1
0.475088 0.0997613 0.1
0.485052 0.0999141 0.1
0.495017 0.0999904 0.1
0.504983 0.0999904 0.1
0.514948 0.0999141 0.1
0.524912 0.0997613 0.1
0.534875 0.0995321 0.1
0.544836 0.0992266 0.1
0.554795 0.0988447 0.1
0.56475 0.0983865 0.1
0.574701 0.097852 0.1
0.584648 0.0972412 0.1
0.59459 0.0965542 0.1
0.604526 0.095791 0.1
0.614456 0.0949517 0.1
0.624379 0.0940362 0.1
0.634296 0.0930447 0.1
0.644204 0.0919773 0.1
0.654104 0.0908339 0.1
0.663994 0.0896146 0.1
0.673875 0.0883196 0.1
0.683746 0.0869488 0.1
0.693606 0.0855025 0.1
0.703455 0.0839806 0.1
0.713292 0.0823832 0.1
0.723116 0.0807105 0.1
0.732927 0.0789625 0.1
0.742724 0.0771393 0.1
0.752508 0.0752411 0.1
0.762276 0.073268 0.1
0.772029 0.07122 0.1
0.781766 0.0690974 0.1
0.791486 0.0669001 0.1
0.801189 0.0646285 0.1
0.810875 0.0622825 0.1
0.820542 0.0598623 0.1
0.83019 0.0573681 0.1
0.839819 0.0547999 0.1
0.849428 0.0521581 0.1
0.859017 0.0494427 0.1
0.868584 0.0466538 0.1
0.87813 0.0437917 0.1
0.887653 0.0408565 0.1
0.897154 0.0378484 0.1
0.906631 0.0347675 0.1
0.916085 0.0316141 0.1
0.925514 0.0283883 0.1
0.934918 0.0250903 0.1
0.944297 0.0217203 0.1
0.953649 0.0182786 0.1
0.962975 0.0147652 0.1
0.972273 0.0111804 0.1
0.981544 0.00752451 0.1
0.990786 0.00379763 0.1
1.01 0 0.1
1.02 0 0.1
1.03 0 0.1
1.04 0 0.1
1.05 0 0.1
1.06 0 0.1
1.07 0 0.1
1.08 0 0.1
1.09 0 0.1
1.1 0 0.1
1.11 0 0.1
1.12 0 0.1
1.13 0 0.1
1.14 0 0.1
1.15 0 0.1
1.16 0 0.1
1.17 0 0.1
1.18 0 0.1
1.19 0 0.1
1.2 0 0.1
1.21 0 0.1
1.22 0 0.1
1.23 0 0.1
1.24 0 0.1
1.25 0 0.1
1.26 0 0.1
1.27 0 0.1
1.28 0 0.1
1.29 0 0.1
1.3 0 0.1
1.31 0 0.1
1.32 0 0.1
1.33 0 0.1
1.34 0 0.1
1.35 0 0.1
1.36 0 0.1
1.37 0 0.1
1.38 0 0.1
1.39 0 0.1
1.4 0 0.1
1.41 0 0.1
1.42 0 0.1
1.43 0 0.1
1.44 0 0.1
1.45 0 0.1
1.46 0 0.1
1.47 0 0.1
1.48 0 0.1
1.49 0 0.1
1.5 0 0.1
1.51 0 0.1
1.52 0 0.1
1.53 0 0.1
1.54 0 0.1
1.55 0 0.1
1.56 0 0.1
1.57 0 0.1
1.58 0 0.1
1.59 0 0.1
1.6 0 0.1
1.61 0 0.1
1.62 0 0.1
1.63 0 0.1
1.64 0 0.1
1.65 0 0.1
1.66 0 0.1
1.67 0 0.1
1.68 0 0.1
1.69 0 0.1
1.7 0 0.1
1.71 0 0.1
1.72 0 0.1
1.73 0 0.1
1.74 0 0.1
1.75 0 0.1
1.76 0 0.1
1.77 0 0.1
1.78 0 0.1
1.79 0 0.1
1.8 0 0.1
1.81 0 0.1
1.82 0 0.1
1.83 0 0.1
1.84 0 0.1
1.85 0 0.1
1.86 0 0.1
1.87 0 0.1
1.88 0 0.1
[...]
CELL_DATA 7425
SCALARS rho float
LOOKUP_TABLE default
0.636576
0.807658
0.830855
0.837568
0.80303
0.830251
0.83064
0.826959
0.82701
0.754725
0.869588
0.81392
0.826892
0.837426
0.808157
0.828938
0.801411
0.826879
0.805296
0.778144
0.840989
0.825911
0.742125
0.838143
0.80603
0.739643
0.840793
0.854226
0.803412
0.812099
0.829292
0.731741
0.805514
0.691565
0.640674
0.838114
0.805503
0.826963
0.81504
0.837668
0.747277
0.738825
0.801645
0.690324
0.652884
0.762076
0.811664
0.826867
0.713782
0.725336
0.753356
0.807879
0.816823
0.802045
0.710199
0.670002
0.833689
0.8022
0.754649
0.724002
0.748078
0.811042
0.826888
0.802224
0.802111
0.829263
0.633231
0.78661
0.672742
0.812059
0.80817
0.804126
0.888068
0.82502
0.815492
0.827044
0.807725
0.803429
0.826859
0.764544
0.82808
0.810607
0.823596
0.795103
0.844014
0.804739
0.620978
0.839327
0.637251
0.856247
0.692615
0.746598
0.851168
0.804729
0.829092
0.779509
0.840484
0.794942
0.836035
0.806953
0.820243
0.745855
0.805229
0.837912
0.640842
0.814968
0.834593
0.736017
0.827434
0.80248
0.828473
0.791409
0.795971
0.816218
0.801429
0.793627
0.840826
0.803923
0.696855
0.69874
0.807799
0.79011
0.827041
0.797184
0.865935
0.844332
0.810974
0.815132
0.691857
0.630665
0.826978
0.694415
0.636821
0.873617
0.712505
0.803176
0.815639
0.745176
0.628547
0.750884
0.752873
0.814293
0.823251
0.70689
0.806886
0.786471
0.612401
0.802935
0.788401
0.837901
0.826802
0.692336
0.807194
0.751709
0.707755
0.805507
0.814314
0.840222
0.809176
0.710234
0.804767
0.691254
0.804804
0.83964
0.831572
0.803399
0.826968
0.797023
0.810227
0.804453
0.830985
0.809346
0.805167
0.802401
0.802075
0.763372
0.808185
0.779834
0.664682
0.685654
0.803002
0.805621
0.884717
0.841022
0.685442
0.833699
0.801588
0.832543
0.803132
0.826736
0.827093
0.804821
0.810944
0.707571
0.827424
0.830369
0.780694
0.809546
0.866345
0.811133
0.816265
0.825196
0.65195
0.844373
0.619505
0.642387
0.639334
0.685057
0.832871
0.884331
0.810783
0.801979
0.84897
0.827169
0.828426
0.831837
0.827534
0.666679
0.680842
0.826858
0.640267
0.662377
0.703155
0.823876
0.826751
0.827046
0.842494
0.827476
0.869936
0.709117
0.839507
0.750133
0.809345
0.806046
0.80351
0.73741
0.7471
0.651629
0.697426
0.870213
0.881364
0.818825
0.810996
0.811408
0.816168
0.747206
0.832578
0.804215
0.835973
0.800149
0.823631
0.727234
0.8273
0.834393
0.764414
0.615714
0.802341
0.743703
0.847369
0.826887
0.733208
0.827734
0.827343
0.856873
0.822628
0.809154
0.804745
0.836058
0.867615
0.810452
0.65059
0.856585
0.81783
0.808452
0.837611
0.845451
0.826521
0.832135
0.799737
0.827481
0.872375
0.856971
0.832073
0.845852
0.804874
0.828945
0.804175
0.766481
0.738086
0.628101
0.695638
0.814562
0.826966
0.828084
0.860327
0.788391
0.675189
0.837306
0.642431
0.787179
0.804611
0.676056
0.66386
0.667815
0.82756
0.826875
0.827164
0.825746
0.83698
0.781434
0.81528
0.805286
0.827489
0.849387
0.87316
0.842848
0.805386
0.690309
0.807855
0.842489
0.71644
0.801665
0.803359
0.87097
0.828904
0.632403
0.826721
0.76495
0.857925
0.755973
0.82341
0.910883
0.803684
0.8019
0.689726
0.667474
0.712221
0.796463
0.836749
0.827375
0.826851
0.888478
0.86304
0.803157
0.809977
0.829841
0.762467
0.807705
0.8847
0.803309
0.809965
0.80452
0.803635
0.826457
0.827896
0.828324
0.683291
0.834661
0.706282
0.813838
0.685872
0.814687
0.803441
0.84437
0.759061
0.820618
0.820697
0.828773
0.802143
0.803474
0.815904
0.739954
0.82835
0.826961
0.826422
0.802989
0.748193
0.610049
0.809698
0.824892
0.804589
0.827365
0.801174
0.663749
0.850318
0.826707
0.805955
0.797938
0.826871
0.808686
0.806824
0.828261
0.810817
0.833297
0.780786
0.822699
0.811131
0.615069
0.807804
0.668824
0.846491
0.668294
0.826995
0.883339
0.678182
0.822574
0.766488
0.80749
0.878729
0.644474
0.833772
0.833123
0.805657
0.836124
0.815505
0.834145
0.840418
0.835212
0.763344
0.837675
0.767983
0.814862
0.799627
0.80569
0.774653
0.808557
0.803515
0.826076
0.775389
0.808427
0.646544
0.653703
0.731756
0.8264
0.852338
0.871353
0.839316
0.801643
0.8271
0.808818
0.829195
0.705882
0.80426
0.758965
0.832983
0.826859
0.810862
0.711084
0.748751
0.625252
0.641301
0.804921
0.646006
0.805879
0.772335
0.781835
0.732847
0.778279
0.783962
0.822769
0.827398
0.830848
0.825454
0.744873
0.686993
0.8477
0.819109
0.791299
0.81542
0.805291
0.845688
0.752937
0.8626
0.770861
0.759212
0.782201
0.823822
0.63084
0.801786
0.850219
0.818071
0.826874
0.822826
0.802765
0.796267
0.843921
0.804471
0.851442
0.736054
0.708558
0.80231
0.807191
0.832855
0.73737
0.855935
0.8047
0.828013
0.801427
0.788004
0.813658
0.634028
0.702919
0.663306
0.825854
0.81422
0.836522
0.7644
0.814304
0.827323
0.831508
0.802217
0.759738
0.810049
0.819948
0.804514
0.743333
0.826813
0.830016
0.844167
0.824712
0.835779
0.868422
0.86386
0.766559
0.641753
0.845878
0.810024
0.850891
0.827009
0.827533
0.82683
0.826877
0.70073
0.810698
0.820861
0.827357
0.803493
0.820761
0.809501
0.866124
0.801732
0.827292
0.827249
0.877812
0.636687
0.826751
0.847779
0.888005
0.617651
0.828354
0.834611
0.801003
0.819131
0.806915
0.873781
0.822742
0.841057
0.818404
0.655489
0.80398
0.806475
0.733452
0.859943
0.766462
0.807005
0.826809
0.8265
0.865233
0.800206
0.842228
0.844034
0.79945
0.829721
0.84746
0.803335
0.815844
0.812129
0.808101
0.826333
0.80369
0.853202
0.776173
0.814322
0.805302
0.82536
0.747803
0.827276
0.829883
0.767565
0.826806
0.826947
0.832836
0.83551
0.804337
0.80315
0.857483
0.774128
0.830832
0.852336
0.807508
0.632721
0.826902
0.838349
0.859203
0.824844
0.804082
0.813619
0.861752
0.785974
0.805171
0.804633
0.827276
0.758407
0.806273
0.834399
0.813748
0.800308
0.807213
0.851634
0.80981
0.852607
0.803506
0.834836
0.825899
0.80649
0.849464
0.826862
0.71939
0.830229
0.810441
0.825971
0.909433
0.803065
0.826864
0.802284
0.802852
0.828224
0.803005
0.805379
0.789373
0.754244
0.819076
0.827308
0.773803
0.805247
0.833681
0.816804
0.833125
0.810255
0.836161
0.880616
0.84043
0.673206
0.728011
0.849431
0.829042
0.852192
0.827068
0.857431
0.812544
0.822582
0.802317
0.847103
0.867728
0.860299
0.75544
0.826973
0.832806
0.750264
0.822662
0.782676
0.802158
0.755319
0.828121
0.840631
0.827372
0.867596
0.826848
0.826855
0.822891
0.827029
0.844335
0.815924
0.801319
0.813942
0.760871
0.825425
0.780269
0.841851
0.818223
0.667572
0.786487
0.816277
0.802005
0.831093
0.806956
0.827064
0.829054
0.80844
0.830621
0.806736
0.811155
0.670697
0.855115
0.83553
0.836974
0.820322
0.805402
0.722935
0.812257
0.911072
0.826263
0.805525
0.82607
0.790587
0.81272
0.826028
0.832308
0.818459
0.826859
0.82827
0.678454
0.792753
0.782366
0.826453
0.809263
0.805478
0.657711
0.810964
0.806913
0.735834
0.841803
0.828953
0.805557
0.812416
0.80161
0.828862
0.82433
0.826866
0.827381
0.728773
0.840774
0.804985
0.812856
0.847255
0.822918
0.828207
0.803305
0.760747
0.834084
0.801545
0.832371
0.796315
0.811139
0.832034
0.749226
0.82836
0.713039
0.877917
0.727347
0.853246
0.813569
0.880394
0.799811
0.803873
0.831798
0.840876
0.842326
0.835453
0.831094
0.826744
0.81349
0.808569
0.812155
0.758133
0.831757
0.803025
0.725878
0.839676
0.683118
0.804045
0.86594
0.808495
0.738808
0.803639
0.826973
0.704163
0.791373
0.830632
0.840596
0.81965
0.687636
0.758942
0.816766
0.805966
0.827312
0.804103
0.754331
0.826709
0.827903
0.826829
0.788163
0.804776
0.807057
0.808858
0.611023
0.827211
0.838142
0.656011
0.82754
0.828174
0.82724
0.829894
0.827028
0.83504
0.802702
0.799447
0.777438
0.82725
0.833815
0.829385
0.840892
0.779182
0.822153
0.757678
0.779474
0.813988
0.832134
0.826739
0.80345
0.86359
0.827275
0.813115
0.822936
0.828011
0.827532
0.845743
0.827145
0.82689
0.815643
0.826852
0.804502
0.831984
0.806022
0.833625
0.826828
0.652363
0.826831
0.843814
0.863332
0.842346
0.6464
0.828658
0.815641
0.628612
0.714102
0.708857
0.843116
0.818671
0.815361
0.826494
0.803974
0.82863
0.815341
0.626242
0.729314
0.822487
0.80973
0.827748
0.805346
0.813927
0.824758
0.831148
0.801735
0.735992
0.861675
0.803964
0.818512
0.826607
0.771985
0.645255
0.842415
0.81812
0.74823
0.803673
0.812005
0.675166
0.832237
0.827021
0.837867
0.830235
0.831633
0.807307
0.753879
0.673105
0.613959
0.835768
0.814132
0.788712
0.827008
0.794775
0.829523
0.878721
0.776158
0.832586
0.826186
0.836121
0.888574
0.827019
0.825239
0.80714
0.817641
0.726841
0.83829
0.802366
0.81595
0.803866
0.791857
0.861583
0.832862
0.848166
0.832506
0.764024
0.768454
0.808255
0.829415
0.804028
0.808134
0.806794
0.791439
0.827105
0.776853
0.826606
0.688106
0.826748
0.80681
0.741325
0.832191
0.828691
0.756061
0.806342
0.773116
0.886575
0.803066
0.827398
0.778513
0.804277
0.827023
0.806319
0.635147
0.825623
0.810026
0.814075
0.827152
0.835703
0.773442
0.81056
0.84706
0.832401
0.818441
0.845043
0.676681
0.721394
0.827313
0.75995
0.833102
0.784458
0.827361
0.804012
0.821014
0.767262
0.798865
0.780957
0.822611
0.803904
0.661919
0.785685
0.80223
0.854544
0.827073
0.838683
0.635048
0.829141
0.791779
0.865743
0.803567
0.822515
0.804459
0.79881
0.80155
0.835692
0.843749
0.82641
0.828734
0.709344
0.78909
0.826707
0.808222
0.824079
0.806467
0.702738
0.804831
0.80701
0.816014
0.832276
0.858086
0.841506
0.826826
0.802867
0.808495
0.80535
0.78868
0.650166
0.813044
0.757613
0.692936
0.833283
0.801345
0.783432
0.803278
0.768979
0.792734
0.826047
0.827452
0.815047
0.827922
0.82788
0.829848
0.826835
0.819262
0.730873
0.721501
0.67015
0.839228
0.875558
0.824915
0.845544
0.855591
0.869814
0.76268
0.827513
0.869316
0.82161
0.827522
0.826638
0.75533
0.824642
0.812099
0.811409
0.625507
0.827126
0.774451
0.826722
0.818075
0.805329
0.706602
0.826708
0.648551
0.829578
0.806045
0.831242
0.86248
0.805254
0.800241
0.832005
0.824527
0.809411
0.77515
0.638142
0.831883
0.806503
0.83463
0.836097
0.814786
0.8102
0.843087
0.745463
0.648268
0.890914
0.812824
0.827886
0.807116
0.712465
0.801435
0.803484
0.827479
0.764446
0.674685
0.88798
0.736622
0.845663
0.825272
0.842407
0.851076
0.805999
0.807268
0.826579
0.859625
0.75461
0.876217
0.826926
0.617859
0.807178
0.755826
0.860421
0.778443
0.806891
0.806277
0.802471
0.803334
0.822021
0.827424
0.86045
0.811022
0.803567
0.80318
0.803098
0.82684
0.828736
0.803389
0.8271
0.857079
0.803739
0.796585
0.803154
0.844748
0.758142
0.826823
0.826665
0.697916
0.735647
0.809947
0.833503
0.808939
0.634221
0.861824
0.825952
0.838357
0.808043
0.80477
0.802652
0.799961
0.62766
0.808466
0.828169
0.839967
0.831708
0.827227
0.811218
0.768138
0.806839
0.784873
0.794806
0.802438
0.796511
0.757868
0.80409
0.817524
0.823529
0.840762
0.854349
0.629107
0.850491
0.827509
0.824662
0.80559
0.826531
0.825737
0.898755
0.811043
0.872794
0.809646
0.7779
0.868283
0.805263
0.802899
0.834454
0.687905
0.673608
0.805091
0.80603
0.67612
0.681983
0.802499
0.834418
0.827058
0.83341
0.753874
0.827289
0.826641
0.836476
0.827925
0.815679
0.827532
0.769788
0.808615
0.827718
0.82599
0.699884
0.624423
0.827572
0.677888
0.739725
0.618075
0.849926
0.803379
0.649268
0.63981
0.836248
0.911299
0.82968
0.680318
0.826864
0.799417
0.805298
0.79288
0.826325
0.82172
0.795474
0.831855
0.813649
0.637776
0.829426
0.782225
0.827793
0.701109
0.833053
0.80279
0.826783
0.803821
0.689999
0.85096
0.817247
0.811833
0.638173
0.828679
0.803441
0.857676
0.714955
0.828882
0.681463
0.754183
0.804752
0.808694
0.762554
0.743299
0.718463
0.646795
0.690385
0.803955
0.647171
0.833421
0.665683
0.771872
0.716116
0.692937
0.651464
0.761482
0.804172
0.716749
0.832315
0.803149
0.806416
0.77563
0.894173
0.802285
0.83498
0.805448
0.827289
0.726819
0.812526
0.75388
0.832834
0.890833
0.842418
0.765655
0.833507
0.785127
0.884803
0.806508
0.772976
0.858417
0.790863
0.802532
0.810577
0.7728
0.770233
0.716271
0.807626
0.804289
0.82922
0.842843
0.645453
0.813348
0.638923
0.69362
0.690759
0.824045
0.832055
0.821957
0.806509
0.650308
0.877871
0.803403
0.803591
0.870118
0.827081
0.783473
0.826807
0.803207
0.829526
0.803736
0.736535
0.807144
0.712761
0.801668
0.816021
0.802734
0.667918
0.822269
0.820642
0.737798
0.823126
0.629903
0.624291
0.807249
0.718652
0.743515
0.621184
0.750483
0.826802
0.701929
0.783293
0.720102
0.822567
0.696269
0.776451
0.810358
0.823131
0.697083
0.803081
0.899277
0.802603
0.828676
0.667532
0.718466
0.813655
0.827249
0.826781
0.858688
0.826336
0.808213
0.807013
0.804997
0.737677
0.721952
0.655677
0.787679
0.658334
0.728529
0.822829
0.826866
0.811149
0.802708
0.676738
0.821843
0.806169
0.634787
0.64563
0.762264
0.806005
0.817998
0.620556
0.803906
0.631328
0.755312
0.65072
0.81873
0.805816
0.643011
0.6465
0.873972
0.814442
0.77959
0.74541
0.687924
0.683099
0.707559
0.827816
0.773952
0.771836
0.661258
0.771183
0.821924
0.827592
0.826892
0.827736
0.870863
0.773378
0.830259
0.807553
0.858544
0.827501
0.803915
0.826766
0.726567
0.82477
0.82397
0.82704
0.823299
0.82764
0.804778
0.829388
0.822686
0.822198
0.828817
0.803034
0.828239
0.830346
0.693586
0.830054
0.874556
0.829679
0.798355
0.676311
0.865559
0.830235
0.835388
0.802819
0.825792
0.763949
0.86009
0.677512
0.758722
0.813665
0.827853
0.806486
0.805041
0.841668
0.811228
0.809173
0.827601
0.792963
0.847457
0.850286
0.826013
0.691487
0.696145
0.82791
0.828325
0.802802
0.857439
0.854862
0.816399
0.825492
0.791925
0.826624
0.829354
0.826718
0.830214
0.818523
0.827966
0.858698
0.828072
0.826467
0.829252
0.82934
0.792298
0.826034
0.808749
0.809388
0.809099
0.830053
0.825837
0.801267
0.760342
0.826043
0.809391
0.821735
0.809456
0.864224
0.80733
0.826464
0.82676
0.809429
0.665345
0.806088
0.826891
0.820449
0.813937
0.827009
0.826641
0.826899
0.813766
0.870368
0.639948
0.827102
0.849934
0.826628
0.805016
0.812283
0.827439
0.84845
0.804067
0.805829
0.822509
0.678469
0.827183
0.812902
0.812594
0.826143
0.826866
0.826845
0.826836
0.640152
0.816876
0.749109
0.890491
0.831771
0.739101
0.709779
0.827662
0.809319
0.823712
0.674901
0.803874
0.826845
0.676199
0.803307
0.806749
0.821073
0.816589
0.8639
0.813464
0.645012
0.80369
0.781199
0.815394
0.89359
0.814657
0.819568
0.824013
0.840469
0.826834
0.83325
0.845241
0.668282
0.8145
0.683543
0.82682
0.826778
0.714576
0.82673
0.816866
0.716535
0.826054
0.728043
0.867857
0.790439
0.827052
0.827217
0.826694
0.7051
0.826841
0.662461
0.802641
0.79887
0.833035
0.827549
0.73636
0.773108
0.839891
0.826231
0.830484
0.832812
0.826827
0.835764
0.802313
0.612856
0.762076
0.775132
0.736852
0.846613
0.827997
0.838634
0.792892
0.80484
0.827069
0.82724
0.827199
0.785082
0.619493
0.804942
0.651207
0.819157
0.829847
0.80296
0.806112
0.818665
0.810177
0.796678
0.74636
0.826822
0.865592
0.824347
0.801924
0.743739
0.815521
0.795318
0.841922
0.655165
0.800517
0.818303
0.801667
0.707119
0.826628
0.822226
0.862319
0.617389
0.810644
0.804774
0.826105
0.683474
0.826887
0.804781
0.805019
0.804994
0.82687
0.826852
0.827951
0.827039
0.720357
0.807023
0.804532
0.827147
0.900139
0.826877
0.788426
0.845635
0.802157
0.804143
0.640842
0.827153
0.805009
0.831161
0.807311
0.872572
0.825506
0.858283
0.803987
0.831679
0.787249
0.624977
0.772843
0.80731
0.816437
0.817754
0.826687
0.619426
0.86796
0.863068
0.785784
0.767379
0.745307
0.817743
0.853025
0.827126
0.81832
0.827154
0.806831
0.732983
0.805886
0.801795
0.770474
0.834729
0.833744
0.867969
0.827633
0.82721
0.673925
0.8124
0.827186
0.803606
0.787228
0.822059
0.804175
0.826266
0.837117
0.803457
0.80729
0.803636
0.826126
0.847787
0.806609
0.801533
0.805922
0.772886
0.83109
0.62599
0.874069
0.805776
0.614039
0.80719
0.81436
0.824777
0.69236
0.64844
0.804934
0.808322
0.804291
0.866904
0.786363
0.825918
0.805233
0.871314
0.807305
0.806888
0.835237
0.827198
0.825564
0.832164
0.831371
0.873175
0.747401
0.859032
0.828827
0.681732
0.806044
0.805686
0.806296
0.832134
0.834055
0.807664
0.804453
0.803137
0.833458
0.8067
0.805698
0.802791
0.834926
0.806143
0.804028
0.809215
0.837809
0.804681
0.804923
0.829987
0.802085
0.827659
0.679577
0.836668
0.857116
0.808546
0.830862
0.805157
0.838733
0.846477
0.805025
0.83239
0.802811
0.811921
0.796011
0.804136
0.806664
0.809392
0.809809
0.809004
0.829901
0.827273
0.814954
0.841075
0.806457
0.803593
0.80296
0.794641
0.842973
0.805077
0.830621
0.827534
0.810973
0.809298
0.803771
0.847483
0.870162
0.802674
0.702438
0.803383
0.850646
0.828464
0.810111
0.806859
0.824123
0.852503
0.694965
0.83426
0.807356
0.856013
0.830096
0.81589
0.817604
0.81318
0.806091
0.816842
0.812405
0.632935
0.855907
0.800335
0.826994
0.861901
0.830613
0.777186
0.812769
0.827117
0.827119
0.807949
0.689263
0.814532
0.869718
0.813701
0.802921
0.791292
0.876757
0.802174
0.882287
0.817227
0.828877
0.831711
0.80692
0.807558
0.82647
0.827954
0.80819
0.826574
0.822001
0.886364
0.825406
0.812976
0.803948
0.837782
0.814396
0.844085
0.813214
0.810142
0.817566
0.828467
0.838877
0.826537
0.832926
0.836863
0.81956
0.7391
0.70965
0.82678
0.829374
0.808731
0.826412
0.657421
0.861476
0.802205
0.809295
0.826291
0.826511
0.806279
0.825934
0.80357
0.803878
0.812732
0.82514
0.77651
0.796661
0.833631
0.848115
0.839076
0.803536
0.81698
0.805035
0.817153
0.809659
0.802489
0.802472
0.803269
0.820955
0.803049
0.807239
0.844685
0.836684
0.755652
0.67802
0.812483
0.740956
0.802964
0.6806
0.806992
0.810843
0.807347
0.829704
0.839065
0.826886
0.826969
0.813866
0.807795
0.886612
0.82826
0.809838
0.782742
0.683835
0.81378
0.811632
0.780799
0.827059
0.826884
0.797384
0.805409
0.806372
0.703855
0.83901
0.805337
0.797014
0.788402
0.859705
0.813536
0.807351
0.807301
0.816384
0.814794
0.648858
0.804424
0.848286
0.826901
0.804187
0.655503
0.81927
0.826912
0.827395
0.843115
0.826858
0.806671
0.832795
0.811572
0.627201
0.812296
0.76193
0.803889
0.82683
0.737803
0.827372
0.85127
0.835748
0.691706
0.895158
0.793263
0.79316
0.8027
0.786861
0.81304
0.855175
0.812953
0.805129
0.826824
0.821613
0.790865
0.793269
0.826603
0.813484
0.838844
0.831879
0.839707
0.813709
0.806133
0.8271
0.863763
0.827181
0.823348
0.826837
0.644015
0.801156
0.834039
0.837869
0.872252
0.827011
0.823646
0.648549
0.822624
0.803654
0.825827
0.820359
0.855197
0.826891
0.814889
0.886368
0.778441
0.816638
0.826672
0.821611
0.809163
0.826972
0.684241
0.805002
0.857323
0.837535
0.815697
0.825217
0.826818
0.813163
0.726278
0.824302
0.803978
0.847445
0.829819
0.817109
0.840225
0.806128
0.823514
0.829241
0.814167
0.830596
0.768506
0.85957
0.83032
0.819196
0.826943
0.826729
0.827429
0.82867
0.82686
0.822913
0.849432
0.830003
0.803589
0.829546
0.836578
0.821409
0.818736
0.803617
0.803928
0.82706
0.830398
0.83361
0.826985
0.828066
0.803461
0.82224
0.827086
0.826641
0.804882
0.827224
0.826684
0.808492
0.827172
0.844648
0.805333
0.821866
0.826986
0.632832
0.826869
0.829636
0.826642
0.826827
0.832747
0.838222
0.827623
0.830242
0.723315
0.827084
0.803962
0.8278
0.824247
0.839076
0.832503
0.825105
0.839279
0.835403
0.824519
0.823056
0.825017
0.816541
0.82696
0.827788
0.823871
0.841697
0.826274
0.827842
0.803854
0.827273
0.826831
0.656546
0.685279
0.818432
0.832407
0.805151
0.832919
0.828003
0.84591
0.728751
0.826823
0.751598
0.82772
0.822808
0.826906
0.838495
0.826792
0.810126
0.827209
0.838884
0.844874
0.82634
0.738502
0.823933
0.827952
0.802566
0.803925
0.827604
0.862816
0.826587
0.826846
0.857197
0.837772
0.850744
0.670986
0.838909
0.826833
0.823238
0.829105
0.855851
0.829386
0.73672
0.80251
0.835816
0.803555
0.802541
0.809049
0.76334
0.826834
0.82684
0.752138
0.826769
0.831543
0.826616
0.826526
0.802223
0.829788
0.827238
0.828893
0.812267
0.819813
0.826719
0.689233
0.830432
0.826643
0.827314
0.687254
0.722022
0.637463
0.827588
0.666922
0.859069
0.744739
0.846805
0.826076
0.756743
0.830558
0.827648
0.758481
0.811549
0.829854
0.799797
0.828189
0.827962
0.827893
0.827196
0.82064
0.805559
0.753753
0.841432
0.831083
0.82832
0.801578
0.819661
0.806819
0.828067
0.826547
0.859493
0.829254
0.656686
0.825136
0.830186
0.830102
0.786728
0.819965
0.80995
0.822748
0.850666
0.64204
0.81425
0.802579
0.827571
0.829207
0.829225
0.826223
0.830042
0.82574
0.826571
0.805084
0.82621
0.854254
0.826359
0.797642
0.824397
0.659225
0.724065
0.827067
0.828746
0.805444
0.833134
0.742193
0.803982
0.803785
0.831372
0.672188
0.82925
0.802736
0.827672
0.870168
0.793071
0.832831
0.829551
0.828183
0.8269
0.780399
0.80384
0.826666
0.905825
0.831389
0.828371
0.836292
0.82318
0.873802
0.723566
0.681878
0.856899
0.804292
0.675415
0.854878
0.793531
0.83608
0.730792