# vtk DataFile Version 1.0
unstructured grid
ascii
DATASET UNSTRUCTURED_GRID
points 7812 float
-1 0 0
-1 1 0
2 0 0
2 1 0
0 0 0
1 0 0
-1 1 0.1
-1 0 0.1
0 0 0.1
1 0 0.1
2 0 0.1
2 1 0.1
-0.99 0 0
-0.98 0 0
-0.97 0 0
-0.96 0 0
-0.95 0 0
-0.94 0 0
-0.93 0 0
-0.92 0 0
-0.91 0 0
-0.9 0 0
-0.89 0 0
-0.88 0 0
-0.87 0 0
-0.86 0 0
-0.85 0 0
-0.84 0 0
-0.83 0 0
-0.82 0 0
-0.81 0 0
-0.8 0 0
-0.79 0 0
-0.78 0 0
-0.77 0 0
-0.76 0 0
-0.75 0 0
-0.74 0 0
-0.73 0 0
-0.72 0 0
-0.71 0 0
-0.7 0 0
-0.69 0 0
-0.68 0 0
-0.67 0 0
-0.66 0 0
-0.65 0 0
-0.64 0 0
-0.63 0 0
-0.62 0 0
-0.61 0 0
-0.6 0 0
-0.59 0 0
-0.58 0 0
-0.57 0 0
-0.56 0 0
-0.55 0 0
-0.54 0 0
-0.53 0 0
-0.52 0 0
-0.51 0 0
-0.5 0 0
-0.49 0 0
-0.48 0 0
-0.47 0 0
-0.46 0 0
-0.45 0 0
-0.44 0 0
-0.43 0 0
-0.42 0 0
-0.41 0 0
-0.4 0 0
-0.39 0 0
-0.38 0 0
-0.37 0 0
-0.36 0 0
-0.35 0 0
-0.34 0 0
-0.33 0 0
-0.32 0 0
-0.31 0 0
-0.3 0 0
-0.29 0 0
-0.28 0 0
-0.27 0 0
-0.26 0 0
-0.25 0 0
-0.24 0 0
-0.23 0 0
-0.22 0 0
-0.21 0 0
-0.2 0 0
-0.19 0 0
-0.18 0 0
-0.17 0 0
-0.16 0 0
-0.15 0 0
-0.14 0 0
-0.13 0 0
-0.12 0 0
-0.11 0 0
-0.1 0 0
-0.09 0 0
-0.08 0 0
-0.07 0 0
-0.06 0 0
-0.05 0 0
-0.04 0 0
-0.03 0 0
-0.02 0 0
-0.01 0 0
1.01 0 0
1.02 0 0
1.03 0 0
1.04 0 0
1.05 0 0
1.06 0 0
1.07 0 0
1.08 0 0
1.09 0 0
1.1 0 0
1.11 0 0
1.12 0 0
1.13 0 0
1.14 0 0
1.15 0 0
1.16 0 0
1.17 0 0
1.18 0 0
1.19 0 0
1.2 0 0
1.21 0 0
1.22 0 0
1.23 0 0
1.24 0 0
1.25 0 0
1.26 0 0
1.27 0 0
1.28 0 0
1.29 0 0
1.3 0 0
1.31 0 0
1.32 0 0
1.33 0 0
1.34 0 0
1.35 0 0
1.36 0 0
1.37 0 0
1.38 0 0
1.39 0 0
1.4 0 0
1.41 0 0
1.42 0 0
1.43 0 0
1.44 0 0
1.45 0 0
1.46 0 0
1.47 0 0
1.48 0 0
1.49 0 0
1.5 0 0
1.51 0 0
1.52 0 0
1.53 0 0
1.54 0 0
1.55 0 0
1.56 0 0
1.57 0 0
1.58 0 0
1.59 0 0
1.6 0 0
1.61 0 0
1.62 0 0
1.63 0 0
1.64 0 0
1.65 0 0
1.66 0 0
1.67 0 0
1.68 0 0
1.69 0 0
1.7 0 0
1.71 0 0
1.72 0 0
1.73 0 0
1.74 0 0
1.75 0 0
1.76 0 0
1.77 0 0
1.78 0 0
1.79 0 0
1.8 0 0
1.81 0 0
1.82 0 0
1.83 0 0
1.84 0 0
1.85 0 0
1.86 0 0
1.87 0 0
1.88 0 0
1.89 0 0
1.9 0 0
1.91 0 0
1.92 0 0
1.93 0 0
1.94 0 0
1.95 0 0
1.96 0 0
1.97 0 0
1.98 0 0
1.99 0 0
2 0.010289 0
2 0.0215307 0
2 0.0338135 0
2 0.0472336 0
2 0.0618965 0
2 0.0779171 0
2 0.0954213 0
2 0.114546 0
2 0.135442 0
2 0.158274 0
2 0.183219 0
2 0.210474 0
2 0.240253 0
2 0.27279 0
2 0.308339 0
2 0.347181 0
2 0.389619 0
2 0.435987 0
2 0.486649 0
2 0.542002 0
2 0.602481 0
2 0.66856 0
2 0.740758 0
2 0.819642 0
2 0.90583 0
1.9 1 0
1.8 1 0
1.7 1 0
1.6 1 0
1.5 1 0
1.4 1 0
1.3 1 0
1.2 1 0
1.1 1 0
1 1 0
0.9 1 0
0.8 1 0
0.7 1 0
0.6 1 0
0.5 1 0
0.4 1 0
0.3 1 0
0.2 1 0
0.1 1 0
3.69793e-12 1 0
-0.1 1 0
-0.2 1 0
-0.3 1 0
-0.4 1 0
-0.5 1 0
-0.6 1 0
-0.7 1 0
-0.8 1 0
-0.9 1 0
-1 0.90583 0
-1 0.819642 0
-1 0.740758 0
-1 0.66856 0
-1 0.602481 0
-1 0.542002 0
-1 0.486649 0
-1 0.435987 0
-1 0.389619 0
-1 0.347181 0
-1 0.308339 0
-1 0.27279 0
-1 0.240253 0
-1 0.210474 0
-1 0.183219 0
-1 0.158274 0
-1 0.135442 0
-1 0.114546 0
-1 0.0954213 0
-1 0.0779171 0
-1 0.0618965 0
-1 0.0472336 0
-1 0.0338135 0
-1 0.0215307 0
-1 0.010289 0
0.00921362 0.00379763 0
0.0184561 0.00752451 0
0.0277268 0.0111804 0
0.0370253 0.0147652 0
0.0463511 0.0182786 0
0.0557034 0.0217203 0
0.0650819 0.0250903 0
0.074486 0.0283883 0
0.083915 0.0316141 0
0.0933685 0.0347675 0
0.102846 0.0378484 0
0.112347 0.0408565 0
0.12187 0.0437917 0
0.131416 0.0466538 0
0.140983 0.0494427 0
0.150572 0.0521581 0
0.160181 0.0547999 0
0.16981 0.0573681 0
0.179458 0.0598623 0
0.189125 0.0622825 0
0.198811 0.0646285 0
0.208514 0.0669001 0
0.218234 0.0690974 0
0.227971 0.07122 0
0.237724 0.073268 0
0.247493 0.0752411 0
0.257276 0.0771393 0
0.267073 0.0789625 0
0.276884 0.0807105 0
0.286708 0.0823832 0
0.296545 0.0839806 0
0.306394 0.0855025 0
0.316254 0.0869488 0
0.326125 0.0883196 0
0.336006 0.0896146 0
0.345896 0.0908339 0
0.355796 0.0919773 0
0.365704 0.0930447 0
0.375621 0.0940362 0
0.385544 0.0949517 0
0.395474 0.095791 0
0.40541 0.0965542 0
0.415352 0.0972412 0
0.425299 0.097852 0
0.43525 0.0983865 0
0.445205 0.0988447 0
0.455164 0.0992266 0
0.465125 0.0995321 0
0.475088 0.0997613 0
0.485052 0.0999141 0
0.495017 0.0999904 0
0.504983 0.0999904 0
0.514948 0.0999141 0
0.524912 0.0997613 0
0.534875 0.0995321 0
0.544836 0.0992266 0
0.554795 0.0988447 0
0.56475 0.0983865 0
0.574701 0.097852 0
0.584648 0.0972412 0
0.59459 0.0965542 0
0.604526 0.095791 0
0.614456 0.0949517 0
0.624379 0.0940362 0
0.634296 0.0930447 0
0.644204 0.0919773 0
0.654104 0.0908339 0
0.663994 0.0896146 0
0.673875 0.0883196 0
0.683746 0.0869488 0
0.693606 0.0855025 0
0.703455 0.0839806 0
0.713292 0.0823832 0
0.723116 0.0807105 0
0.732927 0.0789625 0
0.742724 0.0771393 0
0.752508 0.0752411 0
0.762276 0.073268 0
0.772029 0.07122 0
0.781766 0.0690974 0
0.791486 0.0669001 0
0.801189 0.0646285 0
0.810875 0.0622825 0
0.820542 0.0598623 0
0.83019 0.0573681 0
0.839819 0.0547999 0
0.849428 0.0521581 0
0.859017 0.0494427 0
0.868584 0.0466538 0
0.87813 0.0437917 0
0.887653 0.0408565 0
0.897154 0.0378484 0
0.906631 0.0347675 0
0.916085 0.0316141 0
0.925514 0.0283883 0
0.934918 0.0250903 0
0.944297 0.0217203 0
0.953649 0.0182786 0
0.962975 0.0147652 0
0.972273 0.0111804 0
0.981544 0.00752451 0
0.990786 0.00379763 0
-1 0.90583 0.1
-1 0.819642 0.1
-1 0.740758 0.1
-1 0.66856 0.1
-1 0.602481 0.1
-1 0.542002 0.1
-1 0.486649 0.1
-1 0.435987 0.1
-1 0.389619 0.1
-1 0.347181 0.1
-1 0.308339 0.1
-1 0.27279 0.1
-1 0.240253 0.1
-1 0.210474 0.1
-1 0.183219 0.1
-1 0.158274 0.1
-1 0.135442 0.1
-1 0.114546 0.1
-1 0.0954213 0.1
-1 0.0779171 0.1
-1 0.0618965 0.1
-1 0.0472336 0.1
-1 0.0338135 0.1
-1 0.0215307 0.1
-1 0.010289 0.1
-0.99 0 0.1
-0.98 0 0.1
-0.97 0 0.1
-0.96 0 0.1
-0.95 0 0.1
-0.94 0 0.1
-0.93 0 0.1
-0.92 0 0.1
-0.91 0 0.1
-0.9 0 0.1
-0.89 0 0.1
-0.88 0 0.1
-0.87 0 0.1
-0.86 0 0.1
-0.85 0 0.1
-0.84 0 0.1
-0.83 0 0.1
-0.82 0 0.1
-0.81 0 0.1
-0.8 0 0.1
-0.79 0 0.1
-0.78 0 0.1
-0.77 0 0.1
-0.76 0 0.1
-0.75 0 0.1
-0.74 0 0.1
-0.73 0 0.1
-0.72 0 0.1
-0.71 0 0.1
-0.7 0 0.1
-0.69 0 0.1
-0.68 0 0.1
-0.67 0 0.1
-0.66 0 0.1
-0.65 0 0.1
-0.64 0 0.1
-0.63 0 0.1
-0.62 0 0.1
-0.61 0 0.1
-0.6 0 0.1
-0.59 0 0.1
-0.58 0 0.1
-0.57 0 0.1
-0.56 0 0.1
-0.55 0 0.1
-0.54 0 0.1
-0.53 0 0.1
-0.52 0 0.1
-0.51 0 0.1
-0.5 0 0.1
-0.49 0 0.1
-0.48 0 0.1
-0.47 0 0.1
-0.46 0 0.1
-0.45 0 0.1
-0.44 0 0.1
-0.43 0 0.1
-0.42 0 0.1
-0.41 0 0.1
-0.4 0 0.1
-0.39 0 0.1
-0.38 0 0.1
-0.37 0 0.1
-0.36 0 0.1
-0.35 0 0.1
-0.34 0 0.1
-0.33 0 0.1
-0.32 0 0.1
-0.31 0 0.1
-0.3 0 0.1
-0.29 0 0.1
-0.28 0 0.1
-0.27 0 0.1
-0.26 0 0.1
-0.25 0 0.1
-0.24 0 0.1
-0.23 0 0.1
-0.22 0 0.1
-0.21 0 0.1
-0.2 0 0.1
-0.19 0 0.1
-0.18 0 0.1
-0.17 0 0.1
-0.16 0 0.1
-0.15 0 0.1
-0.14 0 0.1
-0.13 0 0.1
-0.12 0 0.1
-0.11 0 0.1
-0.1 0 0.1
-0.09 0 0.1
-0.08 0 0.1
-0.07 0 0.1
-0.06 0 0.1
-0.05 0 0.1
-0.04 0 0.1
-0.03 0 0.1
-0.02 0 0.1
-0.01 0 0.1
0.00921362 0.00379763 0.1
0.0184561 0.00752451 0.1
0.0277268 0.0111804 0.1
0.0370253 0.0147652 0.1
0.0463511 0.0182786 0.1
0.0557034 0.0217203 0.1
0.0650819 0.0250903 0.1
0.074486 0.0283883 0.1
0.083915 0.0316141 0.1
0.0933685 0.0347675 0.1
0.102846 0.0378484 0.1
0.112347 0.0408565 0.1
0.12187 0.0437917 0.1
0.131416 0.0466538 0.1
0.140983 0.0494427 0.1
0.150572 0.0521581 0.1
0.160181 0.0547999 0.1
0.16981 0.0573681 0.1
0.179458 0.0598623 0.1
0.189125 0.0622825 0.1
0.198811 0.0646285 0.1
0.208514 0.0669001 0.1
0.218234 0.0690974 0.1
0.227971 0.07122 0.1
0.237724 0.073268 0.1
0.247493 0.0752411 0.1
0.257276 0.0771393 0.1
0.267073 0.0789625 0.1
0.276884 0.0807105 0.1
0.286708 0.0823832 0.1
0.296545 0.0839806 0.1
0.306394 0.0855025 0.1
0.316254 0.0869488 0.1
0.326125 0.0883196 0.1
0.336006 0.0896146 0.1
0.345896 0.0908339 0.1
0.355796 0.0919773 0.1
0.365704 0.0930447 0.1
0.375621 0.0940362 0.1
0.385544 0.0949517 0.1
0.395474 0.095791 0.1
0.40541 0.0965542 0.1
0.415352 0.0972412 0.1
0.425299 0.097852 0.1
0.43525 0.0983865 0.1
0.445205 0.0988447 0.1
0.455164 0.0992266 0.1
0.465125 0.0995321 0.1
0.475088 0.0997613 0.1
0.485052 0.0999141 0.1
0.495017 0.0999904 0.1
0.504983 0.0999904 0.1
0.514948 0.0999141 0.1
0.524912 0.0997613 0.1
0.534875 0.0995321 0.1
0.544836 0.0992266 0.1
0.554795 0.0988447 0.1
0.56475 0.0983865 0.1
0.574701 0.097852 0.1
0.584648 0.0972412 0.1
0.59459 0.0965542 0.1
0.604526 0.095791 0.1
0.614456 0.0949517 0.1
0.624379 0.0940362 0.1
0.634296 0.0930447 0.1
0.644204 0.0919773 0.1
0.654104 0.0908339 0.1
0.663994 0.0896146 0.1
0.673875 0.0883196 0.1
0.683746 0.0869488 0.1
0.693606 0.0855025 0.1
0.703455 0.0839806 0.1
0.713292 0.0823832 0.1
0.723116 0.0807105 0.1
0.732927 0.0789625 0.1
0.742724 0.0771393 0.1
0.752508 0.0752411 0.1
0.762276 0.073268 0.1
0.772029 0.07122 0.1
0.781766 0.0690974 0.1
0.791486 0.0669001 0.1
0.801189 0.0646285 0.1
0.810875 0.0622825 0.1
0.820542 0.0598623 0.1
0.83019 0.0573681 0.1
0.839819 0.0547999 0.1
0.849428 0.0521581 0.1
0.859017 0.0494427 0.1
0.868584 0.0466538 0.1
0.87813 0.0437917 0.1
0.887653 0.0408565 0.1
0.897154 0.0378484 0.1
0.906631 0.0347675 0.1
0.916085 0.0316141 0.1
0.925514 0.0283883 0.1
0.934918 0.0250903 0.1
0.944297 0.0217203 0.1
0.953649 0.0182786 0.1
0.962975 0.0147652 0.1
0.972273 0.0111804 0.1
0.981544 0.00752451 0.1
0.990786 0.00379763 0.1
1.01 0 0.1
1.02 0 0.1
1.03 0 0.1
1.04 0 0.1
1.05 0 0.1
1.06 0 0.1
1.07 0 0.1
1.08 0 0.1
1.09 0 0.1
1.1 0 0.1
1.11 0 0.1
1.12 0 0.1
1.13 0 0.1
1.14 0 0.1
1.15 0 0.1
1.16 0 0.1
1.17 0 0.1
1.18 0 0.1
1.19 0 0.1
1.2 0 0.1
1.21 0 0.1
1.22 0 0.1
1.23 0 0.1
1.24 0 0.1
1.25 0 0.1
1.26 0 0.1
1.27 0 0.1
1.28 0 0.1
1.29 0 0.1
1.3 0 0.1
1.31 0 0.1
1.32 0 0.1
1.33 0 0.1
1.34 0 0.1
1.35 0 0.1
1.36 0 0.1
1.37 0 0.1
1.38 0 0.1
1.39 0 0.1
1.4 0 0.1
1.41 0 0.1
1.42 0 0.1
1.43 0 0.1
1.44 0 0.1
1.45 0 0.1
1.46 0 0.1
1.47 0 0.1
1.48 0 0.1
1.49 0 0.1
1.5 0 0.1
1.51 0 0.1
1.52 0 0.1
1.53 0 0.1
1.54 0 0.1
1.55 0 0.1
1.56 0 0.1
1.57 0 0.1
1.58 0 0.1
1.59 0 0.1
1.6 0 0.1
1.61 0 0.1
1.62 0 0.1
1.63 0 0.1
1.64 0 0.1
1.65 0 0.1
1.66 0 0.1
1.67 0 0.1
1.68 0 0.1
1.69 0 0.1
1.7 0 0.1
1.71 0 0.1
1.72 0 0.1
1.73 0 0.1
1.74 0 0.1
1.75 0 0.1
1.76 0 0.1
1.77 0 0.1
1.78 0 0.1
1.79 0 0.1
1.8 0 0.1
1.81 0 0.1
1.82 0 0.1
1.83 0 0.1
1.84 0 0.1
1.85 0 0.1
1.86 0 0.1
1.87 0 0.1
1.88 0 0.1
[...]
CELL_DATA 7425
SCALARS rho float
LOOKUP_TABLE default
0.76572
0.800765
0.914254
0.905226
0.801557
0.910244
0.887407
0.927229
0.933869
0.835005
0.897817
0.800563
0.928455
0.905122
0.799962
0.918485
0.802899
0.932059
0.802165
0.788496
0.905239
0.805536
0.828089
0.906645
0.801547
0.811222
0.903523
0.823648
0.799809
0.800203
0.88763
0.77012
0.80204
0.793533
0.749128
0.906652
0.801761
0.927473
0.800873
0.89974
0.819016
0.78481
0.860802
0.751998
0.768644
0.784429
0.880316
0.928696
0.77415
0.760372
0.771893
0.800555
0.800836
0.802525
0.758103
0.746122
0.910311
0.803154
0.83545
0.815155
0.803702
0.799796
0.932221
0.802617
0.799857
0.917145
0.765213
0.852304
0.746112
0.80024
0.800163
0.803387
0.907405
0.805037
0.801274
0.933777
0.800662
0.800382
0.932024
0.777167
0.92134
0.799756
0.926974
0.79137
0.887971
0.801089
0.759501
0.898311
0.755236
0.901764
0.755886
0.830332
0.821786
0.80268
0.917499
0.846542
0.814059
0.793747
0.908148
0.799931
0.909082
0.768417
0.801877
0.900613
0.768753
0.800794
0.903257
0.8164
0.924266
0.80205
0.917744
0.789026
0.791872
0.800847
0.860965
0.793548
0.903118
0.803465
0.752197
0.765735
0.800478
0.854183
0.934103
0.793285
0.904848
0.816518
0.800131
0.870304
0.795288
0.743407
0.924404
0.793204
0.747935
0.835263
0.772635
0.801455
0.800245
0.825612
0.761665
0.787242
0.823208
0.80057
0.928156
0.756525
0.800499
0.786582
0.755699
0.878374
0.788683
0.906959
0.883187
0.757531
0.800094
0.770675
0.754462
0.801348
0.800659
0.905682
0.866909
0.789037
0.802156
0.752723
0.801004
0.905887
0.91254
0.803513
0.933349
0.857872
0.798574
0.80102
0.913991
0.799653
0.882136
0.802109
0.803128
0.792315
0.799875
0.84705
0.772042
0.752564
0.801919
0.870334
0.906115
0.898254
0.756602
0.910323
0.802622
0.809474
0.80193
0.930432
0.93531
0.802561
0.798675
0.754078
0.923984
0.910901
0.789124
0.87432
0.829997
0.800191
0.801209
0.932032
0.775023
0.816578
0.757848
0.752182
0.767712
0.773294
0.809627
0.906758
0.800031
0.799985
0.886684
0.934566
0.917301
0.912208
0.923282
0.784322
0.761103
0.929307
0.755996
0.770436
0.75405
0.917016
0.925885
0.933793
0.90282
0.935856
0.832434
0.759115
0.813359
0.806139
0.797988
0.801625
0.803177
0.821717
0.785402
0.776515
0.757687
0.905835
0.839741
0.913672
0.800063
0.882322
0.801135
0.787895
0.911693
0.800783
0.906246
0.795256
0.929478
0.761608
0.935502
0.909512
0.7952
0.74818
0.802905
0.766981
0.818047
0.924756
0.770997
0.9217
0.924784
0.891829
0.924692
0.799273
0.80272
0.90811
0.90526
0.799724
0.776426
0.901413
0.801526
0.800445
0.90581
0.890928
0.931325
0.906991
0.793976
0.924008
0.833889
0.891186
0.809154
0.903838
0.802137
0.918516
0.80331
0.778161
0.811131
0.761752
0.752435
0.888523
0.933955
0.921309
0.826418
0.790819
0.787815
0.907239
0.750441
0.85328
0.801125
0.788663
0.747651
0.784713
0.923665
0.932161
0.934551
0.92752
0.907423
0.784128
0.800476
0.800636
0.935925
0.903252
0.834936
0.902368
0.801623
0.754339
0.867005
0.887145
0.811566
0.802629
0.803377
0.903244
0.918737
0.765701
0.930393
0.795446
0.8249
0.829315
0.926703
0.918888
0.801152
0.794693
0.795176
0.783756
0.759399
0.868567
0.90628
0.924241
0.929482
0.844001
0.827835
0.801519
0.865996
0.807693
0.833066
0.796653
0.9099
0.802622
0.799442
0.800976
0.803437
0.930999
0.921994
0.919859
0.786801
0.810612
0.786545
0.801005
0.78724
0.886357
0.803421
0.81637
0.822358
0.802926
0.909735
0.918407
0.802804
0.803518
0.801493
0.794944
0.806861
0.933323
0.931005
0.802013
0.778141
0.753716
0.799715
0.931196
0.80284
0.93551
0.794295
0.748554
0.81988
0.930728
0.801633
0.858735
0.931993
0.800147
0.800528
0.920625
0.79994
0.91004
0.791184
0.875041
0.800132
0.756405
0.799772
0.785366
0.886045
0.784363
0.922375
0.909613
0.772317
0.803926
0.839846
0.799727
0.902246
0.75385
0.908628
0.91092
0.801489
0.907988
0.800937
0.909741
0.905446
0.906638
0.793254
0.906912
0.779171
0.800764
0.795694
0.864578
0.843884
0.800429
0.803101
0.911608
0.841291
0.80031
0.771637
0.776429
0.803277
0.931446
0.90094
0.906177
0.899353
0.802506
0.935198
0.800152
0.900793
0.806387
0.801577
0.784384
0.878451
0.919572
0.799407
0.76048
0.828167
0.7511
0.771261
0.801004
0.773426
0.874357
0.780148
0.791257
0.76998
0.84622
0.850879
0.92624
0.924513
0.914151
0.932102
0.815037
0.774621
0.901111
0.906241
0.791729
0.800721
0.801644
0.903935
0.799688
0.904217
0.779192
0.800112
0.849851
0.91841
0.7551
0.802577
0.903285
0.801886
0.929048
0.924863
0.801607
0.868798
0.890009
0.802945
0.903399
0.775781
0.7562
0.803228
0.866511
0.91025
0.817046
0.903397
0.800371
0.919636
0.802861
0.790852
0.800228
0.766204
0.804507
0.782522
0.926842
0.868063
0.9055
0.840221
0.800264
0.924985
0.912408
0.802215
0.822733
0.891739
0.802607
0.802986
0.794579
0.929835
0.910157
0.81618
0.931226
0.908326
0.896916
0.898621
0.836558
0.77008
0.886391
0.800014
0.888028
0.926903
0.806561
0.930341
0.928919
0.767031
0.799353
0.897108
0.935684
0.862168
0.872664
0.799776
0.830354
0.802495
0.935657
0.924972
0.907679
0.768284
0.930177
0.818667
0.907998
0.748808
0.919863
0.810628
0.796543
0.802256
0.865216
0.906
0.882418
0.905235
0.801882
0.778341
0.802964
0.801312
0.804064
0.892842
0.780674
0.796374
0.927098
0.932399
0.82942
0.796806
0.892501
0.904084
0.872899
0.807782
0.81839
0.801508
0.800974
0.799956
0.800509
0.910336
0.803419
0.900308
0.782127
0.800577
0.801964
0.882277
0.825112
0.935174
0.916168
0.842185
0.929818
0.894394
0.809663
0.907164
0.801205
0.802625
0.891321
0.782391
0.808425
0.90085
0.799976
0.744903
0.933663
0.906633
0.892101
0.918436
0.803367
0.800837
0.897477
0.787385
0.800767
0.80138
0.935065
0.800138
0.800778
0.810455
0.800013
0.795606
0.887202
0.903109
0.799887
0.889485
0.803116
0.909202
0.928421
0.801379
0.887253
0.933572
0.803941
0.915441
0.799748
0.928451
0.918063
0.802881
0.901332
0.803316
0.802762
0.920506
0.802639
0.80204
0.789683
0.772407
0.913718
0.9353
0.844079
0.879879
0.908518
0.801153
0.910873
0.800145
0.907949
0.903558
0.905429
0.767799
0.819703
0.90318
0.918115
0.899674
0.922499
0.898684
0.800046
0.876
0.802469
0.900757
0.90493
0.903594
0.829265
0.927626
0.906616
0.772795
0.803969
0.784945
0.803252
0.830777
0.920823
0.905471
0.806302
0.831271
0.92543
0.931677
0.921487
0.923281
0.894879
0.800981
0.802901
0.800113
0.833017
0.932438
0.784992
0.89764
0.801879
0.785127
0.790174
0.801166
0.802689
0.914029
0.799994
0.923309
0.918105
0.80017
0.912682
0.800708
0.799643
0.772516
0.903444
0.907325
0.907474
0.802837
0.801488
0.815976
0.79943
0.919584
0.925231
0.800047
0.928923
0.791646
0.79993
0.925581
0.912025
0.801954
0.932061
0.920648
0.747783
0.857915
0.849621
0.932356
0.800104
0.80011
0.778597
0.799648
0.800106
0.817751
0.815506
0.917998
0.801131
0.80013
0.803138
0.915929
0.883365
0.931798
0.9356
0.819755
0.896468
0.796517
0.799961
0.818111
0.804124
0.919163
0.802046
0.775083
0.902849
0.870212
0.910757
0.793127
0.799458
0.912536
0.778837
0.904154
0.784969
0.907659
0.817398
0.903147
0.899551
0.904654
0.793902
0.802637
0.912866
0.814925
0.814983
0.901011
0.913905
0.918843
0.887677
0.797611
0.800276
0.802903
0.810013
0.800454
0.76031
0.89585
0.75094
0.800788
0.829824
0.800479
0.786129
0.79517
0.927606
0.754806
0.790647
0.913166
0.891571
0.916515
0.762652
0.798068
0.800738
0.799844
0.935212
0.801453
0.833286
0.925806
0.922024
0.934614
0.853428
0.80267
0.800996
0.799237
0.754649
0.935431
0.812526
0.766244
0.92361
0.920987
0.924974
0.916189
0.925389
0.908034
0.801619
0.798519
0.785205
0.806368
0.810069
0.807544
0.815895
0.792475
0.924328
0.814703
0.783063
0.800426
0.912306
0.931052
0.801388
0.828604
0.935066
0.897123
0.926368
0.918938
0.92334
0.903738
0.925874
0.933868
0.800847
0.928578
0.800306
0.911104
0.801575
0.910506
0.930619
0.765529
0.930352
0.904326
0.828078
0.815359
0.74311
0.918893
0.87308
0.742009
0.798096
0.784707
0.896501
0.875159
0.800607
0.931962
0.803478
0.919265
0.80093
0.751833
0.804273
0.80387
0.800142
0.92127
0.802158
0.800588
0.930791
0.908552
0.803145
0.801585
0.827899
0.803434
0.801998
0.927996
0.844922
0.742068
0.904614
0.801919
0.771788
0.803414
0.799363
0.770368
0.81032
0.921666
0.906862
0.915464
0.808897
0.80085
0.800101
0.787481
0.755361
0.908353
0.800246
0.788813
0.933828
0.861241
0.917018
0.902723
0.847008
0.911677
0.924951
0.906511
0.911277
0.925059
0.92928
0.798107
0.801497
0.807847
0.906526
0.802864
0.800777
0.802967
0.791381
0.904135
0.90977
0.88714
0.911661
0.77957
0.785889
0.799528
0.912323
0.803388
0.800243
0.797449
0.858126
0.923724
0.792636
0.806072
0.797802
0.926509
0.798135
0.770049
0.877648
0.900528
0.835782
0.796776
0.843075
0.842743
0.801876
0.935758
0.846692
0.800557
0.926575
0.801124
0.765272
0.805522
0.866412
0.900285
0.925626
0.902865
0.791141
0.799699
0.81816
0.809395
0.802039
0.903955
0.746498
0.815638
0.935214
0.837619
0.911044
0.85162
0.935626
0.803027
0.878751
0.841127
0.797895
0.847982
0.921326
0.80354
0.781396
0.786663
0.800736
0.822831
0.926289
0.906391
0.75083
0.807232
0.789338
0.904681
0.801082
0.803903
0.800559
0.86009
0.802774
0.901186
0.885087
0.805942
0.915847
0.755529
0.854424
0.908168
0.800357
0.930966
0.800696
0.756783
0.863509
0.800615
0.801009
0.810714
0.89156
0.905074
0.930604
0.801804
0.800061
0.801195
0.792379
0.775118
0.894886
0.827915
0.796349
0.904959
0.80301
0.787484
0.801871
0.842435
0.791632
0.934498
0.808322
0.879876
0.918843
0.895026
0.876534
0.931082
0.877633
0.821276
0.815258
0.785217
0.906075
0.906239
0.874107
0.816905
0.900751
0.898
0.797351
0.901781
0.902328
0.896212
0.936071
0.890785
0.829684
0.918474
0.799783
0.799751
0.746008
0.934367
0.788904
0.931602
0.801327
0.80223
0.754965
0.931348
0.773548
0.807685
0.800631
0.877254
0.904112
0.802235
0.796517
0.912413
0.925578
0.800215
0.788769
0.746147
0.910909
0.798964
0.810669
0.907073
0.902929
0.800106
0.894032
0.823161
0.745924
0.910986
0.881286
0.922178
0.800258
0.757814
0.802768
0.801618
0.923994
0.82801
0.788319
0.907054
0.821468
0.903654
0.92865
0.904508
0.902325
0.882629
0.800906
0.928017
0.892654
0.834815
0.901207
0.92774
0.756853
0.799719
0.777609
0.903691
0.846185
0.800498
0.801194
0.802566
0.80312
0.924154
0.935683
0.826323
0.799793
0.803625
0.802634
0.802145
0.935282
0.919115
0.80363
0.935583
0.903546
0.803599
0.858244
0.803597
0.816801
0.814828
0.929622
0.926983
0.76432
0.821821
0.797937
0.90571
0.79913
0.746126
0.827358
0.925432
0.812906
0.800575
0.802753
0.803493
0.864058
0.764193
0.797829
0.920978
0.81384
0.913061
0.934818
0.894849
0.793503
0.797014
0.852763
0.792534
0.802323
0.796621
0.774644
0.801622
0.802858
0.925912
0.889418
0.822634
0.756753
0.903412
0.936117
0.804842
0.800895
0.80584
0.934478
0.91454
0.865903
0.834219
0.798411
0.846295
0.8969
0.799892
0.801309
0.904208
0.796448
0.788147
0.802374
0.801641
0.747666
0.792255
0.801605
0.908181
0.933872
0.910597
0.784949
0.886256
0.932554
0.907722
0.903746
0.800745
0.936146
0.842887
0.799755
0.920169
0.934715
0.80455
0.758949
0.936189
0.789438
0.826754
0.755027
0.90229
0.801859
0.752203
0.769205
0.883319
0.919904
0.916037
0.792041
0.926052
0.860722
0.800972
0.790043
0.805896
0.901336
0.792656
0.907968
0.895292
0.767003
0.916514
0.849277
0.918085
0.752391
0.910315
0.866225
0.927051
0.801172
0.796578
0.88984
0.871821
0.799851
0.742014
0.918904
0.802048
0.824725
0.757608
0.918482
0.76935
0.809896
0.801362
0.86871
0.824012
0.820957
0.761987
0.746852
0.76865
0.800903
0.749421
0.910639
0.753988
0.844365
0.799173
0.772003
0.755379
0.837594
0.803234
0.762692
0.912024
0.80285
0.800777
0.846288
0.912968
0.802198
0.907897
0.801973
0.935507
0.818374
0.800115
0.833392
0.911305
0.91183
0.896118
0.83854
0.909245
0.850868
0.905594
0.801281
0.845318
0.903606
0.855177
0.801539
0.799527
0.844363
0.835085
0.775491
0.800675
0.803055
0.912028
0.903056
0.773766
0.800112
0.754216
0.800311
0.77734
0.804675
0.911535
0.922674
0.800775
0.775049
0.901815
0.803657
0.803651
0.905681
0.935711
0.792841
0.935424
0.803636
0.916981
0.803611
0.823731
0.800454
0.789912
0.802841
0.887563
0.803541
0.784346
0.883923
0.874802
0.775555
0.804215
0.756261
0.760379
0.799644
0.813328
0.828693
0.758897
0.824875
0.929526
0.758069
0.790002
0.761345
0.87276
0.801585
0.846256
0.800104
0.919977
0.793007
0.803515
0.914864
0.794784
0.919338
0.769781
0.811554
0.897786
0.934929
0.926548
0.89688
0.931819
0.798098
0.799237
0.802469
0.820821
0.760918
0.776267
0.854056
0.755353
0.765081
0.923297
0.923847
0.799793
0.801848
0.756025
0.920958
0.800999
0.757173
0.755759
0.839137
0.800946
0.892925
0.754935
0.796055
0.761016
0.81017
0.772981
0.803494
0.800899
0.769715
0.773513
0.905305
0.800652
0.848336
0.821309
0.78044
0.792347
0.760171
0.917251
0.845331
0.782573
0.779868
0.842082
0.919368
0.922152
0.934944
0.922742
0.832632
0.842511
0.913693
0.797517
0.899332
0.93604
0.803301
0.932242
0.765691
0.912807
0.913909
0.916932
0.915339
0.916236
0.802652
0.914549
0.916572
0.917892
0.915059
0.800649
0.915619
0.914845
0.799772
0.915195
0.906457
0.915636
0.796092
0.788043
0.904348
0.915471
0.908603
0.802001
0.934229
0.777756
0.903832
0.76327
0.818689
0.799907
0.922032
0.800607
0.802407
0.904983
0.799589
0.800139
0.923374
0.856111
0.903452
0.90067
0.89576
0.796748
0.775539
0.92164
0.916584
0.878919
0.903441
0.898324
0.801091
0.914729
0.856029
0.924366
0.91537
0.925116
0.91534
0.802014
0.921669
0.903326
0.921329
0.917681
0.917701
0.916116
0.794856
0.916321
0.799753
0.799332
0.799878
0.915792
0.933752
0.862699
0.776819
0.929985
0.800014
0.922406
0.800153
0.897456
0.800271
0.92355
0.933727
0.799976
0.74455
0.801555
0.934136
0.802864
0.800453
0.934476
0.930386
0.933154
0.800323
0.899909
0.744941
0.934763
0.899471
0.933288
0.802167
0.80026
0.924273
0.903185
0.801264
0.799865
0.872733
0.749175
0.935021
0.800256
0.799989
0.931182
0.933525
0.932888
0.931307
0.747688
0.802525
0.791691
0.91036
0.906574
0.768564
0.768848
0.923077
0.798714
0.804537
0.789139
0.802541
0.931505
0.789324
0.801657
0.801117
0.803126
0.869604
0.904263
0.800128
0.772313
0.802127
0.785492
0.80019
0.912453
0.874266
0.802137
0.804674
0.882151
0.931098
0.910834
0.900753
0.783719
0.880732
0.793358
0.928908
0.929243
0.759145
0.92963
0.894266
0.758723
0.902564
0.776092
0.905034
0.789233
0.926752
0.934987
0.930019
0.798895
0.929677
0.781658
0.802834
0.793622
0.908972
0.923749
0.777699
0.781612
0.905674
0.930761
0.877439
0.911207
0.930855
0.908232
0.802597
0.754549
0.779847
0.79207
0.768938
0.90368
0.806827
0.813458
0.863983
0.801757
0.933959
0.934912
0.934741
0.792065
0.758258
0.802278
0.753691
0.879324
0.807888
0.802003
0.801112
0.80198
0.798299
0.860741
0.778952
0.931096
0.899756
0.888141
0.802838
0.773275
0.801969
0.794696
0.88324
0.747505
0.797517
0.908702
0.802739
0.765787
0.932571
0.900048
0.827799
0.758086
0.800165
0.802636
0.92954
0.77745
0.932871
0.802741
0.802516
0.801926
0.932316
0.931753
0.918129
0.933794
0.763241
0.801059
0.802926
0.934433
0.914663
0.932589
0.853175
0.817453
0.800847
0.803335
0.770422
0.934778
0.802412
0.808632
0.797774
0.906199
0.892106
0.825175
0.801288
0.911719
0.791088
0.757165
0.841428
0.875799
0.904792
0.801477
0.927481
0.756496
0.897166
0.827978
0.853319
0.78362
0.768655
0.801585
0.821789
0.934559
0.801964
0.934565
0.800787
0.764126
0.801047
0.802822
0.780943
0.907392
0.910157
0.89673
0.919582
0.934754
0.755081
0.799952
0.934777
0.802154
0.852315
0.80342
0.803245
0.930336
0.907293
0.795963
0.800457
0.802519
0.899264
0.901598
0.800183
0.803078
0.800068
0.783601
0.913667
0.760388
0.900604
0.801783
0.752632
0.80028
0.872469
0.805101
0.770026
0.773067
0.8013
0.799758
0.801408
0.898023
0.787027
0.905782
0.801281
0.833279
0.80077
0.801038
0.883913
0.907708
0.805495
0.910223
0.911445
0.900613
0.829651
0.895581
0.916548
0.793045
0.800839
0.800835
0.800489
0.912032
0.907795
0.800386
0.801426
0.802094
0.910454
0.800656
0.801837
0.802172
0.90891
0.801538
0.802642
0.799909
0.904345
0.800537
0.801209
0.807936
0.802928
0.923076
0.792501
0.907554
0.897742
0.80027
0.914318
0.802181
0.90626
0.903425
0.802488
0.911013
0.802933
0.800009
0.792688
0.802612
0.80073
0.800165
0.800106
0.799914
0.914109
0.925141
0.800773
0.905095
0.800175
0.80324
0.802195
0.791489
0.901452
0.802245
0.914522
0.92352
0.800147
0.800001
0.803522
0.900058
0.832446
0.802216
0.806082
0.802757
0.903029
0.919349
0.799683
0.801127
0.804716
0.898925
0.773369
0.810483
0.873913
0.824528
0.914508
0.801068
0.801696
0.800254
0.801628
0.80143
0.800272
0.766546
0.903066
0.794182
0.927343
0.90372
0.914713
0.847425
0.800306
0.926264
0.914666
0.797801
0.797448
0.800538
0.905228
0.8705
0.802925
0.857971
0.903506
0.803338
0.906772
0.870836
0.917829
0.912764
0.799716
0.800418
0.932804
0.921216
0.799756
0.929961
0.803669
0.909357
0.806782
0.799853
0.8011
0.896159
0.800025
0.816333
0.800355
0.799997
0.801611
0.919975
0.891942
0.927446
0.90353
0.811858
0.802478
0.807993
0.766577
0.932592
0.91733
0.799585
0.930036
0.751194
0.895942
0.80294
0.800053
0.922505
0.928518
0.801456
0.930475
0.801979
0.802247
0.800237
0.886742
0.844951
0.858363
0.90955
0.819973
0.81316
0.801805
0.8921
0.802379
0.800915
0.800119
0.802452
0.802685
0.802775
0.872091
0.795543
0.799924
0.90375
0.811947
0.789831
0.750614
0.798931
0.79985
0.801735
0.767247
0.801054
0.800162
0.800093
0.916564
0.813368
0.928382
0.934188
0.800496
0.798036
0.910159
0.92064
0.799602
0.789994
0.770839
0.800411
0.799911
0.790137
0.926076
0.92875
0.795243
0.796489
0.801374
0.772825
0.886538
0.802121
0.867763
0.792527
0.898158
0.800249
0.799911
0.799711
0.802178
0.800749
0.750719
0.801988
0.903394
0.928527
0.795361
0.770088
0.80237
0.927571
0.935568
0.9042
0.928239
0.801113
0.911396
0.799775
0.762291
0.8003
0.831636
0.795989
0.929908
0.776853
0.924587
0.820793
0.81163
0.797754
0.912057
0.79243
0.861106
0.795114
0.789412
0.80034
0.823181
0.800206
0.801974
0.930379
0.920762
0.792681
0.793759
0.926316
0.800281
0.813214
0.905419
0.813585
0.890195
0.79674
0.934141
0.904147
0.898016
0.804335
0.93156
0.772356
0.794933
0.901633
0.881923
0.905982
0.935091
0.804472
0.748195
0.923209
0.801952
0.929101
0.802809
0.899285
0.933166
0.800306
0.908156
0.791851
0.801363
0.931131
0.919074
0.798272
0.926868
0.792383
0.796874
0.903281
0.812228
0.800959
0.911608
0.931347
0.800021
0.77515
0.912472
0.801058
0.903381
0.913949
0.801384
0.89372
0.876653
0.913636
0.914408
0.800394
0.914457
0.835405
0.825729
0.914794
0.802307
0.933403
0.933704
0.916065
0.914913
0.934108
0.9151
0.900137
0.915146
0.801615
0.807662
0.897967
0.803325
0.802158
0.80178
0.802377
0.933979
0.915139
0.809953
0.934464
0.915465
0.80141
0.916153
0.934757
0.932934
0.80119
0.925528
0.930741
0.797315
0.935022
0.901362
0.796169
0.917605
0.806272
0.759199
0.926059
0.915611
0.904712
0.916772
0.909705
0.897536
0.920177
0.91544
0.815423
0.934037
0.802211
0.922389
0.804788
0.813158
0.911634
0.874176
0.906025
0.908595
0.930705
0.803908
0.80518
0.9014
0.933105
0.922393
0.804574
0.904901
0.931764
0.922033
0.803329
0.935197
0.93289
0.752397
0.782581
0.801505
0.911972
0.801167
0.904773
0.921636
0.817246
0.818771
0.929208
0.7844
0.891302
0.919721
0.93282
0.894085
0.929547
0.799454
0.934992
0.889693
0.818057
0.931356
0.824168
0.806012
0.919577
0.802674
0.803471
0.92339
0.900866
0.933265
0.931511
0.900643
0.887048
0.887972
0.76629
0.903992
0.927901
0.918504
0.918094
0.824252
0.917382
0.824467
0.80241
0.811228
0.801198
0.802543
0.800228
0.839087
0.931315
0.924586
0.824719
0.923729
0.80878
0.930381
0.924321
0.80246
0.914957
0.934916
0.807355
0.799818
0.896049
0.91553
0.755685
0.915029
0.925042
0.935241
0.788487
0.762602
0.768205
0.806566
0.755503
0.825574
0.828809
0.817736
0.931131
0.806692
0.877144
0.917162
0.837396
0.800164
0.916365
0.794292
0.916506
0.92167
0.921635
0.934748
0.919414
0.802016
0.833833
0.814791
0.909373
0.917351
0.803072
0.802557
0.799609
0.921324
0.929017
0.825915
0.915283
0.746699
0.914439
0.915303
0.915789
0.789996
0.80269
0.799878
0.804016
0.820372
0.768765
0.800504
0.802042
0.922903
0.916705
0.916022
0.932271
0.915766
0.916127
0.918792
0.8018
0.917521
0.90345
0.923437
0.793071
0.925566
0.779955
0.760777
0.933961
0.918361
0.801704
0.91099
0.767663
0.803455
0.80349
0.913581
0.747646
0.917693
0.801918
0.92307
0.832393
0.791923
0.911319
0.91696
0.806923
0.927902
0.789323
0.803125
0.929215
0.916876
0.808676
0.920309
0.81195
0.928153
0.834816
0.762011
0.752242
0.823942
0.802686
0.748988