# vtk DataFile Version 1.0
unstructured grid
ascii
DATASET UNSTRUCTURED_GRID
points 7812 float
-1 0 0
-1 1 0
2 0 0
2 1 0
0 0 0
1 0 0
-1 1 0.1
-1 0 0.1
0 0 0.1
1 0 0.1
2 0 0.1
2 1 0.1
-0.99 0 0
-0.98 0 0
-0.97 0 0
-0.96 0 0
-0.95 0 0
-0.94 0 0
-0.93 0 0
-0.92 0 0
-0.91 0 0
-0.9 0 0
-0.89 0 0
-0.88 0 0
-0.87 0 0
-0.86 0 0
-0.85 0 0
-0.84 0 0
-0.83 0 0
-0.82 0 0
-0.81 0 0
-0.8 0 0
-0.79 0 0
-0.78 0 0
-0.77 0 0
-0.76 0 0
-0.75 0 0
-0.74 0 0
-0.73 0 0
-0.72 0 0
-0.71 0 0
-0.7 0 0
-0.69 0 0
-0.68 0 0
-0.67 0 0
-0.66 0 0
-0.65 0 0
-0.64 0 0
-0.63 0 0
-0.62 0 0
-0.61 0 0
-0.6 0 0
-0.59 0 0
-0.58 0 0
-0.57 0 0
-0.56 0 0
-0.55 0 0
-0.54 0 0
-0.53 0 0
-0.52 0 0
-0.51 0 0
-0.5 0 0
-0.49 0 0
-0.48 0 0
-0.47 0 0
-0.46 0 0
-0.45 0 0
-0.44 0 0
-0.43 0 0
-0.42 0 0
-0.41 0 0
-0.4 0 0
-0.39 0 0
-0.38 0 0
-0.37 0 0
-0.36 0 0
-0.35 0 0
-0.34 0 0
-0.33 0 0
-0.32 0 0
-0.31 0 0
-0.3 0 0
-0.29 0 0
-0.28 0 0
-0.27 0 0
-0.26 0 0
-0.25 0 0
-0.24 0 0
-0.23 0 0
-0.22 0 0
-0.21 0 0
-0.2 0 0
-0.19 0 0
-0.18 0 0
-0.17 0 0
-0.16 0 0
-0.15 0 0
-0.14 0 0
-0.13 0 0
-0.12 0 0
-0.11 0 0
-0.1 0 0
-0.09 0 0
-0.08 0 0
-0.07 0 0
-0.06 0 0
-0.05 0 0
-0.04 0 0
-0.03 0 0
-0.02 0 0
-0.01 0 0
1.01 0 0
1.02 0 0
1.03 0 0
1.04 0 0
1.05 0 0
1.06 0 0
1.07 0 0
1.08 0 0
1.09 0 0
1.1 0 0
1.11 0 0
1.12 0 0
1.13 0 0
1.14 0 0
1.15 0 0
1.16 0 0
1.17 0 0
1.18 0 0
1.19 0 0
1.2 0 0
1.21 0 0
1.22 0 0
1.23 0 0
1.24 0 0
1.25 0 0
1.26 0 0
1.27 0 0
1.28 0 0
1.29 0 0
1.3 0 0
1.31 0 0
1.32 0 0
1.33 0 0
1.34 0 0
1.35 0 0
1.36 0 0
1.37 0 0
1.38 0 0
1.39 0 0
1.4 0 0
1.41 0 0
1.42 0 0
1.43 0 0
1.44 0 0
1.45 0 0
1.46 0 0
1.47 0 0
1.48 0 0
1.49 0 0
1.5 0 0
1.51 0 0
1.52 0 0
1.53 0 0
1.54 0 0
1.55 0 0
1.56 0 0
1.57 0 0
1.58 0 0
1.59 0 0
1.6 0 0
1.61 0 0
1.62 0 0
1.63 0 0
1.64 0 0
1.65 0 0
1.66 0 0
1.67 0 0
1.68 0 0
1.69 0 0
1.7 0 0
1.71 0 0
1.72 0 0
1.73 0 0
1.74 0 0
1.75 0 0
1.76 0 0
1.77 0 0
1.78 0 0
1.79 0 0
1.8 0 0
1.81 0 0
1.82 0 0
1.83 0 0
1.84 0 0
1.85 0 0
1.86 0 0
1.87 0 0
1.88 0 0
1.89 0 0
1.9 0 0
1.91 0 0
1.92 0 0
1.93 0 0
1.94 0 0
1.95 0 0
1.96 0 0
1.97 0 0
1.98 0 0
1.99 0 0
2 0.010289 0
2 0.0215307 0
2 0.0338135 0
2 0.0472336 0
2 0.0618965 0
2 0.0779171 0
2 0.0954213 0
2 0.114546 0
2 0.135442 0
2 0.158274 0
2 0.183219 0
2 0.210474 0
2 0.240253 0
2 0.27279 0
2 0.308339 0
2 0.347181 0
2 0.389619 0
2 0.435987 0
2 0.486649 0
2 0.542002 0
2 0.602481 0
2 0.66856 0
2 0.740758 0
2 0.819642 0
2 0.90583 0
1.9 1 0
1.8 1 0
1.7 1 0
1.6 1 0
1.5 1 0
1.4 1 0
1.3 1 0
1.2 1 0
1.1 1 0
1 1 0
0.9 1 0
0.8 1 0
0.7 1 0
0.6 1 0
0.5 1 0
0.4 1 0
0.3 1 0
0.2 1 0
0.1 1 0
3.69793e-12 1 0
-0.1 1 0
-0.2 1 0
-0.3 1 0
-0.4 1 0
-0.5 1 0
-0.6 1 0
-0.7 1 0
-0.8 1 0
-0.9 1 0
-1 0.90583 0
-1 0.819642 0
-1 0.740758 0
-1 0.66856 0
-1 0.602481 0
-1 0.542002 0
-1 0.486649 0
-1 0.435987 0
-1 0.389619 0
-1 0.347181 0
-1 0.308339 0
-1 0.27279 0
-1 0.240253 0
-1 0.210474 0
-1 0.183219 0
-1 0.158274 0
-1 0.135442 0
-1 0.114546 0
-1 0.0954213 0
-1 0.0779171 0
-1 0.0618965 0
-1 0.0472336 0
-1 0.0338135 0
-1 0.0215307 0
-1 0.010289 0
0.00921362 0.00379763 0
0.0184561 0.00752451 0
0.0277268 0.0111804 0
0.0370253 0.0147652 0
0.0463511 0.0182786 0
0.0557034 0.0217203 0
0.0650819 0.0250903 0
0.074486 0.0283883 0
0.083915 0.0316141 0
0.0933685 0.0347675 0
0.102846 0.0378484 0
0.112347 0.0408565 0
0.12187 0.0437917 0
0.131416 0.0466538 0
0.140983 0.0494427 0
0.150572 0.0521581 0
0.160181 0.0547999 0
0.16981 0.0573681 0
0.179458 0.0598623 0
0.189125 0.0622825 0
0.198811 0.0646285 0
0.208514 0.0669001 0
0.218234 0.0690974 0
0.227971 0.07122 0
0.237724 0.073268 0
0.247493 0.0752411 0
0.257276 0.0771393 0
0.267073 0.0789625 0
0.276884 0.0807105 0
0.286708 0.0823832 0
0.296545 0.0839806 0
0.306394 0.0855025 0
0.316254 0.0869488 0
0.326125 0.0883196 0
0.336006 0.0896146 0
0.345896 0.0908339 0
0.355796 0.0919773 0
0.365704 0.0930447 0
0.375621 0.0940362 0
0.385544 0.0949517 0
0.395474 0.095791 0
0.40541 0.0965542 0
0.415352 0.0972412 0
0.425299 0.097852 0
0.43525 0.0983865 0
0.445205 0.0988447 0
0.455164 0.0992266 0
0.465125 0.0995321 0
0.475088 0.0997613 0
0.485052 0.0999141 0
0.495017 0.0999904 0
0.504983 0.0999904 0
0.514948 0.0999141 0
0.524912 0.0997613 0
0.534875 0.0995321 0
0.544836 0.0992266 0
0.554795 0.0988447 0
0.56475 0.0983865 0
0.574701 0.097852 0
0.584648 0.0972412 0
0.59459 0.0965542 0
0.604526 0.095791 0
0.614456 0.0949517 0
0.624379 0.0940362 0
0.634296 0.0930447 0
0.644204 0.0919773 0
0.654104 0.0908339 0
0.663994 0.0896146 0
0.673875 0.0883196 0
0.683746 0.0869488 0
0.693606 0.0855025 0
0.703455 0.0839806 0
0.713292 0.0823832 0
0.723116 0.0807105 0
0.732927 0.0789625 0
0.742724 0.0771393 0
0.752508 0.0752411 0
0.762276 0.073268 0
0.772029 0.07122 0
0.781766 0.0690974 0
0.791486 0.0669001 0
0.801189 0.0646285 0
0.810875 0.0622825 0
0.820542 0.0598623 0
0.83019 0.0573681 0
0.839819 0.0547999 0
0.849428 0.0521581 0
0.859017 0.0494427 0
0.868584 0.0466538 0
0.87813 0.0437917 0
0.887653 0.0408565 0
0.897154 0.0378484 0
0.906631 0.0347675 0
0.916085 0.0316141 0
0.925514 0.0283883 0
0.934918 0.0250903 0
0.944297 0.0217203 0
0.953649 0.0182786 0
0.962975 0.0147652 0
0.972273 0.0111804 0
0.981544 0.00752451 0
0.990786 0.00379763 0
-1 0.90583 0.1
-1 0.819642 0.1
-1 0.740758 0.1
-1 0.66856 0.1
-1 0.602481 0.1
-1 0.542002 0.1
-1 0.486649 0.1
-1 0.435987 0.1
-1 0.389619 0.1
-1 0.347181 0.1
-1 0.308339 0.1
-1 0.27279 0.1
-1 0.240253 0.1
-1 0.210474 0.1
-1 0.183219 0.1
-1 0.158274 0.1
-1 0.135442 0.1
-1 0.114546 0.1
-1 0.0954213 0.1
-1 0.0779171 0.1
-1 0.0618965 0.1
-1 0.0472336 0.1
-1 0.0338135 0.1
-1 0.0215307 0.1
-1 0.010289 0.1
-0.99 0 0.1
-0.98 0 0.1
-0.97 0 0.1
-0.96 0 0.1
-0.95 0 0.1
-0.94 0 0.1
-0.93 0 0.1
-0.92 0 0.1
-0.91 0 0.1
-0.9 0 0.1
-0.89 0 0.1
-0.88 0 0.1
-0.87 0 0.1
-0.86 0 0.1
-0.85 0 0.1
-0.84 0 0.1
-0.83 0 0.1
-0.82 0 0.1
-0.81 0 0.1
-0.8 0 0.1
-0.79 0 0.1
-0.78 0 0.1
-0.77 0 0.1
-0.76 0 0.1
-0.75 0 0.1
-0.74 0 0.1
-0.73 0 0.1
-0.72 0 0.1
-0.71 0 0.1
-0.7 0 0.1
-0.69 0 0.1
-0.68 0 0.1
-0.67 0 0.1
-0.66 0 0.1
-0.65 0 0.1
-0.64 0 0.1
-0.63 0 0.1
-0.62 0 0.1
-0.61 0 0.1
-0.6 0 0.1
-0.59 0 0.1
-0.58 0 0.1
-0.57 0 0.1
-0.56 0 0.1
-0.55 0 0.1
-0.54 0 0.1
-0.53 0 0.1
-0.52 0 0.1
-0.51 0 0.1
-0.5 0 0.1
-0.49 0 0.1
-0.48 0 0.1
-0.47 0 0.1
-0.46 0 0.1
-0.45 0 0.1
-0.44 0 0.1
-0.43 0 0.1
-0.42 0 0.1
-0.41 0 0.1
-0.4 0 0.1
-0.39 0 0.1
-0.38 0 0.1
-0.37 0 0.1
-0.36 0 0.1
-0.35 0 0.1
-0.34 0 0.1
-0.33 0 0.1
-0.32 0 0.1
-0.31 0 0.1
-0.3 0 0.1
-0.29 0 0.1
-0.28 0 0.1
-0.27 0 0.1
-0.26 0 0.1
-0.25 0 0.1
-0.24 0 0.1
-0.23 0 0.1
-0.22 0 0.1
-0.21 0 0.1
-0.2 0 0.1
-0.19 0 0.1
-0.18 0 0.1
-0.17 0 0.1
-0.16 0 0.1
-0.15 0 0.1
-0.14 0 0.1
-0.13 0 0.1
-0.12 0 0.1
-0.11 0 0.1
-0.1 0 0.1
-0.09 0 0.1
-0.08 0 0.1
-0.07 0 0.1
-0.06 0 0.1
-0.05 0 0.1
-0.04 0 0.1
-0.03 0 0.1
-0.02 0 0.1
-0.01 0 0.1
0.00921362 0.00379763 0.1
0.0184561 0.00752451 0.1
0.0277268 0.0111804 0.1
0.0370253 0.0147652 0.1
0.0463511 0.0182786 0.1
0.0557034 0.0217203 0.1
0.0650819 0.0250903 0.1
0.074486 0.0283883 0.1
0.083915 0.0316141 0.1
0.0933685 0.0347675 0.1
0.102846 0.0378484 0.1
0.112347 0.0408565 0.1
0.12187 0.0437917 0.1
0.131416 0.0466538 0.1
0.140983 0.0494427 0.1
0.150572 0.0521581 0.1
0.160181 0.0547999 0.1
0.16981 0.0573681 0.1
0.179458 0.0598623 0.1
0.189125 0.0622825 0.1
0.198811 0.0646285 0.1
0.208514 0.0669001 0.1
0.218234 0.0690974 0.1
0.227971 0.07122 0.1
0.237724 0.073268 0.1
0.247493 0.0752411 0.1
0.257276 0.0771393 0.1
0.267073 0.0789625 0.1
0.276884 0.0807105 0.1
0.286708 0.0823832 0.1
0.296545 0.0839806 0.1
0.306394 0.0855025 0.1
0.316254 0.0869488 0.1
0.326125 0.0883196 0.1
0.336006 0.0896146 0.1
0.345896 0.0908339 0.1
0.355796 0.0919773 0.1
0.365704 0.0930447 0.1
0.375621 0.0940362 0.1
0.385544 0.0949517 0.1
0.395474 0.095791 0.1
0.40541 0.0965542 0.1
0.415352 0.0972412 0.1
0.425299 0.097852 0.1
0.43525 0.0983865 0.1
0.445205 0.0988447 0.1
0.455164 0.0992266 0.1
0.465125 0.0995321 0.1
0.475088 0.0997613 0.1
0.485052 0.0999141 0.1
0.495017 0.0999904 0.1
0.504983 0.0999904 0.1
0.514948 0.0999141 0.1
0.524912 0.0997613 0.1
0.534875 0.0995321 0.1
0.544836 0.0992266 0.1
0.554795 0.0988447 0.1
0.56475 0.0983865 0.1
0.574701 0.097852 0.1
0.584648 0.0972412 0.1
0.59459 0.0965542 0.1
0.604526 0.095791 0.1
0.614456 0.0949517 0.1
0.624379 0.0940362 0.1
0.634296 0.0930447 0.1
0.644204 0.0919773 0.1
0.654104 0.0908339 0.1
0.663994 0.0896146 0.1
0.673875 0.0883196 0.1
0.683746 0.0869488 0.1
0.693606 0.0855025 0.1
0.703455 0.0839806 0.1
0.713292 0.0823832 0.1
0.723116 0.0807105 0.1
0.732927 0.0789625 0.1
0.742724 0.0771393 0.1
0.752508 0.0752411 0.1
0.762276 0.073268 0.1
0.772029 0.07122 0.1
0.781766 0.0690974 0.1
0.791486 0.0669001 0.1
0.801189 0.0646285 0.1
0.810875 0.0622825 0.1
0.820542 0.0598623 0.1
0.83019 0.0573681 0.1
0.839819 0.0547999 0.1
0.849428 0.0521581 0.1
0.859017 0.0494427 0.1
0.868584 0.0466538 0.1
0.87813 0.0437917 0.1
0.887653 0.0408565 0.1
0.897154 0.0378484 0.1
0.906631 0.0347675 0.1
0.916085 0.0316141 0.1
0.925514 0.0283883 0.1
0.934918 0.0250903 0.1
0.944297 0.0217203 0.1
0.953649 0.0182786 0.1
0.962975 0.0147652 0.1
0.972273 0.0111804 0.1
0.981544 0.00752451 0.1
0.990786 0.00379763 0.1
1.01 0 0.1
1.02 0 0.1
1.03 0 0.1
1.04 0 0.1
1.05 0 0.1
1.06 0 0.1
1.07 0 0.1
1.08 0 0.1
1.09 0 0.1
1.1 0 0.1
1.11 0 0.1
1.12 0 0.1
1.13 0 0.1
1.14 0 0.1
1.15 0 0.1
1.16 0 0.1
1.17 0 0.1
1.18 0 0.1
1.19 0 0.1
1.2 0 0.1
1.21 0 0.1
1.22 0 0.1
1.23 0 0.1
1.24 0 0.1
1.25 0 0.1
1.26 0 0.1
1.27 0 0.1
1.28 0 0.1
1.29 0 0.1
1.3 0 0.1
1.31 0 0.1
1.32 0 0.1
1.33 0 0.1
1.34 0 0.1
1.35 0 0.1
1.36 0 0.1
1.37 0 0.1
1.38 0 0.1
1.39 0 0.1
1.4 0 0.1
1.41 0 0.1
1.42 0 0.1
1.43 0 0.1
1.44 0 0.1
1.45 0 0.1
1.46 0 0.1
1.47 0 0.1
1.48 0 0.1
1.49 0 0.1
1.5 0 0.1
1.51 0 0.1
1.52 0 0.1
1.53 0 0.1
1.54 0 0.1
1.55 0 0.1
1.56 0 0.1
1.57 0 0.1
1.58 0 0.1
1.59 0 0.1
1.6 0 0.1
1.61 0 0.1
1.62 0 0.1
1.63 0 0.1
1.64 0 0.1
1.65 0 0.1
1.66 0 0.1
1.67 0 0.1
1.68 0 0.1
1.69 0 0.1
1.7 0 0.1
1.71 0 0.1
1.72 0 0.1
1.73 0 0.1
1.74 0 0.1
1.75 0 0.1
1.76 0 0.1
1.77 0 0.1
1.78 0 0.1
1.79 0 0.1
1.8 0 0.1
1.81 0 0.1
1.82 0 0.1
1.83 0 0.1
1.84 0 0.1
1.85 0 0.1
1.86 0 0.1
1.87 0 0.1
1.88 0 0.1
[...]
CELL_DATA 7425
SCALARS rho float
LOOKUP_TABLE default
0.587018
0.805025
0.819486
0.827463
0.799362
0.819086
0.82086
0.814049
0.812891
0.738568
0.863461
0.81001
0.81381
0.82732
0.803658
0.817078
0.798698
0.813175
0.803459
0.767211
0.83122
0.822025
0.724716
0.827992
0.803865
0.702866
0.831154
0.848182
0.800152
0.807903
0.819317
0.725544
0.803606
0.651971
0.518987
0.827958
0.803498
0.814026
0.811119
0.827955
0.715852
0.702979
0.789926
0.702414
0.586294
0.748162
0.799246
0.813744
0.661033
0.71932
0.746301
0.805141
0.812336
0.799021
0.709921
0.620973
0.82285
0.800051
0.738438
0.700826
0.709275
0.807645
0.813145
0.799329
0.79876
0.817536
0.584216
0.773224
0.70488
0.807819
0.804132
0.803198
0.88338
0.821097
0.81082
0.81295
0.805037
0.800428
0.813152
0.757724
0.815901
0.807225
0.810201
0.788623
0.835864
0.80104
0.574302
0.829907
0.542293
0.84844
0.707101
0.729674
0.845146
0.803168
0.817325
0.758116
0.835993
0.78799
0.825567
0.802417
0.808022
0.738662
0.803278
0.828187
0.597104
0.811047
0.824315
0.707347
0.814915
0.799108
0.816635
0.784503
0.789745
0.812415
0.789658
0.786285
0.831203
0.8031
0.70028
0.629288
0.805036
0.77721
0.812854
0.790377
0.858901
0.838761
0.80768
0.80422
0.661096
0.503796
0.814394
0.654925
0.514877
0.86758
0.661336
0.799456
0.811082
0.723465
0.58186
0.724667
0.723132
0.809556
0.809554
0.707423
0.803101
0.779574
0.56533
0.788438
0.782533
0.82771
0.816712
0.704163
0.802849
0.744296
0.70533
0.803266
0.810411
0.830354
0.797505
0.65183
0.802487
0.703692
0.801045
0.829687
0.820391
0.802365
0.812973
0.784758
0.806261
0.800591
0.81964
0.804416
0.791105
0.799071
0.799835
0.739995
0.803638
0.758622
0.593865
0.707039
0.799623
0.792643
0.879772
0.831794
0.612016
0.822863
0.798577
0.827253
0.799817
0.813318
0.812515
0.803184
0.806927
0.704713
0.814931
0.819189
0.770052
0.79708
0.861011
0.807749
0.81179
0.811076
0.612755
0.838812
0.572878
0.531531
0.595361
0.600198
0.828087
0.879306
0.807513
0.798639
0.841342
0.812877
0.816608
0.820699
0.815123
0.637924
0.548494
0.81364
0.545328
0.592326
0.703563
0.811621
0.813982
0.812951
0.833083
0.812817
0.864093
0.710126
0.835172
0.712436
0.805153
0.803912
0.801942
0.713821
0.720291
0.619422
0.705775
0.863584
0.875265
0.806161
0.807682
0.798798
0.811483
0.715649
0.821542
0.800129
0.825634
0.7946
0.809762
0.721438
0.812718
0.823673
0.739646
0.528322
0.79981
0.736443
0.84325
0.814263
0.726652
0.8155
0.81476
0.849914
0.809427
0.803803
0.803246
0.825591
0.860724
0.805373
0.619183
0.848845
0.81192
0.80559
0.827483
0.837293
0.812902
0.821368
0.793476
0.814992
0.866493
0.849908
0.827272
0.836687
0.80265
0.817086
0.803186
0.759672
0.701095
0.580756
0.701106
0.802277
0.812801
0.815909
0.854605
0.779619
0.645666
0.827021
0.520564
0.774224
0.80092
0.646325
0.494843
0.639023
0.815118
0.813147
0.812876
0.81264
0.826655
0.774398
0.811462
0.802656
0.812813
0.840662
0.866991
0.833504
0.802709
0.70649
0.795835
0.834242
0.691496
0.798686
0.802032
0.864751
0.817026
0.592938
0.813307
0.740369
0.852199
0.731893
0.810023
0.907641
0.799807
0.795577
0.658869
0.635487
0.71187
0.780508
0.82648
0.814854
0.813607
0.882288
0.858061
0.799476
0.799111
0.826005
0.739115
0.802504
0.879358
0.801373
0.804633
0.800641
0.802559
0.812881
0.815643
0.816296
0.636057
0.829922
0.645305
0.808416
0.639173
0.802556
0.802224
0.840215
0.728547
0.816328
0.808497
0.816906
0.799448
0.802487
0.81122
0.696526
0.824445
0.81297
0.812843
0.800671
0.736796
0.559821
0.806401
0.810934
0.803182
0.812802
0.794673
0.502673
0.845948
0.813229
0.80384
0.785669
0.813174
0.804627
0.802984
0.816162
0.807498
0.822444
0.768549
0.812606
0.807755
0.562544
0.803057
0.640033
0.838718
0.636147
0.81462
0.877872
0.592936
0.818043
0.74888
0.804402
0.873316
0.533484
0.823057
0.822193
0.803488
0.825676
0.811021
0.823394
0.83058
0.824774
0.739581
0.827461
0.761661
0.810163
0.794218
0.793571
0.758522
0.805585
0.802081
0.814396
0.752121
0.804665
0.604323
0.614117
0.688842
0.812725
0.844152
0.864803
0.829825
0.798521
0.812552
0.804845
0.818458
0.680424
0.800937
0.742874
0.824009
0.814723
0.805325
0.711979
0.727148
0.533497
0.605516
0.801239
0.611294
0.792519
0.765333
0.76999
0.727147
0.762392
0.767458
0.809353
0.814852
0.819482
0.811378
0.710343
0.601921
0.838983
0.80686
0.783113
0.809765
0.802534
0.836506
0.717981
0.855245
0.763663
0.728176
0.764437
0.811434
0.544832
0.798769
0.841568
0.813245
0.813702
0.809634
0.799105
0.780222
0.835658
0.803101
0.842927
0.721027
0.707571
0.8003
0.795096
0.821956
0.708614
0.847918
0.800362
0.815978
0.798673
0.779139
0.808196
0.594514
0.677352
0.632335
0.812852
0.803767
0.826296
0.749192
0.810582
0.814719
0.820327
0.798918
0.729197
0.79681
0.814227
0.803192
0.702981
0.813509
0.818843
0.839978
0.810692
0.825276
0.862264
0.85724
0.743839
0.603313
0.837993
0.80576
0.843346
0.814147
0.822865
0.813439
0.81372
0.633059
0.805122
0.809243
0.812733
0.791851
0.810544
0.804708
0.860419
0.798605
0.812647
0.814636
0.871892
0.597533
0.813376
0.842343
0.883297
0.530305
0.816331
0.829894
0.796124
0.814732
0.7949
0.867567
0.812147
0.831295
0.812646
0.619263
0.802382
0.804138
0.690676
0.853108
0.759772
0.80179
0.813898
0.812629
0.859606
0.795334
0.833569
0.834671
0.784225
0.825136
0.842277
0.799686
0.81043
0.806898
0.805305
0.814779
0.802625
0.845183
0.769214
0.809767
0.803148
0.815166
0.723054
0.812807
0.818286
0.752545
0.813504
0.816298
0.827501
0.825059
0.800669
0.800621
0.850468
0.767941
0.825068
0.844165
0.804548
0.505427
0.812814
0.828224
0.852356
0.812574
0.803146
0.80851
0.855015
0.780072
0.802577
0.801191
0.81285
0.72699
0.802684
0.829962
0.807954
0.794954
0.793449
0.843156
0.806597
0.845285
0.802016
0.824191
0.812686
0.804209
0.841819
0.812783
0.679316
0.818713
0.807089
0.812758
0.906132
0.800774
0.815836
0.800454
0.800363
0.816134
0.800469
0.80335
0.783727
0.747322
0.806436
0.812811
0.757963
0.791342
0.822964
0.813005
0.822197
0.806285
0.825717
0.875282
0.830597
0.574559
0.708743
0.84071
0.817221
0.844118
0.814691
0.850068
0.807279
0.812356
0.799302
0.838366
0.860899
0.852755
0.731446
0.814012
0.82212
0.743997
0.81704
0.775899
0.800192
0.733
0.815996
0.830814
0.823446
0.861745
0.814141
0.813219
0.810114
0.814572
0.835752
0.812187
0.798614
0.81022
0.737472
0.811267
0.774183
0.832795
0.812705
0.638722
0.777609
0.81109
0.799134
0.819765
0.802426
0.814605
0.817233
0.804422
0.819337
0.804156
0.805792
0.597069
0.847004
0.825076
0.826649
0.814862
0.803215
0.701778
0.806426
0.907822
0.813517
0.800979
0.81281
0.782253
0.807198
0.813213
0.821227
0.814623
0.813149
0.816171
0.702224
0.777793
0.76452
0.812582
0.805285
0.800975
0.621241
0.805658
0.802587
0.708114
0.83714
0.817134
0.802161
0.807403
0.799363
0.817186
0.813888
0.81321
0.812795
0.709623
0.831652
0.800267
0.807352
0.84275
0.817562
0.816228
0.800136
0.753636
0.823783
0.787359
0.821376
0.789391
0.805579
0.820894
0.737503
0.817346
0.650283
0.872002
0.704262
0.844967
0.800745
0.875136
0.793657
0.801653
0.820612
0.836171
0.838378
0.82542
0.819768
0.814645
0.801076
0.804169
0.808219
0.725599
0.827206
0.800075
0.719715
0.830491
0.706651
0.799951
0.860305
0.80557
0.701241
0.797827
0.814015
0.705122
0.785653
0.819325
0.831817
0.806897
0.57259
0.7285
0.812371
0.801274
0.812844
0.800628
0.737165
0.813944
0.81565
0.812411
0.775315
0.803259
0.804482
0.803518
0.560317
0.812631
0.834074
0.579618
0.815097
0.816037
0.814628
0.818299
0.814351
0.824484
0.79903
0.795108
0.771035
0.822865
0.829635
0.825075
0.834812
0.765298
0.808932
0.724273
0.772352
0.808749
0.821015
0.81321
0.800965
0.858195
0.812848
0.800277
0.809523
0.816031
0.81512
0.836585
0.814424
0.812729
0.811968
0.813746
0.800089
0.820938
0.803757
0.822773
0.813393
0.575351
0.81344
0.834417
0.85798
0.838148
0.490465
0.816744
0.804482
0.496319
0.669225
0.64293
0.834256
0.807932
0.811638
0.812724
0.803202
0.816685
0.810927
0.534388
0.686329
0.81821
0.806615
0.815548
0.803501
0.810221
0.810833
0.820181
0.799478
0.692096
0.855832
0.803147
0.814701
0.813552
0.757728
0.485398
0.832847
0.813508
0.742016
0.802698
0.806151
0.590682
0.827482
0.814716
0.827669
0.81872
0.82592
0.804721
0.719262
0.643472
0.561935
0.825263
0.808459
0.782975
0.812893
0.779739
0.817827
0.873292
0.762319
0.821552
0.813456
0.825785
0.883543
0.814373
0.811762
0.803252
0.813852
0.691609
0.828157
0.799841
0.810106
0.802193
0.784226
0.854127
0.821985
0.84045
0.821466
0.757601
0.75586
0.803257
0.818042
0.803059
0.805234
0.802573
0.775591
0.814616
0.761517
0.821086
0.661979
0.813902
0.802948
0.735782
0.823217
0.817923
0.739935
0.801152
0.757159
0.880539
0.800715
0.812759
0.762625
0.800033
0.814202
0.803941
0.589737
0.820896
0.798615
0.801289
0.814456
0.825562
0.757066
0.80547
0.841549
0.826874
0.814067
0.835792
0.701186
0.700075
0.812844
0.744105
0.822161
0.771322
0.812751
0.802507
0.810354
0.751903
0.79418
0.764269
0.809823
0.80314
0.631106
0.778975
0.799226
0.848925
0.814297
0.828599
0.526242
0.825314
0.785099
0.858704
0.800932
0.817947
0.80023
0.785735
0.798696
0.825661
0.83573
0.821721
0.817056
0.707078
0.773776
0.815301
0.80537
0.809899
0.803899
0.707068
0.792782
0.803433
0.810594
0.827116
0.851181
0.831803
0.81339
0.799378
0.804186
0.801989
0.779601
0.611496
0.800268
0.731193
0.661811
0.822751
0.798797
0.777271
0.799928
0.754108
0.785272
0.811374
0.822126
0.803292
0.815943
0.817301
0.820622
0.813314
0.808429
0.712085
0.699317
0.640813
0.829227
0.869541
0.815323
0.841305
0.847801
0.863712
0.735551
0.81653
0.862984
0.810138
0.812788
0.816143
0.732705
0.812357
0.806595
0.806134
0.51701
0.812885
0.761124
0.81308
0.813768
0.803534
0.705683
0.813121
0.610496
0.824985
0.802234
0.822201
0.85513
0.803422
0.795353
0.820873
0.811505
0.805676
0.7622
0.509528
0.820837
0.803073
0.828858
0.825707
0.802038
0.807012
0.834424
0.720735
0.500085
0.886242
0.800531
0.81562
0.804312
0.710576
0.798577
0.799952
0.814993
0.735948
0.646408
0.88323
0.714072
0.836503
0.811909
0.83284
0.842621
0.792115
0.804734
0.813521
0.85275
0.738255
0.87068
0.813942
0.562655
0.802399
0.74895
0.852876
0.760221
0.804207
0.803945
0.79958
0.801567
0.808804
0.812823
0.855464
0.805928
0.802862
0.801303
0.799954
0.812156
0.816806
0.802611
0.8124
0.849168
0.803094
0.783398
0.802228
0.839513
0.724858
0.813552
0.813752
0.636144
0.71302
0.805529
0.822967
0.803492
0.511434
0.856231
0.813139
0.832922
0.805294
0.803306
0.801318
0.786185
0.587055
0.804279
0.816032
0.835955
0.820503
0.812866
0.798099
0.746844
0.801553
0.765698
0.787508
0.799278
0.79094
0.751064
0.800791
0.811392
0.810294
0.832159
0.84898
0.553047
0.84186
0.812758
0.82083
0.801954
0.822637
0.810991
0.894597
0.800189
0.866996
0.805671
0.759695
0.862095
0.802267
0.800233
0.824104
0.660299
0.645185
0.803387
0.803844
0.705409
0.654205
0.79989
0.823794
0.812948
0.822528
0.732849
0.817136
0.81276
0.826076
0.816888
0.811927
0.812779
0.754523
0.803837
0.815608
0.811245
0.676134
0.566278
0.812816
0.649905
0.721858
0.554933
0.841353
0.800068
0.526641
0.600637
0.827474
0.908054
0.81808
0.652213
0.814084
0.78638
0.801669
0.786332
0.82058
0.810041
0.788256
0.820995
0.800945
0.587503
0.817758
0.76661
0.815861
0.701101
0.82216
0.789583
0.813875
0.79999
0.662773
0.843478
0.806503
0.80655
0.493217
0.816764
0.800332
0.85207
0.711421
0.817018
0.583525
0.718727
0.801355
0.796612
0.732596
0.715432
0.716109
0.506645
0.588825
0.799927
0.517184
0.822539
0.519762
0.757132
0.671077
0.59869
0.54029
0.745369
0.803076
0.71535
0.821234
0.8009
0.802899
0.761135
0.889659
0.798987
0.824423
0.803418
0.812704
0.705881
0.807509
0.73663
0.821849
0.886018
0.833527
0.747644
0.822729
0.770432
0.879881
0.804186
0.758607
0.850646
0.776803
0.799916
0.805225
0.758174
0.744495
0.664869
0.804973
0.803017
0.817844
0.833441
0.611373
0.807846
0.537847
0.668497
0.615982
0.818443
0.82098
0.808922
0.803966
0.615565
0.872435
0.802671
0.802941
0.863485
0.812339
0.771974
0.812076
0.802358
0.817835
0.803141
0.716966
0.803322
0.655053
0.79895
0.804036
0.801528
0.639065
0.811475
0.810257
0.725613
0.817732
0.548915
0.576538
0.804134
0.696396
0.725875
0.571943
0.7235
0.813544
0.707805
0.772933
0.716774
0.812758
0.670102
0.762049
0.806416
0.810534
0.654348
0.801933
0.895138
0.796676
0.816727
0.584882
0.693713
0.80087
0.81286
0.813934
0.851624
0.812564
0.804238
0.803715
0.803329
0.713704
0.717609
0.615489
0.771402
0.532402
0.72401
0.809844
0.814336
0.806066
0.799205
0.534927
0.808991
0.803747
0.553756
0.543042
0.746532
0.803563
0.806116
0.549142
0.798176
0.569415
0.720302
0.607635
0.813489
0.802208
0.596892
0.608159
0.867867
0.81
0.765351
0.717741
0.621412
0.655226
0.709987
0.815944
0.759718
0.765505
0.623887
0.7538
0.809236
0.815293
0.812368
0.8154
0.865491
0.754612
0.818866
0.803318
0.851244
0.812771
0.802766
0.812996
0.72268
0.81288
0.811923
0.815115
0.811082
0.815824
0.803264
0.817859
0.810315
0.809666
0.817199
0.800102
0.816526
0.818885
0.667372
0.818541
0.868385
0.8181
0.792905
0.645805
0.858545
0.818721
0.824827
0.799484
0.811124
0.757506
0.852506
0.558725
0.726486
0.809845
0.815594
0.803863
0.803353
0.831994
0.80496
0.805162
0.815189
0.780662
0.838504
0.841901
0.815149
0.664214
0.611831
0.815693
0.816551
0.788235
0.849588
0.847219
0.810776
0.813559
0.777696
0.814012
0.817764
0.814036
0.818708
0.813024
0.81575
0.851003
0.815896
0.814431
0.817483
0.817698
0.784861
0.814048
0.80399
0.80406
0.804559
0.8185
0.811396
0.78829
0.75399
0.812587
0.806264
0.808701
0.806363
0.857738
0.803296
0.813919
0.812607
0.805141
0.556962
0.803875
0.812651
0.814944
0.810295
0.812693
0.813215
0.812935
0.810161
0.864362
0.501192
0.812723
0.841615
0.812561
0.802946
0.808386
0.814921
0.839629
0.800388
0.801147
0.812561
0.706466
0.81274
0.808163
0.807284
0.812466
0.812793
0.812937
0.813272
0.511466
0.811842
0.715584
0.88582
0.820992
0.73347
0.670799
0.815285
0.803445
0.818656
0.646382
0.801629
0.813243
0.647871
0.799792
0.804076
0.815357
0.806224
0.8567
0.809833
0.606791
0.800783
0.775174
0.811195
0.889051
0.803228
0.815494
0.819267
0.832161
0.81331
0.822332
0.83629
0.634851
0.802568
0.655671
0.81366
0.81356
0.712631
0.813445
0.804751
0.713196
0.814855
0.701047
0.861037
0.784033
0.814212
0.812797
0.813339
0.667744
0.813566
0.633187
0.80015
0.792341
0.822228
0.815099
0.715893
0.766688
0.829989
0.812663
0.82125
0.821835
0.813347
0.825267
0.799443
0.551909
0.754914
0.759129
0.731499
0.837553
0.822274
0.834294
0.77595
0.802751
0.812933
0.812854
0.812857
0.77459
0.563642
0.803195
0.528191
0.808142
0.824196
0.799642
0.803748
0.812882
0.805996
0.782554
0.732135
0.813296
0.859109
0.813637
0.799234
0.736952
0.809529
0.788691
0.833673
0.503466
0.795958
0.805828
0.798814
0.688739
0.812747
0.810684
0.856957
0.56891
0.807316
0.803261
0.812732
0.612245
0.812992
0.803326
0.803393
0.803018
0.813105
0.813204
0.816026
0.812943
0.718002
0.804487
0.803193
0.81289
0.896143
0.81305
0.77392
0.84108
0.799167
0.803127
0.601196
0.812783
0.803349
0.825578
0.801946
0.866188
0.81476
0.853312
0.80028
0.820559
0.777838
0.5581
0.752611
0.794174
0.803859
0.813917
0.813713
0.555314
0.861749
0.857804
0.768389
0.757641
0.738495
0.811987
0.848326
0.812822
0.813656
0.812857
0.804261
0.726769
0.803489
0.799049
0.764224
0.824189
0.822921
0.861807
0.815564
0.812868
0.523688
0.808871
0.812827
0.800659
0.773909
0.818046
0.803104
0.812784
0.826813
0.798427
0.80354
0.80118
0.8151
0.839058
0.802311
0.799108
0.801428
0.766096
0.819783
0.566897
0.868344
0.803675
0.545545
0.803107
0.803069
0.819492
0.591067
0.606007
0.801502
0.803571
0.800792
0.860693
0.779874
0.81455
0.802925
0.86561
0.804699
0.804438
0.826258
0.815866
0.820017
0.821193
0.820241
0.867444
0.729187
0.852104
0.817109
0.65356
0.802494
0.803172
0.803624
0.821035
0.823424
0.803924
0.801033
0.799995
0.822592
0.803153
0.803591
0.799604
0.824301
0.803959
0.801966
0.80606
0.827787
0.800476
0.801473
0.824185
0.799531
0.815283
0.651156
0.826306
0.849791
0.804829
0.819482
0.803215
0.828668
0.837425
0.803387
0.821388
0.800489
0.806912
0.789529
0.802131
0.803113
0.80634
0.805858
0.804454
0.818452
0.814644
0.811211
0.83133
0.802119
0.802202
0.799846
0.788983
0.833714
0.803129
0.81921
0.815106
0.807069
0.804984
0.802941
0.838839
0.864622
0.799513
0.678848
0.801145
0.842083
0.816494
0.805059
0.804449
0.819648
0.844533
0.60103
0.828673
0.794423
0.85026
0.818636
0.811965
0.813232
0.808167
0.803941
0.812736
0.808725
0.591703
0.847921
0.794556
0.814073
0.854531
0.819184
0.763117
0.808592
0.814345
0.815364
0.802945
0.661581
0.809131
0.863103
0.802516
0.800663
0.775337
0.871178
0.800392
0.877032
0.806624
0.817065
0.820519
0.802156
0.803773
0.812487
0.815778
0.803404
0.813211
0.816637
0.881315
0.820653
0.809275
0.800072
0.828336
0.810457
0.83876
0.808758
0.806923
0.812044
0.816445
0.82984
0.813547
0.822447
0.832448
0.814088
0.699497
0.690462
0.812926
0.817644
0.803741
0.813008
0.513664
0.854823
0.799709
0.806207
0.813826
0.813369
0.803941
0.812362
0.80042
0.801161
0.807966
0.814655
0.756795
0.78458
0.82285
0.84258
0.834739
0.800199
0.804995
0.803344
0.812884
0.805656
0.799464
0.799736
0.800967
0.810838
0.797781
0.802684
0.835417
0.831235
0.729681
0.661099
0.80755
0.698347
0.799431
0.571695
0.804387
0.806889
0.803045
0.818063
0.833682
0.813809
0.812736
0.810239
0.803825
0.881484
0.816161
0.80473
0.772202
0.585453
0.810215
0.806555
0.769302
0.814303
0.813758
0.791437
0.800678
0.804012
0.623811
0.830378
0.803489
0.78141
0.779257
0.852656
0.809966
0.802818
0.802535
0.81013
0.81103
0.518344
0.801744
0.839419
0.813809
0.798542
0.588529
0.81447
0.813954
0.812823
0.833651
0.813801
0.803902
0.821797
0.805512
0.575623
0.8086
0.736407
0.798479
0.813515
0.722112
0.814814
0.845888
0.831557
0.66438
0.890872
0.785545
0.777333
0.796844
0.779492
0.808562
0.849857
0.80791
0.80284
0.813428
0.80875
0.782568
0.785885
0.813766
0.808246
0.834785
0.821178
0.835619
0.801203
0.799603
0.81292
0.856556
0.816369
0.818276
0.813223
0.60721
0.795492
0.823801
0.829278
0.865849
0.812476
0.818858
0.508372
0.80963
0.800538
0.812489
0.814647
0.847523
0.812926
0.811062
0.881463
0.764465
0.812508
0.813113
0.808913
0.805188
0.81411
0.655801
0.800474
0.849466
0.833452
0.810516
0.813455
0.813243
0.809541
0.698735
0.81239
0.800103
0.838493
0.818371
0.811515
0.831248
0.792634
0.811443
0.81771
0.808722
0.819185
0.744138
0.85463
0.81886
0.81369
0.812929
0.812576
0.815608
0.81705
0.812621
0.810678
0.841004
0.81849
0.800095
0.825224
0.826864
0.815948
0.814414
0.800307
0.801472
0.812918
0.81892
0.829344
0.812667
0.816349
0.799766
0.80985
0.812704
0.812672
0.802483
0.814547
0.813204
0.803214
0.812728
0.835578
0.799999
0.809321
0.821433
0.559756
0.814094
0.818059
0.815414
0.814897
0.821868
0.828741
0.815509
0.81873
0.701346
0.812929
0.801291
0.815502
0.818905
0.835002
0.821464
0.815467
0.829282
0.824845
0.810547
0.81915
0.819434
0.804121
0.813027
0.815489
0.819391
0.832027
0.812501
0.815583
0.802704
0.8128
0.812922
0.522229
0.627437
0.814315
0.821338
0.80168
0.822373
0.815792
0.841795
0.708031
0.813621
0.730341
0.817309
0.810202
0.813032
0.829268
0.813531
0.804796
0.812786
0.830005
0.839192
0.812669
0.719111
0.819208
0.815918
0.799868
0.803019
0.815193
0.855868
0.812517
0.813245
0.849633
0.828924
0.843205
0.573101
0.829021
0.813821
0.810783
0.817289
0.850398
0.817654
0.718317
0.799485
0.831689
0.79971
0.799675
0.805355
0.747763
0.813269
0.814226
0.725313
0.814238
0.827269
0.81319
0.813913
0.799163
0.818268
0.812852
0.823449
0.808676
0.808103
0.81486
0.705285
0.818968
0.81396
0.812836
0.639719
0.718831
0.599231
0.823203
0.529164
0.853705
0.727249
0.842726
0.812398
0.722544
0.821337
0.81577
0.742481
0.807621
0.818244
0.794387
0.816411
0.815747
0.815677
0.812853
0.807772
0.803648
0.737222
0.836036
0.820064
0.816497
0.799173
0.815366
0.801935
0.815891
0.813334
0.854501
0.817663
0.496639
0.81319
0.81868
0.818553
0.778013
0.815678
0.806701
0.81851
0.845247
0.59627
0.809035
0.799244
0.815202
0.817509
0.817579
0.812321
0.81849
0.813743
0.814466
0.803059
0.814163
0.846039
0.813814
0.79198
0.811368
0.622398
0.718754
0.812931
0.816881
0.802905
0.822198
0.735428
0.803144
0.803179
0.820098
0.618208
0.817482
0.799292
0.815296
0.864539
0.785452
0.821844
0.817865
0.82268
0.813895
0.769544
0.802407
0.813439
0.902273
0.827096
0.816311
0.832142
0.809479
0.868072
0.719422
0.685453
0.852235
0.802692
0.658481
0.8502
0.786012