# vtk DataFile Version 1.0
unstructured grid
ascii
DATASET UNSTRUCTURED_GRID
points 7812 float
-1 0 0
-1 1 0
2 0 0
2 1 0
0 0 0
1 0 0
-1 1 0.1
-1 0 0.1
0 0 0.1
1 0 0.1
2 0 0.1
2 1 0.1
-0.99 0 0
-0.98 0 0
-0.97 0 0
-0.96 0 0
-0.95 0 0
-0.94 0 0
-0.93 0 0
-0.92 0 0
-0.91 0 0
-0.9 0 0
-0.89 0 0
-0.88 0 0
-0.87 0 0
-0.86 0 0
-0.85 0 0
-0.84 0 0
-0.83 0 0
-0.82 0 0
-0.81 0 0
-0.8 0 0
-0.79 0 0
-0.78 0 0
-0.77 0 0
-0.76 0 0
-0.75 0 0
-0.74 0 0
-0.73 0 0
-0.72 0 0
-0.71 0 0
-0.7 0 0
-0.69 0 0
-0.68 0 0
-0.67 0 0
-0.66 0 0
-0.65 0 0
-0.64 0 0
-0.63 0 0
-0.62 0 0
-0.61 0 0
-0.6 0 0
-0.59 0 0
-0.58 0 0
-0.57 0 0
-0.56 0 0
-0.55 0 0
-0.54 0 0
-0.53 0 0
-0.52 0 0
-0.51 0 0
-0.5 0 0
-0.49 0 0
-0.48 0 0
-0.47 0 0
-0.46 0 0
-0.45 0 0
-0.44 0 0
-0.43 0 0
-0.42 0 0
-0.41 0 0
-0.4 0 0
-0.39 0 0
-0.38 0 0
-0.37 0 0
-0.36 0 0
-0.35 0 0
-0.34 0 0
-0.33 0 0
-0.32 0 0
-0.31 0 0
-0.3 0 0
-0.29 0 0
-0.28 0 0
-0.27 0 0
-0.26 0 0
-0.25 0 0
-0.24 0 0
-0.23 0 0
-0.22 0 0
-0.21 0 0
-0.2 0 0
-0.19 0 0
-0.18 0 0
-0.17 0 0
-0.16 0 0
-0.15 0 0
-0.14 0 0
-0.13 0 0
-0.12 0 0
-0.11 0 0
-0.1 0 0
-0.09 0 0
-0.08 0 0
-0.07 0 0
-0.06 0 0
-0.05 0 0
-0.04 0 0
-0.03 0 0
-0.02 0 0
-0.01 0 0
1.01 0 0
1.02 0 0
1.03 0 0
1.04 0 0
1.05 0 0
1.06 0 0
1.07 0 0
1.08 0 0
1.09 0 0
1.1 0 0
1.11 0 0
1.12 0 0
1.13 0 0
1.14 0 0
1.15 0 0
1.16 0 0
1.17 0 0
1.18 0 0
1.19 0 0
1.2 0 0
1.21 0 0
1.22 0 0
1.23 0 0
1.24 0 0
1.25 0 0
1.26 0 0
1.27 0 0
1.28 0 0
1.29 0 0
1.3 0 0
1.31 0 0
1.32 0 0
1.33 0 0
1.34 0 0
1.35 0 0
1.36 0 0
1.37 0 0
1.38 0 0
1.39 0 0
1.4 0 0
1.41 0 0
1.42 0 0
1.43 0 0
1.44 0 0
1.45 0 0
1.46 0 0
1.47 0 0
1.48 0 0
1.49 0 0
1.5 0 0
1.51 0 0
1.52 0 0
1.53 0 0
1.54 0 0
1.55 0 0
1.56 0 0
1.57 0 0
1.58 0 0
1.59 0 0
1.6 0 0
1.61 0 0
1.62 0 0
1.63 0 0
1.64 0 0
1.65 0 0
1.66 0 0
1.67 0 0
1.68 0 0
1.69 0 0
1.7 0 0
1.71 0 0
1.72 0 0
1.73 0 0
1.74 0 0
1.75 0 0
1.76 0 0
1.77 0 0
1.78 0 0
1.79 0 0
1.8 0 0
1.81 0 0
1.82 0 0
1.83 0 0
1.84 0 0
1.85 0 0
1.86 0 0
1.87 0 0
1.88 0 0
1.89 0 0
1.9 0 0
1.91 0 0
1.92 0 0
1.93 0 0
1.94 0 0
1.95 0 0
1.96 0 0
1.97 0 0
1.98 0 0
1.99 0 0
2 0.010289 0
2 0.0215307 0
2 0.0338135 0
2 0.0472336 0
2 0.0618965 0
2 0.0779171 0
2 0.0954213 0
2 0.114546 0
2 0.135442 0
2 0.158274 0
2 0.183219 0
2 0.210474 0
2 0.240253 0
2 0.27279 0
2 0.308339 0
2 0.347181 0
2 0.389619 0
2 0.435987 0
2 0.486649 0
2 0.542002 0
2 0.602481 0
2 0.66856 0
2 0.740758 0
2 0.819642 0
2 0.90583 0
1.9 1 0
1.8 1 0
1.7 1 0
1.6 1 0
1.5 1 0
1.4 1 0
1.3 1 0
1.2 1 0
1.1 1 0
1 1 0
0.9 1 0
0.8 1 0
0.7 1 0
0.6 1 0
0.5 1 0
0.4 1 0
0.3 1 0
0.2 1 0
0.1 1 0
3.69793e-12 1 0
-0.1 1 0
-0.2 1 0
-0.3 1 0
-0.4 1 0
-0.5 1 0
-0.6 1 0
-0.7 1 0
-0.8 1 0
-0.9 1 0
-1 0.90583 0
-1 0.819642 0
-1 0.740758 0
-1 0.66856 0
-1 0.602481 0
-1 0.542002 0
-1 0.486649 0
-1 0.435987 0
-1 0.389619 0
-1 0.347181 0
-1 0.308339 0
-1 0.27279 0
-1 0.240253 0
-1 0.210474 0
-1 0.183219 0
-1 0.158274 0
-1 0.135442 0
-1 0.114546 0
-1 0.0954213 0
-1 0.0779171 0
-1 0.0618965 0
-1 0.0472336 0
-1 0.0338135 0
-1 0.0215307 0
-1 0.010289 0
0.00921362 0.00379763 0
0.0184561 0.00752451 0
0.0277268 0.0111804 0
0.0370253 0.0147652 0
0.0463511 0.0182786 0
0.0557034 0.0217203 0
0.0650819 0.0250903 0
0.074486 0.0283883 0
0.083915 0.0316141 0
0.0933685 0.0347675 0
0.102846 0.0378484 0
0.112347 0.0408565 0
0.12187 0.0437917 0
0.131416 0.0466538 0
0.140983 0.0494427 0
0.150572 0.0521581 0
0.160181 0.0547999 0
0.16981 0.0573681 0
0.179458 0.0598623 0
0.189125 0.0622825 0
0.198811 0.0646285 0
0.208514 0.0669001 0
0.218234 0.0690974 0
0.227971 0.07122 0
0.237724 0.073268 0
0.247493 0.0752411 0
0.257276 0.0771393 0
0.267073 0.0789625 0
0.276884 0.0807105 0
0.286708 0.0823832 0
0.296545 0.0839806 0
0.306394 0.0855025 0
0.316254 0.0869488 0
0.326125 0.0883196 0
0.336006 0.0896146 0
0.345896 0.0908339 0
0.355796 0.0919773 0
0.365704 0.0930447 0
0.375621 0.0940362 0
0.385544 0.0949517 0
0.395474 0.095791 0
0.40541 0.0965542 0
0.415352 0.0972412 0
0.425299 0.097852 0
0.43525 0.0983865 0
0.445205 0.0988447 0
0.455164 0.0992266 0
0.465125 0.0995321 0
0.475088 0.0997613 0
0.485052 0.0999141 0
0.495017 0.0999904 0
0.504983 0.0999904 0
0.514948 0.0999141 0
0.524912 0.0997613 0
0.534875 0.0995321 0
0.544836 0.0992266 0
0.554795 0.0988447 0
0.56475 0.0983865 0
0.574701 0.097852 0
0.584648 0.0972412 0
0.59459 0.0965542 0
0.604526 0.095791 0
0.614456 0.0949517 0
0.624379 0.0940362 0
0.634296 0.0930447 0
0.644204 0.0919773 0
0.654104 0.0908339 0
0.663994 0.0896146 0
0.673875 0.0883196 0
0.683746 0.0869488 0
0.693606 0.0855025 0
0.703455 0.0839806 0
0.713292 0.0823832 0
0.723116 0.0807105 0
0.732927 0.0789625 0
0.742724 0.0771393 0
0.752508 0.0752411 0
0.762276 0.073268 0
0.772029 0.07122 0
0.781766 0.0690974 0
0.791486 0.0669001 0
0.801189 0.0646285 0
0.810875 0.0622825 0
0.820542 0.0598623 0
0.83019 0.0573681 0
0.839819 0.0547999 0
0.849428 0.0521581 0
0.859017 0.0494427 0
0.868584 0.0466538 0
0.87813 0.0437917 0
0.887653 0.0408565 0
0.897154 0.0378484 0
0.906631 0.0347675 0
0.916085 0.0316141 0
0.925514 0.0283883 0
0.934918 0.0250903 0
0.944297 0.0217203 0
0.953649 0.0182786 0
0.962975 0.0147652 0
0.972273 0.0111804 0
0.981544 0.00752451 0
0.990786 0.00379763 0
-1 0.90583 0.1
-1 0.819642 0.1
-1 0.740758 0.1
-1 0.66856 0.1
-1 0.602481 0.1
-1 0.542002 0.1
-1 0.486649 0.1
-1 0.435987 0.1
-1 0.389619 0.1
-1 0.347181 0.1
-1 0.308339 0.1
-1 0.27279 0.1
-1 0.240253 0.1
-1 0.210474 0.1
-1 0.183219 0.1
-1 0.158274 0.1
-1 0.135442 0.1
-1 0.114546 0.1
-1 0.0954213 0.1
-1 0.0779171 0.1
-1 0.0618965 0.1
-1 0.0472336 0.1
-1 0.0338135 0.1
-1 0.0215307 0.1
-1 0.010289 0.1
-0.99 0 0.1
-0.98 0 0.1
-0.97 0 0.1
-0.96 0 0.1
-0.95 0 0.1
-0.94 0 0.1
-0.93 0 0.1
-0.92 0 0.1
-0.91 0 0.1
-0.9 0 0.1
-0.89 0 0.1
-0.88 0 0.1
-0.87 0 0.1
-0.86 0 0.1
-0.85 0 0.1
-0.84 0 0.1
-0.83 0 0.1
-0.82 0 0.1
-0.81 0 0.1
-0.8 0 0.1
-0.79 0 0.1
-0.78 0 0.1
-0.77 0 0.1
-0.76 0 0.1
-0.75 0 0.1
-0.74 0 0.1
-0.73 0 0.1
-0.72 0 0.1
-0.71 0 0.1
-0.7 0 0.1
-0.69 0 0.1
-0.68 0 0.1
-0.67 0 0.1
-0.66 0 0.1
-0.65 0 0.1
-0.64 0 0.1
-0.63 0 0.1
-0.62 0 0.1
-0.61 0 0.1
-0.6 0 0.1
-0.59 0 0.1
-0.58 0 0.1
-0.57 0 0.1
-0.56 0 0.1
-0.55 0 0.1
-0.54 0 0.1
-0.53 0 0.1
-0.52 0 0.1
-0.51 0 0.1
-0.5 0 0.1
-0.49 0 0.1
-0.48 0 0.1
-0.47 0 0.1
-0.46 0 0.1
-0.45 0 0.1
-0.44 0 0.1
-0.43 0 0.1
-0.42 0 0.1
-0.41 0 0.1
-0.4 0 0.1
-0.39 0 0.1
-0.38 0 0.1
-0.37 0 0.1
-0.36 0 0.1
-0.35 0 0.1
-0.34 0 0.1
-0.33 0 0.1
-0.32 0 0.1
-0.31 0 0.1
-0.3 0 0.1
-0.29 0 0.1
-0.28 0 0.1
-0.27 0 0.1
-0.26 0 0.1
-0.25 0 0.1
-0.24 0 0.1
-0.23 0 0.1
-0.22 0 0.1
-0.21 0 0.1
-0.2 0 0.1
-0.19 0 0.1
-0.18 0 0.1
-0.17 0 0.1
-0.16 0 0.1
-0.15 0 0.1
-0.14 0 0.1
-0.13 0 0.1
-0.12 0 0.1
-0.11 0 0.1
-0.1 0 0.1
-0.09 0 0.1
-0.08 0 0.1
-0.07 0 0.1
-0.06 0 0.1
-0.05 0 0.1
-0.04 0 0.1
-0.03 0 0.1
-0.02 0 0.1
-0.01 0 0.1
0.00921362 0.00379763 0.1
0.0184561 0.00752451 0.1
0.0277268 0.0111804 0.1
0.0370253 0.0147652 0.1
0.0463511 0.0182786 0.1
0.0557034 0.0217203 0.1
0.0650819 0.0250903 0.1
0.074486 0.0283883 0.1
0.083915 0.0316141 0.1
0.0933685 0.0347675 0.1
0.102846 0.0378484 0.1
0.112347 0.0408565 0.1
0.12187 0.0437917 0.1
0.131416 0.0466538 0.1
0.140983 0.0494427 0.1
0.150572 0.0521581 0.1
0.160181 0.0547999 0.1
0.16981 0.0573681 0.1
0.179458 0.0598623 0.1
0.189125 0.0622825 0.1
0.198811 0.0646285 0.1
0.208514 0.0669001 0.1
0.218234 0.0690974 0.1
0.227971 0.07122 0.1
0.237724 0.073268 0.1
0.247493 0.0752411 0.1
0.257276 0.0771393 0.1
0.267073 0.0789625 0.1
0.276884 0.0807105 0.1
0.286708 0.0823832 0.1
0.296545 0.0839806 0.1
0.306394 0.0855025 0.1
0.316254 0.0869488 0.1
0.326125 0.0883196 0.1
0.336006 0.0896146 0.1
0.345896 0.0908339 0.1
0.355796 0.0919773 0.1
0.365704 0.0930447 0.1
0.375621 0.0940362 0.1
0.385544 0.0949517 0.1
0.395474 0.095791 0.1
0.40541 0.0965542 0.1
0.415352 0.0972412 0.1
0.425299 0.097852 0.1
0.43525 0.0983865 0.1
0.445205 0.0988447 0.1
0.455164 0.0992266 0.1
0.465125 0.0995321 0.1
0.475088 0.0997613 0.1
0.485052 0.0999141 0.1
0.495017 0.0999904 0.1
0.504983 0.0999904 0.1
0.514948 0.0999141 0.1
0.524912 0.0997613 0.1
0.534875 0.0995321 0.1
0.544836 0.0992266 0.1
0.554795 0.0988447 0.1
0.56475 0.0983865 0.1
0.574701 0.097852 0.1
0.584648 0.0972412 0.1
0.59459 0.0965542 0.1
0.604526 0.095791 0.1
0.614456 0.0949517 0.1
0.624379 0.0940362 0.1
0.634296 0.0930447 0.1
0.644204 0.0919773 0.1
0.654104 0.0908339 0.1
0.663994 0.0896146 0.1
0.673875 0.0883196 0.1
0.683746 0.0869488 0.1
0.693606 0.0855025 0.1
0.703455 0.0839806 0.1
0.713292 0.0823832 0.1
0.723116 0.0807105 0.1
0.732927 0.0789625 0.1
0.742724 0.0771393 0.1
0.752508 0.0752411 0.1
0.762276 0.073268 0.1
0.772029 0.07122 0.1
0.781766 0.0690974 0.1
0.791486 0.0669001 0.1
0.801189 0.0646285 0.1
0.810875 0.0622825 0.1
0.820542 0.0598623 0.1
0.83019 0.0573681 0.1
0.839819 0.0547999 0.1
0.849428 0.0521581 0.1
0.859017 0.0494427 0.1
0.868584 0.0466538 0.1
0.87813 0.0437917 0.1
0.887653 0.0408565 0.1
0.897154 0.0378484 0.1
0.906631 0.0347675 0.1
0.916085 0.0316141 0.1
0.925514 0.0283883 0.1
0.934918 0.0250903 0.1
0.944297 0.0217203 0.1
0.953649 0.0182786 0.1
0.962975 0.0147652 0.1
0.972273 0.0111804 0.1
0.981544 0.00752451 0.1
0.990786 0.00379763 0.1
1.01 0 0.1
1.02 0 0.1
1.03 0 0.1
1.04 0 0.1
1.05 0 0.1
1.06 0 0.1
1.07 0 0.1
1.08 0 0.1
1.09 0 0.1
1.1 0 0.1
1.11 0 0.1
1.12 0 0.1
1.13 0 0.1
1.14 0 0.1
1.15 0 0.1
1.16 0 0.1
1.17 0 0.1
1.18 0 0.1
1.19 0 0.1
1.2 0 0.1
1.21 0 0.1
1.22 0 0.1
1.23 0 0.1
1.24 0 0.1
1.25 0 0.1
1.26 0 0.1
1.27 0 0.1
1.28 0 0.1
1.29 0 0.1
1.3 0 0.1
1.31 0 0.1
1.32 0 0.1
1.33 0 0.1
1.34 0 0.1
1.35 0 0.1
1.36 0 0.1
1.37 0 0.1
1.38 0 0.1
1.39 0 0.1
1.4 0 0.1
1.41 0 0.1
1.42 0 0.1
1.43 0 0.1
1.44 0 0.1
1.45 0 0.1
1.46 0 0.1
1.47 0 0.1
1.48 0 0.1
1.49 0 0.1
1.5 0 0.1
1.51 0 0.1
1.52 0 0.1
1.53 0 0.1
1.54 0 0.1
1.55 0 0.1
1.56 0 0.1
1.57 0 0.1
1.58 0 0.1
1.59 0 0.1
1.6 0 0.1
1.61 0 0.1
1.62 0 0.1
1.63 0 0.1
1.64 0 0.1
1.65 0 0.1
1.66 0 0.1
1.67 0 0.1
1.68 0 0.1
1.69 0 0.1
1.7 0 0.1
1.71 0 0.1
1.72 0 0.1
1.73 0 0.1
1.74 0 0.1
1.75 0 0.1
1.76 0 0.1
1.77 0 0.1
1.78 0 0.1
1.79 0 0.1
1.8 0 0.1
1.81 0 0.1
1.82 0 0.1
1.83 0 0.1
1.84 0 0.1
1.85 0 0.1
1.86 0 0.1
1.87 0 0.1
1.88 0 0.1
[...]
CELL_DATA 7425
SCALARS rho float
LOOKUP_TABLE default
0.587235
0.805038
0.819551
0.827518
0.799431
0.819148
0.820909
0.814127
0.812977
0.738645
0.863488
0.810037
0.81389
0.827374
0.803721
0.817147
0.798763
0.813259
0.80347
0.767262
0.831272
0.82205
0.724799
0.828046
0.803876
0.703074
0.831204
0.848284
0.800166
0.807942
0.819367
0.725472
0.803616
0.652149
0.519399
0.828013
0.803507
0.814104
0.811146
0.828006
0.716022
0.703285
0.789982
0.702043
0.586555
0.748229
0.799309
0.813823
0.661721
0.719252
0.74632
0.805154
0.812358
0.799086
0.709761
0.630952
0.82291
0.800099
0.738516
0.700935
0.709542
0.80766
0.813229
0.79939
0.798775
0.817604
0.584424
0.773287
0.704639
0.807861
0.804182
0.803203
0.8834
0.821122
0.810847
0.813037
0.80505
0.800441
0.813235
0.757769
0.815973
0.80724
0.810282
0.788688
0.835902
0.801101
0.574507
0.829955
0.542602
0.848478
0.706536
0.729754
0.845248
0.803178
0.817394
0.758232
0.836052
0.788022
0.825625
0.802485
0.808091
0.738653
0.803287
0.828238
0.597283
0.811073
0.82437
0.707487
0.81499
0.799176
0.816704
0.784544
0.78981
0.812432
0.789714
0.78632
0.831253
0.803105
0.700018
0.630835
0.805049
0.777271
0.812941
0.790408
0.858935
0.838856
0.807696
0.804272
0.661231
0.504212
0.814469
0.655105
0.515266
0.867706
0.66208
0.799525
0.811104
0.723568
0.582066
0.724853
0.723294
0.80961
0.809637
0.70726
0.803151
0.779611
0.565531
0.788514
0.782543
0.827765
0.816761
0.70427
0.802912
0.744304
0.705157
0.803277
0.810438
0.830407
0.797561
0.65219
0.802513
0.703319
0.801107
0.82974
0.820454
0.802376
0.813059
0.784816
0.806278
0.800657
0.819704
0.804486
0.79118
0.799139
0.799885
0.740146
0.803702
0.758736
0.594161
0.706251
0.799688
0.792708
0.879793
0.831841
0.617416
0.822923
0.798645
0.827335
0.79988
0.8134
0.812605
0.803194
0.806945
0.704531
0.815005
0.819252
0.770103
0.797142
0.861141
0.807767
0.811831
0.811162
0.612924
0.838908
0.573086
0.53191
0.595541
0.600675
0.82815
0.879328
0.807527
0.798654
0.841377
0.812965
0.816677
0.820762
0.815197
0.638056
0.549627
0.81372
0.54565
0.592615
0.703381
0.811692
0.814059
0.813037
0.833132
0.812907
0.864213
0.709901
0.835222
0.712693
0.805171
0.803923
0.801963
0.713933
0.720488
0.619556
0.705436
0.863615
0.875401
0.806235
0.807697
0.798863
0.811531
0.71589
0.821603
0.800198
0.82569
0.794625
0.809846
0.721409
0.812807
0.823732
0.739805
0.528596
0.799865
0.736419
0.843298
0.814338
0.726582
0.815572
0.814835
0.849946
0.809507
0.803877
0.803255
0.825649
0.860757
0.805445
0.619312
0.848883
0.811995
0.805603
0.827538
0.837332
0.812985
0.821427
0.793504
0.815067
0.866616
0.84994
0.827335
0.836735
0.802673
0.817155
0.803192
0.759717
0.701302
0.580958
0.700827
0.802342
0.812887
0.815981
0.854712
0.779659
0.645794
0.827077
0.520968
0.774285
0.800981
0.646454
0.49564
0.639152
0.815192
0.813231
0.812963
0.812719
0.826711
0.774431
0.811478
0.802668
0.812903
0.840707
0.867111
0.833553
0.802739
0.705951
0.795893
0.834281
0.691614
0.798753
0.80205
0.86478
0.817095
0.593109
0.813388
0.740526
0.852303
0.732013
0.810105
0.907653
0.799876
0.795649
0.659005
0.635621
0.711655
0.780592
0.826536
0.814929
0.813687
0.882429
0.858178
0.799545
0.799162
0.826032
0.739233
0.802527
0.879382
0.801381
0.804708
0.800706
0.802569
0.812964
0.815715
0.816367
0.636267
0.829986
0.645674
0.808466
0.639381
0.802619
0.802238
0.840258
0.728727
0.816349
0.808567
0.816975
0.799507
0.802497
0.81125
0.696856
0.824471
0.813055
0.812926
0.800681
0.736822
0.560021
0.806415
0.811019
0.80319
0.812891
0.794735
0.503482
0.846017
0.813311
0.80385
0.785727
0.813258
0.804676
0.803036
0.816233
0.807512
0.822504
0.768613
0.812654
0.807773
0.562749
0.803126
0.640163
0.838754
0.636282
0.814694
0.877896
0.593362
0.818081
0.748964
0.804415
0.873339
0.53386
0.823116
0.822254
0.803498
0.825733
0.811063
0.823453
0.830632
0.824831
0.739733
0.827516
0.761661
0.810216
0.794242
0.793629
0.758599
0.805602
0.802088
0.814463
0.75225
0.804706
0.6045
0.614287
0.6891
0.812808
0.844193
0.864834
0.829874
0.79859
0.812641
0.80489
0.818516
0.680544
0.800993
0.742963
0.824051
0.814794
0.805402
0.711715
0.727252
0.53379
0.605667
0.801298
0.611439
0.792588
0.765375
0.770052
0.727063
0.762467
0.767539
0.809435
0.814927
0.819546
0.811464
0.710538
0.602414
0.839028
0.806929
0.78315
0.809843
0.802568
0.836554
0.718226
0.855281
0.763688
0.728388
0.764526
0.811507
0.545119
0.798836
0.841612
0.8133
0.813782
0.809714
0.799176
0.780307
0.835698
0.803109
0.84297
0.721112
0.707418
0.800343
0.795155
0.822016
0.708756
0.847958
0.800433
0.816048
0.798738
0.77918
0.808273
0.594686
0.677472
0.632466
0.812931
0.803816
0.826351
0.749264
0.810598
0.814795
0.82039
0.798986
0.729378
0.796882
0.814306
0.8032
0.703284
0.813589
0.818905
0.840025
0.810778
0.825333
0.862291
0.857271
0.743955
0.60348
0.838029
0.805809
0.84338
0.814224
0.822915
0.81352
0.8138
0.634455
0.805197
0.809306
0.812823
0.791906
0.810592
0.804775
0.860544
0.798673
0.812737
0.814711
0.871919
0.597702
0.813457
0.842445
0.883317
0.530587
0.816401
0.829956
0.796146
0.814752
0.794957
0.867596
0.8122
0.831347
0.812724
0.619415
0.802399
0.804151
0.690935
0.853139
0.759766
0.801813
0.813975
0.812713
0.859728
0.795356
0.833611
0.834719
0.784304
0.825183
0.842376
0.799754
0.810505
0.806971
0.805319
0.814844
0.802635
0.845222
0.769262
0.809785
0.803166
0.815216
0.723175
0.812896
0.818352
0.752616
0.813584
0.816353
0.827583
0.825116
0.800732
0.800668
0.850499
0.767929
0.825147
0.844205
0.80456
0.505836
0.8129
0.828278
0.852387
0.812645
0.803151
0.808535
0.855046
0.78008
0.802588
0.801247
0.812938
0.727205
0.802732
0.830008
0.808028
0.794978
0.793524
0.843199
0.806611
0.845318
0.802023
0.824249
0.812766
0.804221
0.841854
0.81287
0.679521
0.818779
0.807104
0.812838
0.906144
0.800817
0.815896
0.800493
0.800412
0.816205
0.800517
0.803365
0.783731
0.747359
0.806509
0.8129
0.758038
0.791415
0.823023
0.813022
0.822258
0.806324
0.825774
0.875305
0.830649
0.575018
0.708834
0.840754
0.81729
0.844158
0.814764
0.850103
0.807353
0.812405
0.799365
0.83841
0.860932
0.852792
0.731565
0.81409
0.822179
0.743955
0.817121
0.775953
0.800235
0.733108
0.816067
0.830866
0.823473
0.861874
0.814217
0.813302
0.81019
0.814646
0.835794
0.812206
0.79868
0.810237
0.73759
0.811353
0.774176
0.832841
0.812782
0.638854
0.777648
0.811159
0.799198
0.819829
0.802494
0.814679
0.817302
0.80447
0.8194
0.804167
0.805867
0.597395
0.847044
0.825133
0.826705
0.814939
0.803225
0.701877
0.806498
0.907835
0.813593
0.801051
0.81289
0.782292
0.807274
0.81329
0.821289
0.814644
0.813232
0.816242
0.701681
0.777866
0.76461
0.812667
0.805328
0.801047
0.621396
0.805732
0.80265
0.708248
0.837207
0.817203
0.802209
0.80747
0.799417
0.817253
0.81394
0.813294
0.812884
0.709712
0.831698
0.800288
0.807429
0.842821
0.817638
0.816298
0.800195
0.753672
0.823838
0.787432
0.821438
0.789423
0.805656
0.820956
0.737534
0.817407
0.650753
0.872029
0.704372
0.845008
0.800816
0.875159
0.793724
0.801686
0.820675
0.836239
0.838415
0.825473
0.819832
0.814715
0.801141
0.804188
0.808251
0.725821
0.827242
0.800088
0.719647
0.830537
0.705805
0.800022
0.860426
0.805586
0.701556
0.797852
0.814093
0.704936
0.785661
0.819389
0.831861
0.806972
0.574156
0.728708
0.812392
0.801347
0.812933
0.800688
0.737246
0.81402
0.815723
0.812499
0.775376
0.803267
0.804497
0.803593
0.560518
0.812721
0.834109
0.579934
0.815171
0.816108
0.814703
0.818365
0.814427
0.824542
0.7991
0.795128
0.771031
0.822901
0.829669
0.825109
0.834902
0.765375
0.809012
0.724488
0.772382
0.808821
0.821078
0.813292
0.800976
0.858322
0.812937
0.800348
0.809604
0.816101
0.815194
0.836633
0.8145
0.812816
0.811984
0.813825
0.800162
0.820999
0.803771
0.822834
0.813474
0.575659
0.813521
0.834466
0.858103
0.838189
0.490956
0.816813
0.804536
0.496736
0.66946
0.643405
0.834301
0.807984
0.811655
0.812808
0.803206
0.816754
0.810967
0.53468
0.686579
0.818242
0.806629
0.81562
0.803511
0.810243
0.810918
0.820242
0.799532
0.692384
0.855952
0.803152
0.814722
0.81363
0.757796
0.485898
0.832897
0.813552
0.741971
0.802704
0.806222
0.591086
0.827533
0.814789
0.827724
0.818786
0.826
0.804734
0.719505
0.643601
0.562139
0.82532
0.808536
0.782976
0.81298
0.779814
0.817895
0.873315
0.762384
0.821614
0.813533
0.825841
0.883565
0.814449
0.811843
0.803269
0.813869
0.691786
0.828212
0.799895
0.810183
0.802213
0.784258
0.854164
0.822045
0.840486
0.821528
0.75759
0.75592
0.803329
0.818107
0.803066
0.805248
0.802592
0.77567
0.81469
0.761603
0.821168
0.662102
0.813979
0.802965
0.735691
0.823258
0.817981
0.740011
0.801169
0.757234
0.880685
0.800725
0.812849
0.762701
0.800105
0.814279
0.803952
0.589928
0.820947
0.79867
0.80136
0.814532
0.825616
0.757161
0.805541
0.841648
0.826956
0.814102
0.83584
0.700637
0.700175
0.812933
0.74418
0.822222
0.771384
0.812841
0.802522
0.810406
0.751975
0.794202
0.76435
0.809899
0.803145
0.631236
0.779031
0.79924
0.84903
0.814374
0.828654
0.526589
0.825341
0.78515
0.858738
0.800944
0.817988
0.800301
0.785798
0.798762
0.825714
0.835767
0.821771
0.817123
0.70694
0.77385
0.815365
0.805383
0.809985
0.80391
0.706777
0.79284
0.803477
0.81067
0.827192
0.851212
0.831854
0.813472
0.799446
0.804243
0.802037
0.779646
0.611663
0.800337
0.731331
0.661948
0.822809
0.798859
0.777272
0.799991
0.754178
0.785303
0.811464
0.822201
0.803351
0.816013
0.817357
0.820665
0.813396
0.808482
0.712173
0.699422
0.64094
0.829281
0.869569
0.815368
0.841358
0.847839
0.863739
0.735729
0.81659
0.863013
0.810199
0.812879
0.816197
0.732815
0.812429
0.806671
0.806208
0.517362
0.812972
0.761194
0.813163
0.813789
0.803544
0.705516
0.813204
0.61066
0.825034
0.802289
0.822243
0.855165
0.803432
0.795375
0.820935
0.811584
0.805712
0.762267
0.509962
0.820899
0.803087
0.828941
0.825764
0.80211
0.807027
0.834467
0.720855
0.500541
0.886262
0.800594
0.815692
0.804324
0.710451
0.798644
0.800017
0.815067
0.736115
0.646538
0.88325
0.714179
0.83655
0.81199
0.83289
0.842664
0.792188
0.804746
0.8136
0.852781
0.738333
0.870704
0.81402
0.56286
0.802471
0.748916
0.852913
0.760312
0.804219
0.803955
0.799641
0.801594
0.808883
0.812913
0.855577
0.805999
0.802867
0.801312
0.800015
0.812246
0.816875
0.802618
0.81249
0.849208
0.803099
0.783461
0.802239
0.83961
0.725072
0.813632
0.81383
0.638138
0.713127
0.805548
0.823024
0.803567
0.511828
0.856346
0.813216
0.833013
0.805307
0.803314
0.801343
0.786253
0.587216
0.804297
0.816103
0.83599
0.820566
0.812955
0.798171
0.746975
0.801572
0.7658
0.787541
0.799343
0.790966
0.751097
0.800848
0.811472
0.810374
0.832201
0.84909
0.553326
0.841904
0.812849
0.82085
0.802008
0.822663
0.811081
0.894614
0.80024
0.867123
0.805689
0.759785
0.862123
0.802281
0.800245
0.82416
0.66043
0.645318
0.803396
0.803857
0.704851
0.654333
0.799902
0.823852
0.813034
0.822588
0.732988
0.817187
0.812845
0.826132
0.816949
0.811944
0.812869
0.754595
0.803905
0.815679
0.811336
0.676246
0.566491
0.812906
0.65003
0.721943
0.555167
0.841396
0.80013
0.527072
0.600808
0.827515
0.908067
0.818147
0.652345
0.814161
0.786443
0.801724
0.786397
0.820662
0.810105
0.788288
0.821054
0.801014
0.58772
0.817825
0.766685
0.81593
0.700873
0.822221
0.789648
0.813952
0.800058
0.6629
0.843513
0.806555
0.806624
0.493688
0.816833
0.800389
0.85218
0.711323
0.817087
0.584082
0.718962
0.801409
0.796671
0.732776
0.715571
0.715942
0.507096
0.589803
0.799997
0.517631
0.8226
0.520393
0.757202
0.671316
0.599468
0.540697
0.745445
0.803082
0.715134
0.821296
0.800941
0.802944
0.761204
0.889679
0.799054
0.824481
0.803431
0.812793
0.70598
0.807577
0.736711
0.82191
0.886039
0.833572
0.74773
0.822789
0.770502
0.879902
0.804197
0.758675
0.850684
0.77687
0.799928
0.8053
0.758243
0.744641
0.66551
0.804986
0.803024
0.817909
0.83349
0.611515
0.807922
0.53818
0.668615
0.61641
0.818526
0.821042
0.809
0.803977
0.61571
0.872459
0.802678
0.802946
0.863517
0.812429
0.772034
0.812166
0.802368
0.817903
0.803145
0.717058
0.803371
0.655416
0.799013
0.804099
0.801549
0.639191
0.81153
0.810307
0.725647
0.817809
0.549193
0.576746
0.804147
0.696501
0.725958
0.572142
0.723638
0.813624
0.707458
0.772983
0.716677
0.812804
0.670225
0.762117
0.806453
0.810609
0.654547
0.801949
0.895156
0.796702
0.816797
0.585246
0.693829
0.800941
0.812948
0.814011
0.851657
0.812648
0.804256
0.803729
0.803339
0.713818
0.717549
0.61566
0.771483
0.532885
0.723894
0.809922
0.81441
0.806137
0.799273
0.536517
0.809067
0.803759
0.554041
0.543402
0.746606
0.803574
0.80618
0.549383
0.798222
0.569638
0.720535
0.607815
0.813541
0.802261
0.597083
0.608325
0.867895
0.810043
0.765418
0.71788
0.621755
0.655352
0.709698
0.816012
0.759785
0.7655
0.624046
0.753883
0.809311
0.815366
0.812457
0.815473
0.865627
0.754704
0.81893
0.803336
0.851279
0.812861
0.802775
0.81308
0.722525
0.812949
0.811992
0.815184
0.811153
0.815892
0.803272
0.817925
0.810387
0.809739
0.817265
0.800115
0.816593
0.818951
0.667496
0.818607
0.868414
0.818166
0.79293
0.645935
0.858579
0.818787
0.824885
0.79955
0.811214
0.757503
0.852544
0.559504
0.726686
0.809862
0.815666
0.803875
0.803362
0.832045
0.805033
0.805207
0.815262
0.78072
0.83855
0.841944
0.815206
0.664339
0.612469
0.815765
0.816619
0.788312
0.849626
0.847256
0.810855
0.813628
0.777765
0.814087
0.817831
0.814111
0.818774
0.813101
0.815822
0.851041
0.815968
0.814501
0.817552
0.817765
0.784897
0.814117
0.804058
0.804136
0.80462
0.818566
0.811485
0.788353
0.75396
0.812669
0.806278
0.808779
0.806377
0.857767
0.80335
0.813994
0.812694
0.805193
0.567668
0.803888
0.812738
0.815023
0.810314
0.812781
0.813297
0.813021
0.810177
0.864389
0.501634
0.812811
0.841657
0.812647
0.802964
0.808415
0.814996
0.839674
0.800452
0.80122
0.812607
0.705842
0.812829
0.80822
0.807359
0.812549
0.812879
0.813022
0.813355
0.511895
0.811868
0.715833
0.88584
0.821051
0.733392
0.671523
0.815358
0.803515
0.818722
0.646515
0.801662
0.813326
0.648001
0.799858
0.804096
0.815438
0.806272
0.856735
0.809849
0.606957
0.800833
0.77517
0.811215
0.889071
0.803284
0.815513
0.819317
0.8322
0.813392
0.822393
0.836336
0.634991
0.802629
0.6558
0.81374
0.81364
0.7125
0.813525
0.804816
0.713105
0.814916
0.701326
0.86107
0.784095
0.81429
0.812885
0.81342
0.667918
0.813646
0.633314
0.800201
0.79237
0.822287
0.815173
0.71605
0.766696
0.830042
0.812746
0.821293
0.821896
0.813429
0.825324
0.799504
0.552129
0.754896
0.759221
0.731393
0.8376
0.822357
0.834335
0.776039
0.802761
0.813019
0.812942
0.812945
0.774644
0.56385
0.803203
0.528615
0.808197
0.824279
0.799707
0.803758
0.812961
0.806014
0.782623
0.732201
0.813378
0.859139
0.813692
0.799294
0.736905
0.809612
0.788722
0.833711
0.503989
0.795978
0.805899
0.798879
0.689205
0.812832
0.810747
0.85708
0.569108
0.807334
0.803269
0.812813
0.612595
0.813077
0.803333
0.803402
0.803027
0.813189
0.813287
0.816095
0.813029
0.71781
0.804501
0.8032
0.812978
0.896159
0.813135
0.773989
0.841149
0.79918
0.803133
0.601368
0.812872
0.803357
0.825661
0.801968
0.866218
0.814816
0.853422
0.800345
0.820621
0.777883
0.558337
0.752712
0.794241
0.80393
0.813934
0.813791
0.555549
0.861776
0.857927
0.768477
0.757668
0.738521
0.812066
0.848415
0.81291
0.813702
0.812944
0.804273
0.72676
0.8035
0.799111
0.764205
0.824246
0.822981
0.861834
0.815635
0.812956
0.524797
0.808886
0.812915
0.800711
0.773972
0.818066
0.80311
0.812866
0.826868
0.798449
0.803587
0.801221
0.815159
0.839102
0.802376
0.799167
0.801498
0.766088
0.819847
0.567114
0.868369
0.803687
0.545785
0.803164
0.803124
0.819568
0.592087
0.606185
0.801556
0.80364
0.800852
0.860721
0.779935
0.814613
0.802936
0.865742
0.804712
0.804449
0.826301
0.815929
0.820099
0.821254
0.820303
0.867469
0.729272
0.852136
0.817177
0.653693
0.802543
0.803183
0.803636
0.821098
0.823482
0.803968
0.80109
0.800055
0.822652
0.803197
0.803604
0.799667
0.82436
0.80397
0.801994
0.806074
0.827841
0.800546
0.801526
0.824265
0.799588
0.815357
0.651291
0.826362
0.849826
0.804867
0.819546
0.803229
0.828722
0.837471
0.803396
0.82145
0.800534
0.806981
0.789551
0.802156
0.803158
0.806353
0.805897
0.804516
0.818517
0.81472
0.811232
0.831382
0.802184
0.802218
0.799907
0.788997
0.833761
0.803144
0.819275
0.81518
0.807102
0.805037
0.802947
0.838883
0.864752
0.799576
0.678959
0.801183
0.842126
0.816563
0.805131
0.804461
0.819685
0.844572
0.601829
0.828759
0.794488
0.850375
0.818701
0.811991
0.813267
0.808233
0.803953
0.812764
0.808748
0.591862
0.84796
0.7946
0.81415
0.854567
0.819249
0.763184
0.808629
0.814422
0.815431
0.802963
0.661712
0.809206
0.863134
0.80257
0.800706
0.775417
0.871202
0.800432
0.877055
0.806675
0.817133
0.820583
0.802228
0.803819
0.812573
0.81585
0.803473
0.813292
0.816713
0.881337
0.820683
0.809291
0.80014
0.828384
0.810474
0.838857
0.808803
0.806937
0.812121
0.816515
0.829885
0.813626
0.822504
0.832496
0.814165
0.699736
0.690895
0.813011
0.817711
0.803813
0.813089
0.51416
0.854854
0.799763
0.806221
0.8139
0.813449
0.803956
0.812445
0.800477
0.801206
0.808025
0.814708
0.756895
0.784637
0.822909
0.842687
0.834787
0.80026
0.805059
0.803353
0.812904
0.805698
0.799526
0.799794
0.801008
0.810886
0.797804
0.802752
0.835465
0.831324
0.729858
0.668219
0.807572
0.698648
0.799499
0.57238
0.804404
0.806926
0.803106
0.81813
0.833774
0.813888
0.812823
0.810258
0.803842
0.881507
0.816232
0.804803
0.772254
0.586038
0.810231
0.806625
0.76936
0.814379
0.813837
0.791464
0.800699
0.804027
0.624869
0.830419
0.803499
0.781491
0.779302
0.85269
0.809981
0.802885
0.802607
0.810201
0.811052
0.518782
0.801782
0.839464
0.813888
0.798567
0.588794
0.814522
0.814032
0.812912
0.833701
0.81388
0.803925
0.821858
0.805592
0.575819
0.808625
0.736542
0.798498
0.813596
0.722207
0.814888
0.845994
0.831591
0.664508
0.89089
0.785581
0.777413
0.796867
0.779515
0.808609
0.849968
0.807977
0.802863
0.813509
0.808827
0.782608
0.78592
0.813843
0.808318
0.83482
0.821236
0.835656
0.80127
0.799659
0.813007
0.856591
0.816427
0.818342
0.813306
0.607366
0.795517
0.823856
0.829318
0.865879
0.812565
0.818911
0.508814
0.809708
0.800593
0.81257
0.814726
0.84756
0.813011
0.811079
0.881484
0.764542
0.812538
0.813196
0.808988
0.805205
0.814187
0.655927
0.800494
0.849505
0.833487
0.810585
0.813522
0.813326
0.809557
0.699027
0.812458
0.800171
0.838539
0.818436
0.811593
0.831292
0.792704
0.811513
0.817776
0.808797
0.81925
0.744269
0.854742
0.818926
0.813767
0.813014
0.812662
0.815676
0.817116
0.812709
0.810749
0.841046
0.818555
0.800159
0.825258
0.826914
0.816026
0.814446
0.800367
0.80151
0.813004
0.818986
0.829381
0.812755
0.816416
0.799833
0.809923
0.812792
0.812757
0.802493
0.814622
0.813286
0.803236
0.812816
0.835624
0.800018
0.809394
0.821516
0.560026
0.81417
0.818125
0.815476
0.814966
0.821928
0.82879
0.81558
0.818796
0.701449
0.813016
0.801334
0.815575
0.818982
0.835038
0.821526
0.815513
0.829335
0.824903
0.810632
0.81917
0.819516
0.80419
0.813113
0.815562
0.819429
0.832078
0.812585
0.815656
0.802713
0.812889
0.813007
0.522731
0.62771
0.814334
0.8214
0.801733
0.82243
0.815864
0.841839
0.708128
0.813701
0.730483
0.817362
0.810276
0.813117
0.829315
0.813611
0.80487
0.812875
0.830048
0.839301
0.812752
0.719202
0.819235
0.815988
0.799923
0.803026
0.815267
0.855901
0.812603
0.813328
0.84967
0.828967
0.84324
0.573544
0.829073
0.813899
0.810856
0.817358
0.850515
0.817722
0.718404
0.799547
0.831723
0.799779
0.799734
0.80539
0.747836
0.813352
0.814302
0.72545
0.814313
0.827303
0.813272
0.813988
0.799228
0.818334
0.81294
0.823532
0.808691
0.808166
0.814929
0.705396
0.819033
0.814036
0.812925
0.639932
0.71868
0.599395
0.823238
0.529777
0.853821
0.727332
0.842772
0.812482
0.722776
0.82138
0.815839
0.742557
0.807654
0.818311
0.794401
0.816479
0.815819
0.815749
0.81294
0.807848
0.803658
0.7373
0.83613
0.820126
0.816565
0.799231
0.815397
0.802008
0.815963
0.813414
0.854614
0.817729
0.497178
0.813259
0.818746
0.818619
0.778051
0.815709
0.806715
0.81854
0.845352
0.596461
0.809106
0.799311
0.815275
0.817576
0.817646
0.812406
0.818556
0.813812
0.814537
0.803069
0.814233
0.84608
0.813889
0.791996
0.811447
0.622554
0.718711
0.813017
0.81695
0.802932
0.822259
0.73545
0.803148
0.803183
0.820162
0.62864
0.81755
0.799359
0.81537
0.864668
0.785486
0.821905
0.817932
0.822763
0.813973
0.769597
0.802422
0.813519
0.902287
0.827132
0.816382
0.832176
0.809562
0.868208
0.719342
0.688804
0.852329
0.802699
0.665298
0.850291
0.786045
0.831962