# vtk DataFile Version 1.0
unstructured grid
ascii
DATASET UNSTRUCTURED_GRID
points 7812 float
-1 0 0
-1 1 0
2 0 0
2 1 0
0 0 0
1 0 0
-1 1 0.1
-1 0 0.1
0 0 0.1
1 0 0.1
2 0 0.1
2 1 0.1
-0.99 0 0
-0.98 0 0
-0.97 0 0
-0.96 0 0
-0.95 0 0
-0.94 0 0
-0.93 0 0
-0.92 0 0
-0.91 0 0
-0.9 0 0
-0.89 0 0
-0.88 0 0
-0.87 0 0
-0.86 0 0
-0.85 0 0
-0.84 0 0
-0.83 0 0
-0.82 0 0
-0.81 0 0
-0.8 0 0
-0.79 0 0
-0.78 0 0
-0.77 0 0
-0.76 0 0
-0.75 0 0
-0.74 0 0
-0.73 0 0
-0.72 0 0
-0.71 0 0
-0.7 0 0
-0.69 0 0
-0.68 0 0
-0.67 0 0
-0.66 0 0
-0.65 0 0
-0.64 0 0
-0.63 0 0
-0.62 0 0
-0.61 0 0
-0.6 0 0
-0.59 0 0
-0.58 0 0
-0.57 0 0
-0.56 0 0
-0.55 0 0
-0.54 0 0
-0.53 0 0
-0.52 0 0
-0.51 0 0
-0.5 0 0
-0.49 0 0
-0.48 0 0
-0.47 0 0
-0.46 0 0
-0.45 0 0
-0.44 0 0
-0.43 0 0
-0.42 0 0
-0.41 0 0
-0.4 0 0
-0.39 0 0
-0.38 0 0
-0.37 0 0
-0.36 0 0
-0.35 0 0
-0.34 0 0
-0.33 0 0
-0.32 0 0
-0.31 0 0
-0.3 0 0
-0.29 0 0
-0.28 0 0
-0.27 0 0
-0.26 0 0
-0.25 0 0
-0.24 0 0
-0.23 0 0
-0.22 0 0
-0.21 0 0
-0.2 0 0
-0.19 0 0
-0.18 0 0
-0.17 0 0
-0.16 0 0
-0.15 0 0
-0.14 0 0
-0.13 0 0
-0.12 0 0
-0.11 0 0
-0.1 0 0
-0.09 0 0
-0.08 0 0
-0.07 0 0
-0.06 0 0
-0.05 0 0
-0.04 0 0
-0.03 0 0
-0.02 0 0
-0.01 0 0
1.01 0 0
1.02 0 0
1.03 0 0
1.04 0 0
1.05 0 0
1.06 0 0
1.07 0 0
1.08 0 0
1.09 0 0
1.1 0 0
1.11 0 0
1.12 0 0
1.13 0 0
1.14 0 0
1.15 0 0
1.16 0 0
1.17 0 0
1.18 0 0
1.19 0 0
1.2 0 0
1.21 0 0
1.22 0 0
1.23 0 0
1.24 0 0
1.25 0 0
1.26 0 0
1.27 0 0
1.28 0 0
1.29 0 0
1.3 0 0
1.31 0 0
1.32 0 0
1.33 0 0
1.34 0 0
1.35 0 0
1.36 0 0
1.37 0 0
1.38 0 0
1.39 0 0
1.4 0 0
1.41 0 0
1.42 0 0
1.43 0 0
1.44 0 0
1.45 0 0
1.46 0 0
1.47 0 0
1.48 0 0
1.49 0 0
1.5 0 0
1.51 0 0
1.52 0 0
1.53 0 0
1.54 0 0
1.55 0 0
1.56 0 0
1.57 0 0
1.58 0 0
1.59 0 0
1.6 0 0
1.61 0 0
1.62 0 0
1.63 0 0
1.64 0 0
1.65 0 0
1.66 0 0
1.67 0 0
1.68 0 0
1.69 0 0
1.7 0 0
1.71 0 0
1.72 0 0
1.73 0 0
1.74 0 0
1.75 0 0
1.76 0 0
1.77 0 0
1.78 0 0
1.79 0 0
1.8 0 0
1.81 0 0
1.82 0 0
1.83 0 0
1.84 0 0
1.85 0 0
1.86 0 0
1.87 0 0
1.88 0 0
1.89 0 0
1.9 0 0
1.91 0 0
1.92 0 0
1.93 0 0
1.94 0 0
1.95 0 0
1.96 0 0
1.97 0 0
1.98 0 0
1.99 0 0
2 0.010289 0
2 0.0215307 0
2 0.0338135 0
2 0.0472336 0
2 0.0618965 0
2 0.0779171 0
2 0.0954213 0
2 0.114546 0
2 0.135442 0
2 0.158274 0
2 0.183219 0
2 0.210474 0
2 0.240253 0
2 0.27279 0
2 0.308339 0
2 0.347181 0
2 0.389619 0
2 0.435987 0
2 0.486649 0
2 0.542002 0
2 0.602481 0
2 0.66856 0
2 0.740758 0
2 0.819642 0
2 0.90583 0
1.9 1 0
1.8 1 0
1.7 1 0
1.6 1 0
1.5 1 0
1.4 1 0
1.3 1 0
1.2 1 0
1.1 1 0
1 1 0
0.9 1 0
0.8 1 0
0.7 1 0
0.6 1 0
0.5 1 0
0.4 1 0
0.3 1 0
0.2 1 0
0.1 1 0
3.69793e-12 1 0
-0.1 1 0
-0.2 1 0
-0.3 1 0
-0.4 1 0
-0.5 1 0
-0.6 1 0
-0.7 1 0
-0.8 1 0
-0.9 1 0
-1 0.90583 0
-1 0.819642 0
-1 0.740758 0
-1 0.66856 0
-1 0.602481 0
-1 0.542002 0
-1 0.486649 0
-1 0.435987 0
-1 0.389619 0
-1 0.347181 0
-1 0.308339 0
-1 0.27279 0
-1 0.240253 0
-1 0.210474 0
-1 0.183219 0
-1 0.158274 0
-1 0.135442 0
-1 0.114546 0
-1 0.0954213 0
-1 0.0779171 0
-1 0.0618965 0
-1 0.0472336 0
-1 0.0338135 0
-1 0.0215307 0
-1 0.010289 0
0.00921362 0.00379763 0
0.0184561 0.00752451 0
0.0277268 0.0111804 0
0.0370253 0.0147652 0
0.0463511 0.0182786 0
0.0557034 0.0217203 0
0.0650819 0.0250903 0
0.074486 0.0283883 0
0.083915 0.0316141 0
0.0933685 0.0347675 0
0.102846 0.0378484 0
0.112347 0.0408565 0
0.12187 0.0437917 0
0.131416 0.0466538 0
0.140983 0.0494427 0
0.150572 0.0521581 0
0.160181 0.0547999 0
0.16981 0.0573681 0
0.179458 0.0598623 0
0.189125 0.0622825 0
0.198811 0.0646285 0
0.208514 0.0669001 0
0.218234 0.0690974 0
0.227971 0.07122 0
0.237724 0.073268 0
0.247493 0.0752411 0
0.257276 0.0771393 0
0.267073 0.0789625 0
0.276884 0.0807105 0
0.286708 0.0823832 0
0.296545 0.0839806 0
0.306394 0.0855025 0
0.316254 0.0869488 0
0.326125 0.0883196 0
0.336006 0.0896146 0
0.345896 0.0908339 0
0.355796 0.0919773 0
0.365704 0.0930447 0
0.375621 0.0940362 0
0.385544 0.0949517 0
0.395474 0.095791 0
0.40541 0.0965542 0
0.415352 0.0972412 0
0.425299 0.097852 0
0.43525 0.0983865 0
0.445205 0.0988447 0
0.455164 0.0992266 0
0.465125 0.0995321 0
0.475088 0.0997613 0
0.485052 0.0999141 0
0.495017 0.0999904 0
0.504983 0.0999904 0
0.514948 0.0999141 0
0.524912 0.0997613 0
0.534875 0.0995321 0
0.544836 0.0992266 0
0.554795 0.0988447 0
0.56475 0.0983865 0
0.574701 0.097852 0
0.584648 0.0972412 0
0.59459 0.0965542 0
0.604526 0.095791 0
0.614456 0.0949517 0
0.624379 0.0940362 0
0.634296 0.0930447 0
0.644204 0.0919773 0
0.654104 0.0908339 0
0.663994 0.0896146 0
0.673875 0.0883196 0
0.683746 0.0869488 0
0.693606 0.0855025 0
0.703455 0.0839806 0
0.713292 0.0823832 0
0.723116 0.0807105 0
0.732927 0.0789625 0
0.742724 0.0771393 0
0.752508 0.0752411 0
0.762276 0.073268 0
0.772029 0.07122 0
0.781766 0.0690974 0
0.791486 0.0669001 0
0.801189 0.0646285 0
0.810875 0.0622825 0
0.820542 0.0598623 0
0.83019 0.0573681 0
0.839819 0.0547999 0
0.849428 0.0521581 0
0.859017 0.0494427 0
0.868584 0.0466538 0
0.87813 0.0437917 0
0.887653 0.0408565 0
0.897154 0.0378484 0
0.906631 0.0347675 0
0.916085 0.0316141 0
0.925514 0.0283883 0
0.934918 0.0250903 0
0.944297 0.0217203 0
0.953649 0.0182786 0
0.962975 0.0147652 0
0.972273 0.0111804 0
0.981544 0.00752451 0
0.990786 0.00379763 0
-1 0.90583 0.1
-1 0.819642 0.1
-1 0.740758 0.1
-1 0.66856 0.1
-1 0.602481 0.1
-1 0.542002 0.1
-1 0.486649 0.1
-1 0.435987 0.1
-1 0.389619 0.1
-1 0.347181 0.1
-1 0.308339 0.1
-1 0.27279 0.1
-1 0.240253 0.1
-1 0.210474 0.1
-1 0.183219 0.1
-1 0.158274 0.1
-1 0.135442 0.1
-1 0.114546 0.1
-1 0.0954213 0.1
-1 0.0779171 0.1
-1 0.0618965 0.1
-1 0.0472336 0.1
-1 0.0338135 0.1
-1 0.0215307 0.1
-1 0.010289 0.1
-0.99 0 0.1
-0.98 0 0.1
-0.97 0 0.1
-0.96 0 0.1
-0.95 0 0.1
-0.94 0 0.1
-0.93 0 0.1
-0.92 0 0.1
-0.91 0 0.1
-0.9 0 0.1
-0.89 0 0.1
-0.88 0 0.1
-0.87 0 0.1
-0.86 0 0.1
-0.85 0 0.1
-0.84 0 0.1
-0.83 0 0.1
-0.82 0 0.1
-0.81 0 0.1
-0.8 0 0.1
-0.79 0 0.1
-0.78 0 0.1
-0.77 0 0.1
-0.76 0 0.1
-0.75 0 0.1
-0.74 0 0.1
-0.73 0 0.1
-0.72 0 0.1
-0.71 0 0.1
-0.7 0 0.1
-0.69 0 0.1
-0.68 0 0.1
-0.67 0 0.1
-0.66 0 0.1
-0.65 0 0.1
-0.64 0 0.1
-0.63 0 0.1
-0.62 0 0.1
-0.61 0 0.1
-0.6 0 0.1
-0.59 0 0.1
-0.58 0 0.1
-0.57 0 0.1
-0.56 0 0.1
-0.55 0 0.1
-0.54 0 0.1
-0.53 0 0.1
-0.52 0 0.1
-0.51 0 0.1
-0.5 0 0.1
-0.49 0 0.1
-0.48 0 0.1
-0.47 0 0.1
-0.46 0 0.1
-0.45 0 0.1
-0.44 0 0.1
-0.43 0 0.1
-0.42 0 0.1
-0.41 0 0.1
-0.4 0 0.1
-0.39 0 0.1
-0.38 0 0.1
-0.37 0 0.1
-0.36 0 0.1
-0.35 0 0.1
-0.34 0 0.1
-0.33 0 0.1
-0.32 0 0.1
-0.31 0 0.1
-0.3 0 0.1
-0.29 0 0.1
-0.28 0 0.1
-0.27 0 0.1
-0.26 0 0.1
-0.25 0 0.1
-0.24 0 0.1
-0.23 0 0.1
-0.22 0 0.1
-0.21 0 0.1
-0.2 0 0.1
-0.19 0 0.1
-0.18 0 0.1
-0.17 0 0.1
-0.16 0 0.1
-0.15 0 0.1
-0.14 0 0.1
-0.13 0 0.1
-0.12 0 0.1
-0.11 0 0.1
-0.1 0 0.1
-0.09 0 0.1
-0.08 0 0.1
-0.07 0 0.1
-0.06 0 0.1
-0.05 0 0.1
-0.04 0 0.1
-0.03 0 0.1
-0.02 0 0.1
-0.01 0 0.1
0.00921362 0.00379763 0.1
0.0184561 0.00752451 0.1
0.0277268 0.0111804 0.1
0.0370253 0.0147652 0.1
0.0463511 0.0182786 0.1
0.0557034 0.0217203 0.1
0.0650819 0.0250903 0.1
0.074486 0.0283883 0.1
0.083915 0.0316141 0.1
0.0933685 0.0347675 0.1
0.102846 0.0378484 0.1
0.112347 0.0408565 0.1
0.12187 0.0437917 0.1
0.131416 0.0466538 0.1
0.140983 0.0494427 0.1
0.150572 0.0521581 0.1
0.160181 0.0547999 0.1
0.16981 0.0573681 0.1
0.179458 0.0598623 0.1
0.189125 0.0622825 0.1
0.198811 0.0646285 0.1
0.208514 0.0669001 0.1
0.218234 0.0690974 0.1
0.227971 0.07122 0.1
0.237724 0.073268 0.1
0.247493 0.0752411 0.1
0.257276 0.0771393 0.1
0.267073 0.0789625 0.1
0.276884 0.0807105 0.1
0.286708 0.0823832 0.1
0.296545 0.0839806 0.1
0.306394 0.0855025 0.1
0.316254 0.0869488 0.1
0.326125 0.0883196 0.1
0.336006 0.0896146 0.1
0.345896 0.0908339 0.1
0.355796 0.0919773 0.1
0.365704 0.0930447 0.1
0.375621 0.0940362 0.1
0.385544 0.0949517 0.1
0.395474 0.095791 0.1
0.40541 0.0965542 0.1
0.415352 0.0972412 0.1
0.425299 0.097852 0.1
0.43525 0.0983865 0.1
0.445205 0.0988447 0.1
0.455164 0.0992266 0.1
0.465125 0.0995321 0.1
0.475088 0.0997613 0.1
0.485052 0.0999141 0.1
0.495017 0.0999904 0.1
0.504983 0.0999904 0.1
0.514948 0.0999141 0.1
0.524912 0.0997613 0.1
0.534875 0.0995321 0.1
0.544836 0.0992266 0.1
0.554795 0.0988447 0.1
0.56475 0.0983865 0.1
0.574701 0.097852 0.1
0.584648 0.0972412 0.1
0.59459 0.0965542 0.1
0.604526 0.095791 0.1
0.614456 0.0949517 0.1
0.624379 0.0940362 0.1
0.634296 0.0930447 0.1
0.644204 0.0919773 0.1
0.654104 0.0908339 0.1
0.663994 0.0896146 0.1
0.673875 0.0883196 0.1
0.683746 0.0869488 0.1
0.693606 0.0855025 0.1
0.703455 0.0839806 0.1
0.713292 0.0823832 0.1
0.723116 0.0807105 0.1
0.732927 0.0789625 0.1
0.742724 0.0771393 0.1
0.752508 0.0752411 0.1
0.762276 0.073268 0.1
0.772029 0.07122 0.1
0.781766 0.0690974 0.1
0.791486 0.0669001 0.1
0.801189 0.0646285 0.1
0.810875 0.0622825 0.1
0.820542 0.0598623 0.1
0.83019 0.0573681 0.1
0.839819 0.0547999 0.1
0.849428 0.0521581 0.1
0.859017 0.0494427 0.1
0.868584 0.0466538 0.1
0.87813 0.0437917 0.1
0.887653 0.0408565 0.1
0.897154 0.0378484 0.1
0.906631 0.0347675 0.1
0.916085 0.0316141 0.1
0.925514 0.0283883 0.1
0.934918 0.0250903 0.1
0.944297 0.0217203 0.1
0.953649 0.0182786 0.1
0.962975 0.0147652 0.1
0.972273 0.0111804 0.1
0.981544 0.00752451 0.1
0.990786 0.00379763 0.1
1.01 0 0.1
1.02 0 0.1
1.03 0 0.1
1.04 0 0.1
1.05 0 0.1
1.06 0 0.1
1.07 0 0.1
1.08 0 0.1
1.09 0 0.1
1.1 0 0.1
1.11 0 0.1
1.12 0 0.1
1.13 0 0.1
1.14 0 0.1
1.15 0 0.1
1.16 0 0.1
1.17 0 0.1
1.18 0 0.1
1.19 0 0.1
1.2 0 0.1
1.21 0 0.1
1.22 0 0.1
1.23 0 0.1
1.24 0 0.1
1.25 0 0.1
1.26 0 0.1
1.27 0 0.1
1.28 0 0.1
1.29 0 0.1
1.3 0 0.1
1.31 0 0.1
1.32 0 0.1
1.33 0 0.1
1.34 0 0.1
1.35 0 0.1
1.36 0 0.1
1.37 0 0.1
1.38 0 0.1
1.39 0 0.1
1.4 0 0.1
1.41 0 0.1
1.42 0 0.1
1.43 0 0.1
1.44 0 0.1
1.45 0 0.1
1.46 0 0.1
1.47 0 0.1
1.48 0 0.1
1.49 0 0.1
1.5 0 0.1
1.51 0 0.1
1.52 0 0.1
1.53 0 0.1
1.54 0 0.1
1.55 0 0.1
1.56 0 0.1
1.57 0 0.1
1.58 0 0.1
1.59 0 0.1
1.6 0 0.1
1.61 0 0.1
1.62 0 0.1
1.63 0 0.1
1.64 0 0.1
1.65 0 0.1
1.66 0 0.1
1.67 0 0.1
1.68 0 0.1
1.69 0 0.1
1.7 0 0.1
1.71 0 0.1
1.72 0 0.1
1.73 0 0.1
1.74 0 0.1
1.75 0 0.1
1.76 0 0.1
1.77 0 0.1
1.78 0 0.1
1.79 0 0.1
1.8 0 0.1
1.81 0 0.1
1.82 0 0.1
1.83 0 0.1
1.84 0 0.1
1.85 0 0.1
1.86 0 0.1
1.87 0 0.1
1.88 0 0.1
[...]
CELL_DATA 7425
SCALARS rho float
LOOKUP_TABLE default
0.598162
0.805748
0.822593
0.830032
0.801576
0.822076
0.823158
0.817878
0.817239
0.7423
0.864693
0.811339
0.817716
0.829888
0.805813
0.820413
0.800633
0.817352
0.804014
0.770022
0.833674
0.823156
0.72874
0.830588
0.804473
0.712861
0.83355
0.851745
0.801005
0.80957
0.821674
0.723818
0.804175
0.661043
0.543619
0.830556
0.804044
0.817867
0.812429
0.830344
0.724037
0.716293
0.792571
0.68606
0.600141
0.751809
0.802277
0.817669
0.687287
0.718096
0.747013
0.805879
0.813466
0.801025
0.703582
0.677219
0.825724
0.801506
0.74219
0.706191
0.721455
0.808513
0.817338
0.801232
0.799646
0.820807
0.594968
0.776274
0.675651
0.809532
0.805965
0.803486
0.884239
0.822237
0.812015
0.817289
0.805776
0.801219
0.817329
0.758716
0.819388
0.808096
0.814219
0.790496
0.83766
0.80304
0.584873
0.832187
0.559259
0.850227
0.689928
0.73358
0.848601
0.803667
0.820615
0.763613
0.838085
0.789817
0.828289
0.804695
0.811371
0.739176
0.803815
0.830588
0.606317
0.812333
0.826925
0.714247
0.818563
0.801237
0.819954
0.786617
0.791467
0.813362
0.792318
0.788226
0.83359
0.803364
0.690576
0.678995
0.805776
0.780139
0.81723
0.792105
0.86046
0.841735
0.808571
0.806696
0.667927
0.528377
0.818069
0.664031
0.537914
0.871744
0.68865
0.801677
0.812227
0.728515
0.592603
0.733357
0.730911
0.811558
0.8137
0.700383
0.804887
0.78149
0.575617
0.792084
0.783716
0.830323
0.819061
0.689944
0.804985
0.745261
0.700629
0.803869
0.811725
0.832845
0.800167
0.669402
0.803511
0.687192
0.803073
0.832209
0.823411
0.802817
0.817271
0.787534
0.807266
0.80273
0.822735
0.806772
0.79466
0.801188
0.801372
0.74723
0.805818
0.764055
0.609602
0.684678
0.80168
0.795725
0.880701
0.834012
0.684196
0.825736
0.800647
0.829712
0.801816
0.817372
0.817044
0.803704
0.807943
0.700332
0.818566
0.822192
0.772829
0.800059
0.864503
0.808737
0.813543
0.815413
0.621375
0.841772
0.583673
0.553977
0.604668
0.625972
0.830188
0.880263
0.808361
0.799521
0.84296
0.817295
0.819915
0.823701
0.818719
0.64447
0.632344
0.817607
0.562998
0.607645
0.696409
0.815088
0.817743
0.817289
0.835397
0.817381
0.868033
0.702999
0.837135
0.72416
0.806205
0.804515
0.802732
0.71932
0.729368
0.626284
0.693689
0.865023
0.879741
0.809729
0.808561
0.801907
0.813403
0.726556
0.8245
0.802421
0.828293
0.79603
0.813983
0.720062
0.817251
0.826496
0.747239
0.543134
0.80148
0.736988
0.845292
0.817956
0.725096
0.819011
0.818438
0.851371
0.813348
0.806433
0.803705
0.828312
0.862241
0.807769
0.62584
0.850608
0.814701
0.806377
0.830065
0.839115
0.817041
0.824183
0.795047
0.818626
0.870548
0.851383
0.829374
0.838926
0.803609
0.820421
0.803485
0.760705
0.711089
0.591281
0.689882
0.805362
0.817167
0.819394
0.858162
0.781856
0.652133
0.829669
0.544968
0.777179
0.802932
0.652841
0.676149
0.645489
0.81873
0.817334
0.817293
0.816548
0.82932
0.77625
0.812418
0.80335
0.817383
0.842752
0.871245
0.835792
0.803908
0.687985
0.798601
0.836063
0.697289
0.800725
0.802691
0.866054
0.82037
0.601706
0.817359
0.747893
0.855693
0.737735
0.814037
0.908113
0.802049
0.797594
0.66572
0.642361
0.705731
0.784491
0.829115
0.818503
0.817585
0.887068
0.861205
0.801679
0.801552
0.827143
0.74485
0.803807
0.880424
0.801902
0.807213
0.802779
0.802986
0.817001
0.819165
0.81971
0.646844
0.83204
0.663517
0.81021
0.649872
0.805571
0.80279
0.84219
0.737002
0.817413
0.811844
0.820243
0.801247
0.802892
0.81247
0.711252
0.825581
0.817266
0.816964
0.801297
0.738754
0.570076
0.807255
0.815201
0.803615
0.817328
0.796794
0.659249
0.848241
0.817309
0.804431
0.788448
0.817348
0.806431
0.804821
0.819611
0.808355
0.825321
0.771953
0.814881
0.808712
0.573059
0.805398
0.646496
0.840382
0.643062
0.818193
0.878974
0.616256
0.819801
0.752958
0.8052
0.87436
0.555876
0.82587
0.825106
0.804073
0.828389
0.812793
0.82623
0.833058
0.827471
0.746903
0.830082
0.762417
0.812122
0.795626
0.796344
0.762238
0.806478
0.802485
0.817588
0.758211
0.806275
0.613381
0.622842
0.701132
0.816886
0.846055
0.866219
0.832139
0.800643
0.81707
0.80657
0.821197
0.686348
0.80277
0.747448
0.825972
0.818175
0.807993
0.704846
0.732197
0.549548
0.613301
0.803201
0.618788
0.795766
0.766774
0.773285
0.725111
0.76606
0.771357
0.813373
0.818513
0.822587
0.815699
0.719709
0.628314
0.841056
0.810173
0.785216
0.812396
0.803814
0.838752
0.729154
0.856902
0.76522
0.737917
0.768709
0.814969
0.560409
0.80081
0.843634
0.815244
0.817648
0.813552
0.801349
0.784234
0.837507
0.803531
0.844949
0.72492
0.701671
0.801647
0.79788
0.824851
0.715559
0.84978
0.802741
0.819392
0.800627
0.781407
0.810732
0.603345
0.683295
0.639014
0.816714
0.806103
0.828909
0.752689
0.811515
0.818407
0.823346
0.801048
0.737699
0.800241
0.816865
0.803601
0.716558
0.817513
0.821836
0.841958
0.814984
0.828011
0.863503
0.85864
0.749456
0.611912
0.839691
0.807608
0.844944
0.817953
0.824791
0.817482
0.81766
0.679951
0.807822
0.812227
0.817282
0.794479
0.812832
0.806965
0.86414
0.800714
0.817204
0.818327
0.873123
0.606203
0.817411
0.845302
0.884166
0.545477
0.819743
0.83199
0.797389
0.815827
0.797648
0.868881
0.814645
0.833746
0.815321
0.627152
0.803081
0.804824
0.703011
0.854524
0.760219
0.803088
0.817725
0.816873
0.863249
0.796603
0.835559
0.836978
0.788027
0.827028
0.845046
0.801847
0.812886
0.809323
0.806079
0.817908
0.803031
0.847028
0.770749
0.810781
0.803954
0.817541
0.728968
0.817296
0.821498
0.755998
0.817507
0.818939
0.829995
0.827765
0.802703
0.802134
0.851928
0.768793
0.827856
0.846062
0.805313
0.529825
0.817149
0.830812
0.853773
0.816064
0.803431
0.810089
0.856446
0.78121
0.803261
0.803048
0.817322
0.736864
0.804412
0.831838
0.810706
0.796342
0.796975
0.845164
0.807427
0.846833
0.802433
0.826985
0.816644
0.804859
0.843443
0.817114
0.689472
0.821887
0.807952
0.816716
0.906619
0.802156
0.81868
0.801688
0.801906
0.819578
0.802008
0.804049
0.78447
0.747949
0.809997
0.817311
0.761603
0.794823
0.825777
0.81396
0.825109
0.807897
0.828427
0.876307
0.833073
0.601686
0.713188
0.842798
0.820538
0.845977
0.818266
0.851699
0.809718
0.814676
0.801256
0.840444
0.862396
0.854468
0.737258
0.817864
0.824904
0.743909
0.819615
0.777581
0.801536
0.738299
0.819456
0.833286
0.824592
0.865616
0.817874
0.817367
0.813835
0.818186
0.837737
0.813177
0.800559
0.811156
0.743198
0.81562
0.775234
0.834953
0.815209
0.645286
0.779826
0.813378
0.80106
0.822854
0.804701
0.81822
0.82055
0.806217
0.822396
0.804845
0.808342
0.614411
0.848896
0.827785
0.829314
0.817313
0.803802
0.706654
0.809219
0.908302
0.817262
0.803392
0.81679
0.784407
0.809803
0.816989
0.824206
0.815667
0.817328
0.81962
0.677783
0.781323
0.768819
0.816826
0.806973
0.803368
0.629207
0.808173
0.804733
0.714709
0.839379
0.820449
0.803854
0.80967
0.800986
0.820425
0.816346
0.817366
0.817329
0.714035
0.83382
0.801461
0.809939
0.845059
0.819944
0.819616
0.802024
0.754704
0.826398
0.7908
0.824311
0.791158
0.808257
0.823899
0.739677
0.820217
0.672
0.873231
0.70962
0.846912
0.804155
0.876155
0.795451
0.802827
0.823637
0.838417
0.840127
0.827927
0.822855
0.818075
0.804194
0.805278
0.809677
0.73577
0.829034
0.800857
0.718627
0.832676
0.682298
0.802267
0.863978
0.806429
0.715007
0.79926
0.817865
0.697649
0.786496
0.822397
0.833839
0.810539
0.652461
0.738115
0.813486
0.803731
0.817332
0.802576
0.741106
0.817703
0.819172
0.816877
0.77824
0.803713
0.805273
0.806154
0.570662
0.817162
0.835789
0.596008
0.818709
0.819504
0.818318
0.82151
0.818071
0.827235
0.801289
0.796255
0.771658
0.824565
0.831306
0.826752
0.837972
0.769256
0.812856
0.734168
0.7742
0.811126
0.82401
0.817311
0.801632
0.861627
0.81732
0.803655
0.813543
0.819416
0.818717
0.838821
0.818166
0.817093
0.812896
0.817663
0.80253
0.823894
0.804495
0.825653
0.817455
0.591425
0.817483
0.836738
0.861376
0.840082
0.551237
0.820104
0.807053
0.521747
0.680884
0.665247
0.836343
0.810399
0.81257
0.816926
0.803441
0.82006
0.812651
0.550359
0.698339
0.81976
0.807441
0.819042
0.804046
0.811354
0.815087
0.823083
0.801088
0.705507
0.859494
0.8034
0.815756
0.817444
0.761003
0.555257
0.835227
0.815347
0.741843
0.802984
0.808975
0.612857
0.82946
0.818255
0.830284
0.821894
0.828677
0.805442
0.730327
0.649977
0.572375
0.827999
0.811129
0.784077
0.81724
0.78333
0.821085
0.874344
0.76549
0.82451
0.817194
0.828445
0.884521
0.818078
0.81583
0.804241
0.814802
0.700384
0.830747
0.801496
0.812854
0.802972
0.786077
0.855815
0.824867
0.842101
0.824426
0.757853
0.759108
0.805721
0.82113
0.803371
0.806002
0.803643
0.779394
0.818246
0.765931
0.823626
0.668058
0.817699
0.803927
0.734607
0.825177
0.82067
0.74366
0.802242
0.760823
0.885148
0.801348
0.817314
0.766297
0.802407
0.817989
0.80459
0.599564
0.822838
0.801203
0.804693
0.818186
0.828122
0.761852
0.807863
0.844556
0.829508
0.815712
0.838061
0.676405
0.704997
0.817333
0.747755
0.825079
0.774321
0.817295
0.803134
0.812832
0.755425
0.795417
0.768186
0.813546
0.80339
0.63774
0.780685
0.800025
0.85223
0.818064
0.83117
0.54635
0.826445
0.787047
0.860265
0.801634
0.81974
0.802573
0.788742
0.800687
0.828169
0.837462
0.823642
0.820295
0.702249
0.777367
0.818353
0.806127
0.814251
0.804574
0.697157
0.795526
0.80506
0.813048
0.829356
0.852614
0.834232
0.817452
0.801515
0.806185
0.803683
0.782046
0.620062
0.803593
0.737875
0.668739
0.825465
0.800649
0.778018
0.801928
0.757519
0.787067
0.815934
0.824303
0.806117
0.819327
0.819925
0.822648
0.817413
0.810951
0.716426
0.704447
0.647232
0.831767
0.870796
0.817444
0.843385
0.849577
0.864938
0.743938
0.819362
0.864317
0.813067
0.817381
0.818696
0.738094
0.815853
0.809206
0.808614
0.536957
0.817283
0.764805
0.81723
0.814862
0.804059
0.699709
0.817247
0.618919
0.82689
0.804137
0.82418
0.856785
0.803981
0.796628
0.823874
0.815364
0.807168
0.765751
0.535892
0.823792
0.803952
0.831727
0.828391
0.805471
0.807859
0.836429
0.726606
0.541191
0.887113
0.803531
0.819149
0.805046
0.705429
0.800587
0.802028
0.818625
0.743775
0.652826
0.8841
0.719309
0.838739
0.815929
0.835218
0.844618
0.795619
0.805427
0.817414
0.854176
0.742024
0.87176
0.817804
0.5732
0.80481
0.748783
0.85459
0.764577
0.804914
0.804576
0.80144
0.802534
0.812725
0.817364
0.858517
0.808307
0.803117
0.801819
0.801862
0.816725
0.820175
0.802917
0.816977
0.850997
0.803314
0.786421
0.802664
0.842234
0.734726
0.817542
0.817579
0.685089
0.71828
0.806647
0.825689
0.806187
0.534626
0.859729
0.816914
0.83563
0.806044
0.803741
0.802143
0.789436
0.595228
0.805335
0.819499
0.837675
0.823537
0.817313
0.801532
0.753267
0.802706
0.770521
0.789348
0.801298
0.792422
0.751676
0.802631
0.813817
0.814241
0.834108
0.852096
0.568076
0.843919
0.817357
0.821853
0.803799
0.82376
0.815576
0.895327
0.802619
0.870991
0.80668
0.764042
0.863342
0.803048
0.800945
0.826749
0.666737
0.651743
0.803898
0.804521
0.678097
0.660561
0.80059
0.82657
0.817293
0.82542
0.739518
0.819538
0.817009
0.828769
0.819764
0.812884
0.817379
0.758026
0.806141
0.819056
0.815831
0.681672
0.577359
0.817417
0.656139
0.725991
0.56672
0.843387
0.802026
0.553466
0.609403
0.829425
0.908535
0.821292
0.658743
0.817851
0.78938
0.803547
0.788201
0.823284
0.813099
0.790073
0.823853
0.804251
0.598664
0.821
0.770231
0.81922
0.694276
0.825053
0.792687
0.817701
0.802188
0.669046
0.845081
0.808939
0.809023
0.525918
0.820124
0.80216
0.855466
0.707735
0.820355
0.615424
0.729517
0.803162
0.799412
0.741012
0.72224
0.711712
0.536588
0.635673
0.802219
0.545635
0.825431
0.580817
0.760514
0.682914
0.637004
0.564961
0.749066
0.803399
0.710059
0.824213
0.802231
0.804554
0.764455
0.89049
0.801104
0.827174
0.804093
0.817238
0.710711
0.809771
0.740595
0.824785
0.886933
0.835621
0.751821
0.825571
0.773812
0.880798
0.80484
0.761904
0.85243
0.78004
0.800618
0.807792
0.761523
0.751392
0.689544
0.805692
0.803383
0.820931
0.835753
0.618675
0.810421
0.55663
0.674328
0.638294
0.821015
0.823951
0.812756
0.804645
0.623072
0.873486
0.802957
0.803177
0.864925
0.816931
0.775171
0.816662
0.802739
0.821091
0.803345
0.721473
0.805109
0.67263
0.800841
0.807016
0.802248
0.645411
0.814047
0.812618
0.727699
0.820141
0.56388
0.587243
0.804937
0.701539
0.72995
0.582106
0.73019
0.817528
0.696933
0.775676
0.713048
0.814932
0.6762
0.765341
0.807987
0.814166
0.664435
0.802532
0.895864
0.798142
0.820105
0.604503
0.699441
0.804236
0.817317
0.817731
0.85315
0.816766
0.805246
0.804558
0.803834
0.719301
0.714777
0.62428
0.77528
0.564148
0.72161
0.813666
0.817984
0.808426
0.801374
0.652132
0.812732
0.804401
0.569128
0.5638
0.750155
0.804213
0.80913
0.562109
0.799834
0.581094
0.730949
0.616902
0.815328
0.80401
0.606853
0.616689
0.869144
0.811777
0.768607
0.724525
0.639058
0.661499
0.701744
0.81927
0.762977
0.765969
0.632081
0.757842
0.812894
0.818835
0.816876
0.818961
0.869162
0.759066
0.821976
0.804384
0.852859
0.817362
0.803176
0.8172
0.719558
0.81616
0.815274
0.818458
0.814514
0.819118
0.803708
0.821028
0.813818
0.813246
0.820406
0.800878
0.819775
0.822032
0.673474
0.821711
0.869687
0.821299
0.794337
0.652447
0.860096
0.821894
0.827585
0.801543
0.81568
0.758147
0.854234
0.605166
0.735778
0.81081
0.819118
0.804559
0.803854
0.834413
0.807254
0.80689
0.818786
0.783453
0.84067
0.843865
0.817873
0.670412
0.643031
0.819197
0.819834
0.791907
0.851397
0.848933
0.81337
0.816879
0.780991
0.817697
0.820965
0.817755
0.821877
0.815507
0.819254
0.852762
0.819382
0.817824
0.820776
0.820926
0.786868
0.817407
0.80627
0.806664
0.806667
0.821691
0.815864
0.791292
0.754384
0.816653
0.807085
0.812532
0.807194
0.859089
0.805206
0.81757
0.816967
0.807048
0.675262
0.804547
0.817047
0.817423
0.811292
0.81712
0.817272
0.81722
0.811087
0.865581
0.529153
0.817175
0.84355
0.816885
0.803755
0.809787
0.818569
0.84175
0.802465
0.803612
0.81477
0.679693
0.817218
0.810211
0.809749
0.816627
0.817122
0.817198
0.817389
0.537694
0.813467
0.726849
0.886687
0.823808
0.732394
0.694374
0.818866
0.805383
0.820824
0.652967
0.802805
0.817376
0.654308
0.801881
0.805024
0.817994
0.808538
0.858309
0.810745
0.615303
0.802441
0.776194
0.812266
0.889887
0.805891
0.816529
0.821205
0.833953
0.81741
0.82524
0.838437
0.64207
0.805452
0.662051
0.817601
0.817526
0.707619
0.817441
0.807856
0.709394
0.817768
0.712176
0.862532
0.78567
0.818009
0.817266
0.817365
0.676512
0.817558
0.639554
0.801735
0.793966
0.825077
0.818715
0.722769
0.767741
0.832492
0.816778
0.823284
0.824767
0.817428
0.827999
0.801313
0.56335
0.75523
0.763772
0.729914
0.839756
0.824984
0.836215
0.780192
0.803317
0.817288
0.81731
0.817295
0.777471
0.574339
0.803678
0.554899
0.810733
0.82688
0.801671
0.80438
0.815569
0.807053
0.785869
0.73561
0.817397
0.860476
0.816227
0.801067
0.736263
0.81176
0.790445
0.835452
0.566074
0.79715
0.809255
0.800783
0.698923
0.816996
0.813684
0.860324
0.579003
0.808287
0.803697
0.816762
0.630711
0.817248
0.803749
0.803879
0.803555
0.817307
0.817357
0.819382
0.817282
0.713561
0.805254
0.803598
0.817295
0.896826
0.817278
0.777266
0.843375
0.799962
0.803449
0.609974
0.817232
0.803812
0.828238
0.803473
0.867553
0.817405
0.856278
0.802387
0.823549
0.780327
0.570431
0.757519
0.797365
0.807262
0.81487
0.817569
0.567299
0.863005
0.861118
0.772604
0.759532
0.738653
0.814663
0.850954
0.817245
0.81553
0.817277
0.804951
0.725929
0.804125
0.800937
0.764947
0.826929
0.825788
0.863047
0.81899
0.817307
0.648323
0.809763
0.817272
0.802362
0.776939
0.819086
0.803422
0.816862
0.829468
0.799706
0.805256
0.802553
0.817917
0.841139
0.80447
0.800857
0.803774
0.766697
0.822861
0.578179
0.869476
0.804332
0.558232
0.805069
0.805674
0.821833
0.638394
0.615149
0.80331
0.805875
0.802732
0.861966
0.781456
0.817558
0.803542
0.869514
0.805411
0.805112
0.828274
0.818888
0.822562
0.824113
0.823231
0.868585
0.733377
0.853579
0.82037
0.660107
0.804221
0.803838
0.804325
0.82402
0.826199
0.805589
0.802898
0.80189
0.825477
0.804789
0.804278
0.801582
0.827085
0.804588
0.802988
0.806883
0.83032
0.802783
0.803284
0.826989
0.801258
0.818864
0.65781
0.828984
0.851403
0.806383
0.822593
0.803891
0.831231
0.839623
0.80387
0.824327
0.801939
0.80919
0.790937
0.803085
0.804767
0.807141
0.807481
0.806579
0.821587
0.818343
0.812298
0.833774
0.80432
0.802846
0.801755
0.790264
0.835966
0.803836
0.822335
0.818711
0.808565
0.806923
0.803223
0.840881
0.868354
0.801493
0.684345
0.802419
0.844119
0.81988
0.80745
0.805118
0.821372
0.846353
0.639652
0.83139
0.797536
0.853675
0.821779
0.813221
0.814876
0.810405
0.804572
0.814153
0.809905
0.599833
0.849771
0.796124
0.817906
0.85619
0.822317
0.766337
0.810208
0.81811
0.818619
0.803979
0.668038
0.811601
0.864535
0.805073
0.802047
0.779171
0.872287
0.801615
0.878059
0.809014
0.820375
0.823545
0.804576
0.805489
0.816777
0.819262
0.805742
0.81724
0.819013
0.882291
0.822387
0.810208
0.802282
0.830605
0.811452
0.841543
0.810582
0.807766
0.81455
0.819857
0.831943
0.817409
0.825127
0.834392
0.816545
0.710821
0.70051
0.817165
0.820917
0.806172
0.817053
0.55112
0.856219
0.801378
0.807014
0.817436
0.817299
0.804694
0.816477
0.802254
0.802668
0.810045
0.817163
0.761606
0.787318
0.825695
0.845565
0.836687
0.802152
0.808035
0.803837
0.813969
0.807338
0.801401
0.801503
0.802311
0.813095
0.799116
0.804951
0.837689
0.833902
0.738032
0.682107
0.808769
0.712009
0.801579
0.611944
0.805227
0.808444
0.805136
0.821295
0.836361
0.817713
0.81713
0.811256
0.804828
0.882486
0.81961
0.807174
0.77501
0.618498
0.811141
0.808895
0.772422
0.81806
0.817684
0.792995
0.801878
0.804754
0.66475
0.832313
0.804025
0.785266
0.781725
0.854187
0.810865
0.80506
0.804927
0.812617
0.812169
0.546601
0.803116
0.841556
0.817719
0.799949
0.602498
0.816445
0.817804
0.817352
0.835993
0.817696
0.804944
0.824739
0.807669
0.585565
0.809825
0.742899
0.799928
0.817525
0.726413
0.81848
0.848912
0.833262
0.670678
0.891633
0.787546
0.781167
0.798182
0.781009
0.810414
0.852952
0.81018
0.803792
0.817473
0.812494
0.78478
0.787845
0.817557
0.810632
0.836486
0.823954
0.837391
0.804379
0.80193
0.817293
0.858166
0.819103
0.820453
0.817361
0.615289
0.796936
0.826382
0.831154
0.867219
0.816989
0.820835
0.537987
0.813454
0.802334
0.816501
0.817275
0.849254
0.817211
0.812024
0.882392
0.768456
0.813966
0.817227
0.812572
0.806188
0.817916
0.662119
0.801628
0.851276
0.835148
0.812802
0.816676
0.817365
0.810452
0.710315
0.815675
0.802306
0.840658
0.821504
0.814083
0.833349
0.795945
0.8148
0.820879
0.811236
0.82231
0.750408
0.857614
0.822007
0.81618
0.817234
0.816936
0.818903
0.820257
0.817017
0.814114
0.842979
0.821659
0.802132
0.826906
0.829236
0.818402
0.816001
0.802228
0.802786
0.817276
0.822077
0.831084
0.817095
0.819599
0.801935
0.813357
0.817157
0.816957
0.803122
0.818268
0.817284
0.804468
0.817206
0.837768
0.801139
0.812903
0.824
0.574007
0.817859
0.821257
0.818364
0.818241
0.82475
0.831036
0.818959
0.821903
0.706413
0.817292
0.802746
0.819045
0.82129
0.836738
0.824423
0.817598
0.83182
0.827602
0.814818
0.820165
0.822006
0.807428
0.8173
0.819033
0.821125
0.834444
0.816703
0.819108
0.80313
0.81729
0.817184
0.556331
0.641539
0.815361
0.824312
0.803478
0.82509
0.819294
0.843802
0.712802
0.81758
0.737131
0.819839
0.813835
0.81728
0.831449
0.817516
0.807364
0.817256
0.83204
0.842195
0.816829
0.723571
0.82087
0.819331
0.801592
0.803319
0.81879
0.857383
0.816843
0.817378
0.851338
0.830927
0.844802
0.599274
0.831505
0.817695
0.814345
0.820604
0.853598
0.820929
0.722566
0.801414
0.83337
0.801949
0.801504
0.806841
0.751341
0.817387
0.817915
0.731985
0.817886
0.828957
0.817247
0.817598
0.801159
0.821438
0.817308
0.825961
0.809584
0.811106
0.818163
0.687806
0.822118
0.81768
0.817328
0.650698
0.715106
0.607683
0.824903
0.585624
0.856962
0.731281
0.844692
0.816559
0.733132
0.823364
0.819098
0.746176
0.809094
0.821462
0.79536
0.819695
0.819251
0.819181
0.817291
0.811501
0.804204
0.741026
0.83879
0.822994
0.819806
0.800899
0.816933
0.804432
0.819376
0.817297
0.857527
0.820863
0.615157
0.816512
0.821849
0.821743
0.78017
0.817224
0.807541
0.820014
0.84829
0.606181
0.811383
0.801336
0.818778
0.820764
0.820808
0.816576
0.82168
0.817105
0.817898
0.803611
0.817559
0.847964
0.817465
0.793369
0.815229
0.630449
0.716833
0.817286
0.820217
0.803992
0.825114
0.735393
0.8034
0.80337
0.823163
0.678493
0.820774
0.801425
0.818877
0.868346
0.78735
0.824781
0.821118
0.825232
0.817766
0.7724
0.803021
0.817409
0.902834
0.82881
0.819741
0.833848
0.813626
0.87207
0.716519
0.683474
0.854978
0.803138
0.680242
0.852881
0.787878