# vtk DataFile Version 1.0
unstructured grid
ascii
DATASET UNSTRUCTURED_GRID
points 7812 float
-1 0 0
-1 1 0
2 0 0
2 1 0
0 0 0
1 0 0
-1 1 0.1
-1 0 0.1
0 0 0.1
1 0 0.1
2 0 0.1
2 1 0.1
-0.99 0 0
-0.98 0 0
-0.97 0 0
-0.96 0 0
-0.95 0 0
-0.94 0 0
-0.93 0 0
-0.92 0 0
-0.91 0 0
-0.9 0 0
-0.89 0 0
-0.88 0 0
-0.87 0 0
-0.86 0 0
-0.85 0 0
-0.84 0 0
-0.83 0 0
-0.82 0 0
-0.81 0 0
-0.8 0 0
-0.79 0 0
-0.78 0 0
-0.77 0 0
-0.76 0 0
-0.75 0 0
-0.74 0 0
-0.73 0 0
-0.72 0 0
-0.71 0 0
-0.7 0 0
-0.69 0 0
-0.68 0 0
-0.67 0 0
-0.66 0 0
-0.65 0 0
-0.64 0 0
-0.63 0 0
-0.62 0 0
-0.61 0 0
-0.6 0 0
-0.59 0 0
-0.58 0 0
-0.57 0 0
-0.56 0 0
-0.55 0 0
-0.54 0 0
-0.53 0 0
-0.52 0 0
-0.51 0 0
-0.5 0 0
-0.49 0 0
-0.48 0 0
-0.47 0 0
-0.46 0 0
-0.45 0 0
-0.44 0 0
-0.43 0 0
-0.42 0 0
-0.41 0 0
-0.4 0 0
-0.39 0 0
-0.38 0 0
-0.37 0 0
-0.36 0 0
-0.35 0 0
-0.34 0 0
-0.33 0 0
-0.32 0 0
-0.31 0 0
-0.3 0 0
-0.29 0 0
-0.28 0 0
-0.27 0 0
-0.26 0 0
-0.25 0 0
-0.24 0 0
-0.23 0 0
-0.22 0 0
-0.21 0 0
-0.2 0 0
-0.19 0 0
-0.18 0 0
-0.17 0 0
-0.16 0 0
-0.15 0 0
-0.14 0 0
-0.13 0 0
-0.12 0 0
-0.11 0 0
-0.1 0 0
-0.09 0 0
-0.08 0 0
-0.07 0 0
-0.06 0 0
-0.05 0 0
-0.04 0 0
-0.03 0 0
-0.02 0 0
-0.01 0 0
1.01 0 0
1.02 0 0
1.03 0 0
1.04 0 0
1.05 0 0
1.06 0 0
1.07 0 0
1.08 0 0
1.09 0 0
1.1 0 0
1.11 0 0
1.12 0 0
1.13 0 0
1.14 0 0
1.15 0 0
1.16 0 0
1.17 0 0
1.18 0 0
1.19 0 0
1.2 0 0
1.21 0 0
1.22 0 0
1.23 0 0
1.24 0 0
1.25 0 0
1.26 0 0
1.27 0 0
1.28 0 0
1.29 0 0
1.3 0 0
1.31 0 0
1.32 0 0
1.33 0 0
1.34 0 0
1.35 0 0
1.36 0 0
1.37 0 0
1.38 0 0
1.39 0 0
1.4 0 0
1.41 0 0
1.42 0 0
1.43 0 0
1.44 0 0
1.45 0 0
1.46 0 0
1.47 0 0
1.48 0 0
1.49 0 0
1.5 0 0
1.51 0 0
1.52 0 0
1.53 0 0
1.54 0 0
1.55 0 0
1.56 0 0
1.57 0 0
1.58 0 0
1.59 0 0
1.6 0 0
1.61 0 0
1.62 0 0
1.63 0 0
1.64 0 0
1.65 0 0
1.66 0 0
1.67 0 0
1.68 0 0
1.69 0 0
1.7 0 0
1.71 0 0
1.72 0 0
1.73 0 0
1.74 0 0
1.75 0 0
1.76 0 0
1.77 0 0
1.78 0 0
1.79 0 0
1.8 0 0
1.81 0 0
1.82 0 0
1.83 0 0
1.84 0 0
1.85 0 0
1.86 0 0
1.87 0 0
1.88 0 0
1.89 0 0
1.9 0 0
1.91 0 0
1.92 0 0
1.93 0 0
1.94 0 0
1.95 0 0
1.96 0 0
1.97 0 0
1.98 0 0
1.99 0 0
2 0.010289 0
2 0.0215307 0
2 0.0338135 0
2 0.0472336 0
2 0.0618965 0
2 0.0779171 0
2 0.0954213 0
2 0.114546 0
2 0.135442 0
2 0.158274 0
2 0.183219 0
2 0.210474 0
2 0.240253 0
2 0.27279 0
2 0.308339 0
2 0.347181 0
2 0.389619 0
2 0.435987 0
2 0.486649 0
2 0.542002 0
2 0.602481 0
2 0.66856 0
2 0.740758 0
2 0.819642 0
2 0.90583 0
1.9 1 0
1.8 1 0
1.7 1 0
1.6 1 0
1.5 1 0
1.4 1 0
1.3 1 0
1.2 1 0
1.1 1 0
1 1 0
0.9 1 0
0.8 1 0
0.7 1 0
0.6 1 0
0.5 1 0
0.4 1 0
0.3 1 0
0.2 1 0
0.1 1 0
3.69793e-12 1 0
-0.1 1 0
-0.2 1 0
-0.3 1 0
-0.4 1 0
-0.5 1 0
-0.6 1 0
-0.7 1 0
-0.8 1 0
-0.9 1 0
-1 0.90583 0
-1 0.819642 0
-1 0.740758 0
-1 0.66856 0
-1 0.602481 0
-1 0.542002 0
-1 0.486649 0
-1 0.435987 0
-1 0.389619 0
-1 0.347181 0
-1 0.308339 0
-1 0.27279 0
-1 0.240253 0
-1 0.210474 0
-1 0.183219 0
-1 0.158274 0
-1 0.135442 0
-1 0.114546 0
-1 0.0954213 0
-1 0.0779171 0
-1 0.0618965 0
-1 0.0472336 0
-1 0.0338135 0
-1 0.0215307 0
-1 0.010289 0
0.00921362 0.00379763 0
0.0184561 0.00752451 0
0.0277268 0.0111804 0
0.0370253 0.0147652 0
0.0463511 0.0182786 0
0.0557034 0.0217203 0
0.0650819 0.0250903 0
0.074486 0.0283883 0
0.083915 0.0316141 0
0.0933685 0.0347675 0
0.102846 0.0378484 0
0.112347 0.0408565 0
0.12187 0.0437917 0
0.131416 0.0466538 0
0.140983 0.0494427 0
0.150572 0.0521581 0
0.160181 0.0547999 0
0.16981 0.0573681 0
0.179458 0.0598623 0
0.189125 0.0622825 0
0.198811 0.0646285 0
0.208514 0.0669001 0
0.218234 0.0690974 0
0.227971 0.07122 0
0.237724 0.073268 0
0.247493 0.0752411 0
0.257276 0.0771393 0
0.267073 0.0789625 0
0.276884 0.0807105 0
0.286708 0.0823832 0
0.296545 0.0839806 0
0.306394 0.0855025 0
0.316254 0.0869488 0
0.326125 0.0883196 0
0.336006 0.0896146 0
0.345896 0.0908339 0
0.355796 0.0919773 0
0.365704 0.0930447 0
0.375621 0.0940362 0
0.385544 0.0949517 0
0.395474 0.095791 0
0.40541 0.0965542 0
0.415352 0.0972412 0
0.425299 0.097852 0
0.43525 0.0983865 0
0.445205 0.0988447 0
0.455164 0.0992266 0
0.465125 0.0995321 0
0.475088 0.0997613 0
0.485052 0.0999141 0
0.495017 0.0999904 0
0.504983 0.0999904 0
0.514948 0.0999141 0
0.524912 0.0997613 0
0.534875 0.0995321 0
0.544836 0.0992266 0
0.554795 0.0988447 0
0.56475 0.0983865 0
0.574701 0.097852 0
0.584648 0.0972412 0
0.59459 0.0965542 0
0.604526 0.095791 0
0.614456 0.0949517 0
0.624379 0.0940362 0
0.634296 0.0930447 0
0.644204 0.0919773 0
0.654104 0.0908339 0
0.663994 0.0896146 0
0.673875 0.0883196 0
0.683746 0.0869488 0
0.693606 0.0855025 0
0.703455 0.0839806 0
0.713292 0.0823832 0
0.723116 0.0807105 0
0.732927 0.0789625 0
0.742724 0.0771393 0
0.752508 0.0752411 0
0.762276 0.073268 0
0.772029 0.07122 0
0.781766 0.0690974 0
0.791486 0.0669001 0
0.801189 0.0646285 0
0.810875 0.0622825 0
0.820542 0.0598623 0
0.83019 0.0573681 0
0.839819 0.0547999 0
0.849428 0.0521581 0
0.859017 0.0494427 0
0.868584 0.0466538 0
0.87813 0.0437917 0
0.887653 0.0408565 0
0.897154 0.0378484 0
0.906631 0.0347675 0
0.916085 0.0316141 0
0.925514 0.0283883 0
0.934918 0.0250903 0
0.944297 0.0217203 0
0.953649 0.0182786 0
0.962975 0.0147652 0
0.972273 0.0111804 0
0.981544 0.00752451 0
0.990786 0.00379763 0
-1 0.90583 0.1
-1 0.819642 0.1
-1 0.740758 0.1
-1 0.66856 0.1
-1 0.602481 0.1
-1 0.542002 0.1
-1 0.486649 0.1
-1 0.435987 0.1
-1 0.389619 0.1
-1 0.347181 0.1
-1 0.308339 0.1
-1 0.27279 0.1
-1 0.240253 0.1
-1 0.210474 0.1
-1 0.183219 0.1
-1 0.158274 0.1
-1 0.135442 0.1
-1 0.114546 0.1
-1 0.0954213 0.1
-1 0.0779171 0.1
-1 0.0618965 0.1
-1 0.0472336 0.1
-1 0.0338135 0.1
-1 0.0215307 0.1
-1 0.010289 0.1
-0.99 0 0.1
-0.98 0 0.1
-0.97 0 0.1
-0.96 0 0.1
-0.95 0 0.1
-0.94 0 0.1
-0.93 0 0.1
-0.92 0 0.1
-0.91 0 0.1
-0.9 0 0.1
-0.89 0 0.1
-0.88 0 0.1
-0.87 0 0.1
-0.86 0 0.1
-0.85 0 0.1
-0.84 0 0.1
-0.83 0 0.1
-0.82 0 0.1
-0.81 0 0.1
-0.8 0 0.1
-0.79 0 0.1
-0.78 0 0.1
-0.77 0 0.1
-0.76 0 0.1
-0.75 0 0.1
-0.74 0 0.1
-0.73 0 0.1
-0.72 0 0.1
-0.71 0 0.1
-0.7 0 0.1
-0.69 0 0.1
-0.68 0 0.1
-0.67 0 0.1
-0.66 0 0.1
-0.65 0 0.1
-0.64 0 0.1
-0.63 0 0.1
-0.62 0 0.1
-0.61 0 0.1
-0.6 0 0.1
-0.59 0 0.1
-0.58 0 0.1
-0.57 0 0.1
-0.56 0 0.1
-0.55 0 0.1
-0.54 0 0.1
-0.53 0 0.1
-0.52 0 0.1
-0.51 0 0.1
-0.5 0 0.1
-0.49 0 0.1
-0.48 0 0.1
-0.47 0 0.1
-0.46 0 0.1
-0.45 0 0.1
-0.44 0 0.1
-0.43 0 0.1
-0.42 0 0.1
-0.41 0 0.1
-0.4 0 0.1
-0.39 0 0.1
-0.38 0 0.1
-0.37 0 0.1
-0.36 0 0.1
-0.35 0 0.1
-0.34 0 0.1
-0.33 0 0.1
-0.32 0 0.1
-0.31 0 0.1
-0.3 0 0.1
-0.29 0 0.1
-0.28 0 0.1
-0.27 0 0.1
-0.26 0 0.1
-0.25 0 0.1
-0.24 0 0.1
-0.23 0 0.1
-0.22 0 0.1
-0.21 0 0.1
-0.2 0 0.1
-0.19 0 0.1
-0.18 0 0.1
-0.17 0 0.1
-0.16 0 0.1
-0.15 0 0.1
-0.14 0 0.1
-0.13 0 0.1
-0.12 0 0.1
-0.11 0 0.1
-0.1 0 0.1
-0.09 0 0.1
-0.08 0 0.1
-0.07 0 0.1
-0.06 0 0.1
-0.05 0 0.1
-0.04 0 0.1
-0.03 0 0.1
-0.02 0 0.1
-0.01 0 0.1
0.00921362 0.00379763 0.1
0.0184561 0.00752451 0.1
0.0277268 0.0111804 0.1
0.0370253 0.0147652 0.1
0.0463511 0.0182786 0.1
0.0557034 0.0217203 0.1
0.0650819 0.0250903 0.1
0.074486 0.0283883 0.1
0.083915 0.0316141 0.1
0.0933685 0.0347675 0.1
0.102846 0.0378484 0.1
0.112347 0.0408565 0.1
0.12187 0.0437917 0.1
0.131416 0.0466538 0.1
0.140983 0.0494427 0.1
0.150572 0.0521581 0.1
0.160181 0.0547999 0.1
0.16981 0.0573681 0.1
0.179458 0.0598623 0.1
0.189125 0.0622825 0.1
0.198811 0.0646285 0.1
0.208514 0.0669001 0.1
0.218234 0.0690974 0.1
0.227971 0.07122 0.1
0.237724 0.073268 0.1
0.247493 0.0752411 0.1
0.257276 0.0771393 0.1
0.267073 0.0789625 0.1
0.276884 0.0807105 0.1
0.286708 0.0823832 0.1
0.296545 0.0839806 0.1
0.306394 0.0855025 0.1
0.316254 0.0869488 0.1
0.326125 0.0883196 0.1
0.336006 0.0896146 0.1
0.345896 0.0908339 0.1
0.355796 0.0919773 0.1
0.365704 0.0930447 0.1
0.375621 0.0940362 0.1
0.385544 0.0949517 0.1
0.395474 0.095791 0.1
0.40541 0.0965542 0.1
0.415352 0.0972412 0.1
0.425299 0.097852 0.1
0.43525 0.0983865 0.1
0.445205 0.0988447 0.1
0.455164 0.0992266 0.1
0.465125 0.0995321 0.1
0.475088 0.0997613 0.1
0.485052 0.0999141 0.1
0.495017 0.0999904 0.1
0.504983 0.0999904 0.1
0.514948 0.0999141 0.1
0.524912 0.0997613 0.1
0.534875 0.0995321 0.1
0.544836 0.0992266 0.1
0.554795 0.0988447 0.1
0.56475 0.0983865 0.1
0.574701 0.097852 0.1
0.584648 0.0972412 0.1
0.59459 0.0965542 0.1
0.604526 0.095791 0.1
0.614456 0.0949517 0.1
0.624379 0.0940362 0.1
0.634296 0.0930447 0.1
0.644204 0.0919773 0.1
0.654104 0.0908339 0.1
0.663994 0.0896146 0.1
0.673875 0.0883196 0.1
0.683746 0.0869488 0.1
0.693606 0.0855025 0.1
0.703455 0.0839806 0.1
0.713292 0.0823832 0.1
0.723116 0.0807105 0.1
0.732927 0.0789625 0.1
0.742724 0.0771393 0.1
0.752508 0.0752411 0.1
0.762276 0.073268 0.1
0.772029 0.07122 0.1
0.781766 0.0690974 0.1
0.791486 0.0669001 0.1
0.801189 0.0646285 0.1
0.810875 0.0622825 0.1
0.820542 0.0598623 0.1
0.83019 0.0573681 0.1
0.839819 0.0547999 0.1
0.849428 0.0521581 0.1
0.859017 0.0494427 0.1
0.868584 0.0466538 0.1
0.87813 0.0437917 0.1
0.887653 0.0408565 0.1
0.897154 0.0378484 0.1
0.906631 0.0347675 0.1
0.916085 0.0316141 0.1
0.925514 0.0283883 0.1
0.934918 0.0250903 0.1
0.944297 0.0217203 0.1
0.953649 0.0182786 0.1
0.962975 0.0147652 0.1
0.972273 0.0111804 0.1
0.981544 0.00752451 0.1
0.990786 0.00379763 0.1
1.01 0 0.1
1.02 0 0.1
1.03 0 0.1
1.04 0 0.1
1.05 0 0.1
1.06 0 0.1
1.07 0 0.1
1.08 0 0.1
1.09 0 0.1
1.1 0 0.1
1.11 0 0.1
1.12 0 0.1
1.13 0 0.1
1.14 0 0.1
1.15 0 0.1
1.16 0 0.1
1.17 0 0.1
1.18 0 0.1
1.19 0 0.1
1.2 0 0.1
1.21 0 0.1
1.22 0 0.1
1.23 0 0.1
1.24 0 0.1
1.25 0 0.1
1.26 0 0.1
1.27 0 0.1
1.28 0 0.1
1.29 0 0.1
1.3 0 0.1
1.31 0 0.1
1.32 0 0.1
1.33 0 0.1
1.34 0 0.1
1.35 0 0.1
1.36 0 0.1
1.37 0 0.1
1.38 0 0.1
1.39 0 0.1
1.4 0 0.1
1.41 0 0.1
1.42 0 0.1
1.43 0 0.1
1.44 0 0.1
1.45 0 0.1
1.46 0 0.1
1.47 0 0.1
1.48 0 0.1
1.49 0 0.1
1.5 0 0.1
1.51 0 0.1
1.52 0 0.1
1.53 0 0.1
1.54 0 0.1
1.55 0 0.1
1.56 0 0.1
1.57 0 0.1
1.58 0 0.1
1.59 0 0.1
1.6 0 0.1
1.61 0 0.1
1.62 0 0.1
1.63 0 0.1
1.64 0 0.1
1.65 0 0.1
1.66 0 0.1
1.67 0 0.1
1.68 0 0.1
1.69 0 0.1
1.7 0 0.1
1.71 0 0.1
1.72 0 0.1
1.73 0 0.1
1.74 0 0.1
1.75 0 0.1
1.76 0 0.1
1.77 0 0.1
1.78 0 0.1
1.79 0 0.1
1.8 0 0.1
1.81 0 0.1
1.82 0 0.1
1.83 0 0.1
1.84 0 0.1
1.85 0 0.1
1.86 0 0.1
1.87 0 0.1
1.88 0 0.1
[...]
CELL_DATA 7425
SCALARS rho float
LOOKUP_TABLE default
0.598768
0.805783
0.822795
0.830176
0.801653
0.822263
0.823265
0.818168
0.817594
0.742489
0.864721
0.811376
0.818016
0.830033
0.80589
0.820642
0.800696
0.817686
0.804044
0.770121
0.833808
0.823174
0.728946
0.830736
0.804505
0.71329
0.833678
0.851828
0.801047
0.809619
0.821786
0.723794
0.804206
0.661501
0.545096
0.830704
0.804074
0.818158
0.812463
0.830468
0.724395
0.716728
0.792691
0.685637
0.600863
0.751938
0.802428
0.817971
0.688004
0.71813
0.74707
0.805914
0.813488
0.801092
0.703441
0.676006
0.8259
0.801552
0.74238
0.706465
0.72191
0.808548
0.817674
0.801295
0.799691
0.821028
0.595564
0.776419
0.674705
0.809583
0.806026
0.803502
0.884243
0.822257
0.81203
0.817643
0.805812
0.80126
0.817664
0.758758
0.819636
0.808133
0.814531
0.790551
0.837729
0.803111
0.585447
0.832301
0.560197
0.850302
0.689412
0.733779
0.848681
0.803695
0.820838
0.763849
0.838112
0.789887
0.828449
0.804777
0.811587
0.73924
0.803845
0.830714
0.606815
0.812367
0.827071
0.714571
0.81883
0.80131
0.82018
0.786694
0.79151
0.813391
0.79244
0.7883
0.833717
0.803379
0.690382
0.679973
0.805812
0.780276
0.817589
0.792163
0.860518
0.841805
0.808608
0.806804
0.668277
0.529848
0.81834
0.664484
0.539292
0.871839
0.689342
0.801755
0.812252
0.728761
0.593185
0.733649
0.731249
0.811617
0.814027
0.700227
0.804949
0.781561
0.57616
0.792268
0.783743
0.830473
0.819168
0.689428
0.805061
0.745337
0.700581
0.803901
0.811761
0.832983
0.800286
0.670151
0.803551
0.68674
0.803144
0.832349
0.823603
0.802838
0.81762
0.787662
0.807302
0.802806
0.822936
0.806856
0.794844
0.801261
0.80142
0.747483
0.805895
0.764289
0.6104
0.684017
0.801751
0.79587
0.88071
0.834122
0.683695
0.825912
0.800715
0.829772
0.801885
0.817691
0.817422
0.803733
0.807977
0.700298
0.818832
0.822381
0.772927
0.800201
0.864565
0.808775
0.813588
0.815766
0.621836
0.841842
0.584256
0.555297
0.605172
0.627178
0.830227
0.880274
0.808398
0.799565
0.843015
0.817659
0.82014
0.823891
0.81898
0.644815
0.636085
0.817914
0.563961
0.60842
0.696284
0.815327
0.818025
0.817644
0.835518
0.817762
0.868123
0.702827
0.837156
0.724598
0.806241
0.804547
0.802762
0.719591
0.729669
0.626656
0.693289
0.865072
0.879844
0.809972
0.808598
0.802065
0.813454
0.726925
0.824686
0.802504
0.828446
0.796084
0.81432
0.720075
0.817628
0.826667
0.747505
0.543956
0.801534
0.737058
0.845307
0.818229
0.725077
0.819262
0.818709
0.851416
0.813646
0.806532
0.80373
0.828472
0.862295
0.807855
0.6262
0.850682
0.814797
0.806414
0.830211
0.839188
0.81737
0.824351
0.795099
0.818891
0.870641
0.851428
0.829414
0.83904
0.803647
0.82065
0.803502
0.760746
0.711522
0.591863
0.689631
0.805527
0.817525
0.819642
0.858243
0.781934
0.652472
0.829822
0.546446
0.77732
0.803003
0.653183
0.67727
0.64583
0.818992
0.817669
0.817657
0.816848
0.829474
0.776324
0.812449
0.803386
0.817766
0.842853
0.871346
0.83591
0.803952
0.68743
0.798726
0.836133
0.697586
0.800792
0.802717
0.866092
0.820601
0.602177
0.817677
0.748156
0.855774
0.738004
0.814348
0.908089
0.802129
0.797647
0.666074
0.642727
0.705604
0.78468
0.829266
0.81877
0.817894
0.887182
0.861252
0.801757
0.80166
0.827155
0.745109
0.803844
0.880444
0.801934
0.807309
0.802855
0.803008
0.817328
0.819417
0.819949
0.64739
0.832078
0.664304
0.810239
0.650409
0.805728
0.802815
0.842204
0.737344
0.81743
0.812062
0.820472
0.801306
0.802912
0.812482
0.711782
0.825595
0.817615
0.817291
0.801333
0.738829
0.570623
0.807291
0.815546
0.803639
0.817705
0.796858
0.66204
0.848266
0.81763
0.804462
0.788576
0.817682
0.806492
0.804886
0.819854
0.808391
0.825497
0.772074
0.814979
0.80875
0.573613
0.805483
0.646836
0.84044
0.643431
0.818451
0.878997
0.617401
0.819836
0.753155
0.805236
0.874376
0.5572
0.826039
0.825286
0.804104
0.828548
0.812839
0.826403
0.833195
0.827628
0.747158
0.830232
0.762449
0.812179
0.795682
0.796469
0.762414
0.806516
0.802511
0.817795
0.758467
0.806329
0.613865
0.623308
0.701648
0.817218
0.846139
0.866265
0.832257
0.800714
0.817446
0.806627
0.821352
0.686657
0.802834
0.747605
0.82605
0.818416
0.808093
0.704682
0.732443
0.550442
0.613728
0.803269
0.619198
0.795924
0.766835
0.773404
0.725087
0.766232
0.771536
0.813684
0.818782
0.822788
0.81605
0.720107
0.629531
0.841155
0.810382
0.785289
0.812487
0.80386
0.838866
0.729553
0.856967
0.765291
0.738261
0.768904
0.815218
0.561253
0.800878
0.843733
0.815297
0.817953
0.81385
0.801426
0.784425
0.837582
0.803556
0.845045
0.725024
0.701567
0.801689
0.798006
0.825029
0.715883
0.849863
0.802827
0.81963
0.80069
0.781485
0.810821
0.603819
0.683606
0.639371
0.817008
0.806204
0.829057
0.752863
0.811548
0.81868
0.823538
0.801121
0.738042
0.800433
0.81695
0.803624
0.717043
0.817826
0.822023
0.841973
0.815331
0.828173
0.863532
0.858684
0.749708
0.61238
0.839752
0.807668
0.844997
0.818241
0.824827
0.817799
0.817964
0.680955
0.807923
0.812396
0.817662
0.794599
0.81293
0.807044
0.864217
0.800786
0.817584
0.8186
0.873156
0.606668
0.817727
0.845366
0.884171
0.546313
0.819981
0.832026
0.797442
0.815845
0.797772
0.868919
0.814763
0.83388
0.81541
0.62758
0.803111
0.80486
0.703526
0.854565
0.760247
0.803125
0.818015
0.817215
0.863326
0.796657
0.835646
0.837098
0.788212
0.82706
0.8451
0.801923
0.812968
0.809408
0.806117
0.818107
0.803053
0.847107
0.770809
0.810796
0.80399
0.81765
0.729246
0.817668
0.821712
0.756169
0.81782
0.819079
0.830056
0.827923
0.802775
0.802185
0.851973
0.768826
0.827936
0.846146
0.805348
0.531309
0.817503
0.830959
0.853814
0.816308
0.803448
0.81011
0.856492
0.781239
0.803296
0.803113
0.817692
0.737214
0.804472
0.831863
0.810808
0.796397
0.797164
0.845258
0.807463
0.846884
0.80246
0.827152
0.81695
0.804893
0.843498
0.817468
0.689943
0.822097
0.807987
0.817022
0.906597
0.802202
0.818844
0.801726
0.801957
0.81982
0.802059
0.804083
0.784496
0.747991
0.810239
0.817685
0.761777
0.795001
0.825946
0.81399
0.825289
0.807949
0.828586
0.876321
0.83321
0.60312
0.713419
0.842899
0.820765
0.846057
0.818524
0.85176
0.809803
0.814777
0.801322
0.840543
0.862449
0.854538
0.737526
0.818157
0.825069
0.743927
0.819692
0.777639
0.801578
0.738549
0.8197
0.833421
0.824607
0.865699
0.818152
0.817697
0.814106
0.818449
0.837825
0.813209
0.800622
0.811189
0.743459
0.815975
0.775267
0.835057
0.815289
0.645632
0.779902
0.813449
0.801124
0.823054
0.804784
0.818483
0.820776
0.806278
0.822592
0.804879
0.808435
0.615276
0.848981
0.827943
0.829468
0.817387
0.803834
0.706906
0.809325
0.908279
0.817542
0.803481
0.817098
0.784482
0.809897
0.817272
0.824393
0.815696
0.817662
0.819863
0.677114
0.781486
0.769014
0.817168
0.807028
0.803457
0.629637
0.808266
0.80481
0.715023
0.839404
0.820675
0.803913
0.809747
0.801036
0.820641
0.816461
0.817698
0.817707
0.714263
0.833924
0.801505
0.810031
0.845085
0.820011
0.819851
0.802089
0.75476
0.826544
0.790965
0.824493
0.791219
0.808356
0.824089
0.739757
0.820387
0.672842
0.873263
0.709892
0.847001
0.80436
0.876171
0.795493
0.802869
0.82383
0.838442
0.840134
0.828063
0.823055
0.818314
0.80436
0.805315
0.80972
0.736133
0.82905
0.800898
0.718663
0.832781
0.681581
0.80235
0.864056
0.806468
0.715464
0.799302
0.818158
0.697504
0.786522
0.822595
0.833928
0.810795
0.654849
0.738453
0.813511
0.803822
0.817705
0.802644
0.741303
0.817984
0.819424
0.817247
0.778378
0.803738
0.80531
0.806254
0.571213
0.81754
0.8358
0.59683
0.818972
0.819749
0.818591
0.821724
0.818348
0.827398
0.801368
0.79631
0.77169
0.824591
0.831322
0.826774
0.838048
0.769398
0.813154
0.734544
0.774275
0.811206
0.8242
0.817636
0.801669
0.861688
0.817691
0.803853
0.813854
0.819651
0.818978
0.838935
0.818445
0.817451
0.812928
0.817964
0.802619
0.824079
0.804531
0.82583
0.817774
0.592248
0.8178
0.836859
0.86144
0.840095
0.559753
0.820336
0.807169
0.523336
0.681418
0.666136
0.83644
0.810509
0.8126
0.817263
0.803455
0.820294
0.812697
0.551245
0.698856
0.819787
0.807478
0.819291
0.804076
0.81139
0.81543
0.82326
0.801139
0.706038
0.859572
0.803415
0.815784
0.817742
0.761164
0.56554
0.835354
0.815393
0.741863
0.803003
0.809083
0.613961
0.829482
0.818508
0.830434
0.822104
0.828754
0.805478
0.730722
0.65032
0.572926
0.828161
0.811225
0.784103
0.817595
0.783496
0.821305
0.87436
0.765645
0.824695
0.817472
0.828598
0.884535
0.818353
0.81615
0.80428
0.814831
0.700788
0.830894
0.80155
0.812951
0.803004
0.786137
0.855884
0.825044
0.842158
0.824612
0.757877
0.759223
0.805812
0.821328
0.803389
0.806038
0.803683
0.779569
0.818511
0.766088
0.823696
0.668383
0.817985
0.803967
0.734607
0.825254
0.820825
0.743848
0.802266
0.760998
0.885253
0.801385
0.817695
0.76647
0.802492
0.818274
0.804624
0.600101
0.822877
0.801317
0.804898
0.818463
0.828264
0.762023
0.807948
0.844624
0.829578
0.815749
0.838178
0.675735
0.705253
0.817706
0.747938
0.82526
0.774464
0.817674
0.803163
0.812945
0.755598
0.795474
0.768366
0.813818
0.803404
0.638094
0.780743
0.800068
0.852305
0.818346
0.831316
0.547523
0.826458
0.787112
0.860323
0.801672
0.819777
0.802659
0.788879
0.800752
0.828305
0.837525
0.82368
0.820512
0.702185
0.777532
0.818543
0.806162
0.814606
0.804608
0.696912
0.79565
0.805116
0.813129
0.829388
0.852657
0.834364
0.817772
0.801589
0.806254
0.803742
0.782137
0.620524
0.803783
0.73817
0.669094
0.825621
0.800708
0.778049
0.801997
0.757687
0.787126
0.816314
0.824336
0.806254
0.819562
0.820065
0.822729
0.817737
0.811067
0.716651
0.704712
0.64757
0.831909
0.87083
0.817531
0.843403
0.849651
0.864966
0.744232
0.819525
0.864356
0.813231
0.817766
0.818826
0.738346
0.816098
0.809302
0.808703
0.538103
0.817644
0.764936
0.817561
0.814884
0.804088
0.699611
0.817574
0.619373
0.826923
0.804203
0.824259
0.85685
0.804012
0.796682
0.824064
0.815656
0.807217
0.765877
0.537521
0.823976
0.803991
0.831807
0.828547
0.805683
0.807897
0.836519
0.726882
0.546935
0.887119
0.803681
0.819401
0.805081
0.705344
0.800653
0.802101
0.818891
0.744092
0.653163
0.884104
0.719569
0.838853
0.816242
0.835345
0.844711
0.795801
0.805462
0.817712
0.854218
0.742214
0.871778
0.818098
0.573754
0.804899
0.74881
0.85466
0.764775
0.804948
0.804609
0.801503
0.802569
0.813022
0.817743
0.858564
0.808391
0.803131
0.801851
0.801927
0.817107
0.820408
0.802933
0.81736
0.851077
0.803326
0.786559
0.802684
0.84229
0.735101
0.817853
0.817869
0.685613
0.718544
0.806683
0.825847
0.80629
0.536007
0.859803
0.817196
0.835694
0.80608
0.803765
0.802171
0.789587
0.595664
0.805372
0.819744
0.837682
0.823731
0.81768
0.801729
0.753492
0.802732
0.770733
0.78941
0.801367
0.792487
0.751712
0.802695
0.813876
0.814543
0.834191
0.852159
0.568893
0.844018
0.817743
0.821874
0.803863
0.823777
0.815959
0.895323
0.802726
0.871079
0.806717
0.764242
0.863372
0.803086
0.800984
0.826899
0.667076
0.652089
0.803926
0.804556
0.677255
0.660893
0.800629
0.826736
0.817648
0.825598
0.739743
0.819652
0.817352
0.828926
0.819933
0.812915
0.817765
0.758198
0.806224
0.819299
0.816215
0.681967
0.577947
0.817803
0.656464
0.726204
0.567355
0.843484
0.802094
0.555114
0.609872
0.829503
0.908512
0.821506
0.659087
0.818134
0.789517
0.803613
0.788257
0.823364
0.81328
0.790134
0.824026
0.804441
0.599271
0.821218
0.7704
0.819451
0.694174
0.825231
0.792831
0.817991
0.802266
0.669373
0.845136
0.809045
0.809111
0.528861
0.820356
0.802222
0.855541
0.707698
0.820584
0.616967
0.729922
0.803225
0.79954
0.741346
0.722556
0.711626
0.538801
0.637414
0.802301
0.547494
0.82561
0.585873
0.76068
0.683453
0.638532
0.566413
0.749249
0.803418
0.70995
0.8244
0.802276
0.804612
0.764616
0.890493
0.801178
0.827337
0.804127
0.817616
0.71096
0.809847
0.740794
0.824968
0.886942
0.835719
0.752021
0.825744
0.77397
0.880806
0.804874
0.762066
0.852506
0.78019
0.800657
0.807886
0.761686
0.751677
0.690235
0.805727
0.803405
0.821129
0.835874
0.619075
0.810513
0.557696
0.674638
0.639305
0.821089
0.824138
0.813041
0.804679
0.623481
0.873502
0.802972
0.803189
0.864973
0.817316
0.775287
0.817046
0.802757
0.82131
0.803356
0.721704
0.805171
0.673371
0.800902
0.807172
0.802273
0.645745
0.814171
0.812721
0.727763
0.820208
0.564685
0.58784
0.804973
0.701805
0.730159
0.582637
0.730494
0.817838
0.696634
0.775773
0.71298
0.815023
0.676521
0.7655
0.808037
0.814427
0.664929
0.802556
0.895859
0.798186
0.820339
0.605496
0.699732
0.804433
0.817686
0.818018
0.853202
0.817103
0.805284
0.804595
0.803863
0.719574
0.714744
0.624745
0.775457
0.56614
0.72158
0.813951
0.818251
0.808509
0.801449
0.655961
0.813005
0.804435
0.569954
0.564986
0.750336
0.804246
0.809296
0.562817
0.799865
0.581715
0.731348
0.617394
0.815355
0.804073
0.607387
0.617154
0.86918
0.811825
0.768764
0.724836
0.639888
0.661826
0.701532
0.819497
0.763136
0.765997
0.632519
0.758034
0.813156
0.819089
0.81725
0.819218
0.869229
0.759271
0.822177
0.804422
0.85292
0.817747
0.803199
0.817537
0.719514
0.816377
0.815498
0.818686
0.814748
0.819341
0.803734
0.821236
0.814061
0.813498
0.820619
0.800919
0.819992
0.822239
0.673796
0.82192
0.869725
0.821512
0.794397
0.652795
0.860154
0.822104
0.827749
0.801614
0.81606
0.758176
0.854305
0.607352
0.736141
0.810842
0.81937
0.804594
0.803883
0.834544
0.807314
0.806947
0.819047
0.783584
0.840778
0.843954
0.81802
0.670733
0.6443
0.819447
0.820055
0.792093
0.851475
0.849001
0.813457
0.817102
0.781144
0.817969
0.821177
0.818031
0.822086
0.815585
0.819504
0.852836
0.819629
0.818057
0.820999
0.821141
0.786949
0.817635
0.806352
0.806761
0.80674
0.821903
0.816233
0.791429
0.754411
0.816972
0.807122
0.812817
0.807231
0.859128
0.805273
0.817837
0.817324
0.807111
0.673879
0.804581
0.817408
0.817498
0.811327
0.817485
0.817591
0.817567
0.811122
0.86561
0.531032
0.817544
0.843636
0.817238
0.80379
0.809828
0.818836
0.841854
0.802538
0.803703
0.814862
0.678845
0.817589
0.810276
0.809834
0.816959
0.817475
0.817543
0.817716
0.539333
0.813489
0.72724
0.886693
0.823976
0.732395
0.694807
0.819125
0.805423
0.820878
0.653314
0.802847
0.817705
0.654646
0.801953
0.805063
0.818076
0.808638
0.858371
0.810779
0.615767
0.802498
0.776224
0.812295
0.88989
0.806014
0.816553
0.821246
0.834019
0.817734
0.82542
0.838542
0.642454
0.805594
0.662384
0.817905
0.817834
0.707526
0.817752
0.808031
0.709343
0.817939
0.712465
0.862584
0.785715
0.818295
0.817636
0.81768
0.676942
0.817869
0.639891
0.801787
0.794018
0.825249
0.818978
0.722963
0.767777
0.83263
0.817104
0.823365
0.82495
0.81775
0.82816
0.801375
0.563964
0.755265
0.763937
0.729908
0.839867
0.825062
0.836229
0.780388
0.803349
0.817645
0.817678
0.817662
0.777577
0.5749
0.803706
0.556565
0.810854
0.826955
0.801742
0.804413
0.815659
0.807089
0.786022
0.735722
0.817721
0.860517
0.816357
0.801127
0.736274
0.811809
0.790515
0.835517
0.575328
0.797204
0.809478
0.800847
0.698785
0.817339
0.813859
0.860385
0.57954
0.808326
0.803722
0.817077
0.6316
0.817592
0.803773
0.803906
0.803585
0.817644
0.817688
0.819613
0.817636
0.71348
0.805291
0.803621
0.817657
0.896818
0.817618
0.777421
0.8434
0.800005
0.803468
0.610445
0.8176
0.803838
0.82831
0.803498
0.867596
0.817542
0.856322
0.802462
0.823737
0.780415
0.5711
0.757741
0.797521
0.807475
0.814898
0.817862
0.567946
0.863035
0.861178
0.772796
0.759605
0.73869
0.814753
0.850987
0.81761
0.815576
0.817642
0.804986
0.72595
0.804158
0.800999
0.764979
0.82709
0.825963
0.863077
0.81923
0.817673
0.654568
0.809798
0.817639
0.80242
0.777082
0.819107
0.803441
0.817184
0.829622
0.799753
0.805314
0.8026
0.818076
0.841239
0.804547
0.800912
0.803859
0.766735
0.82306
0.578778
0.869499
0.804366
0.558923
0.805138
0.805792
0.821895
0.640096
0.615637
0.803373
0.805959
0.802799
0.861999
0.781503
0.817741
0.803575
0.869595
0.805446
0.805147
0.828357
0.819075
0.822634
0.824294
0.823419
0.868609
0.733588
0.853627
0.82059
0.660452
0.804281
0.803873
0.804359
0.824209
0.826364
0.805646
0.802963
0.801955
0.825654
0.804846
0.804312
0.80165
0.827252
0.804622
0.803026
0.80692
0.83046
0.802866
0.803346
0.827071
0.801314
0.819123
0.658163
0.82914
0.851463
0.806434
0.822796
0.803924
0.831375
0.839734
0.803897
0.82451
0.801987
0.809268
0.790979
0.803122
0.804824
0.807178
0.807532
0.806653
0.821791
0.818617
0.812332
0.833907
0.804399
0.802873
0.80182
0.790289
0.836081
0.803869
0.822539
0.818973
0.808611
0.806989
0.803239
0.840977
0.868428
0.80156
0.684637
0.802463
0.844215
0.820115
0.807536
0.805153
0.821403
0.84643
0.641162
0.831462
0.797686
0.853745
0.821985
0.813254
0.814914
0.810478
0.804605
0.814187
0.809943
0.600267
0.849852
0.796155
0.818197
0.856256
0.822523
0.766494
0.810254
0.818393
0.818836
0.804
0.668378
0.811685
0.864583
0.805187
0.802093
0.779347
0.872309
0.801653
0.878076
0.809117
0.8206
0.823738
0.804665
0.805548
0.817125
0.819509
0.805827
0.817555
0.819081
0.882305
0.822405
0.810242
0.80236
0.830717
0.811484
0.841603
0.810635
0.807804
0.814631
0.820095
0.832039
0.817703
0.82528
0.834415
0.816621
0.71129
0.700466
0.817506
0.821139
0.806261
0.81737
0.555058
0.856261
0.801433
0.80705
0.817697
0.817602
0.804731
0.816803
0.802317
0.80272
0.810111
0.817286
0.761822
0.787444
0.825868
0.845621
0.836707
0.80222
0.808202
0.803865
0.813994
0.807392
0.801467
0.801561
0.802356
0.81319
0.799163
0.805033
0.837807
0.833967
0.73832
0.681162
0.808797
0.712522
0.801654
0.613833
0.805265
0.808492
0.80521
0.821512
0.836423
0.818012
0.81749
0.811291
0.804866
0.882502
0.819852
0.807263
0.77511
0.620061
0.811176
0.808977
0.772532
0.818342
0.817987
0.793057
0.801921
0.80479
0.66596
0.832392
0.804055
0.785449
0.781817
0.854241
0.810899
0.80514
0.805015
0.812682
0.812203
0.548499
0.803164
0.841661
0.81802
0.799991
0.603222
0.816494
0.818097
0.81773
0.836116
0.817994
0.804986
0.824923
0.807718
0.586073
0.809863
0.743184
0.799952
0.817838
0.726529
0.818749
0.848974
0.833272
0.671006
0.89163
0.787617
0.781344
0.798217
0.78106
0.810469
0.853012
0.810256
0.803831
0.81779
0.812767
0.784863
0.78792
0.817843
0.810713
0.836493
0.824116
0.837401
0.804552
0.801999
0.817652
0.858228
0.819255
0.820509
0.817691
0.615733
0.796988
0.826524
0.831226
0.867263
0.817364
0.820879
0.540258
0.813739
0.802395
0.816814
0.817359
0.849324
0.817558
0.812055
0.882402
0.7686
0.814001
0.817553
0.812834
0.806225
0.818203
0.662447
0.801672
0.851354
0.835159
0.812874
0.816886
0.817692
0.810485
0.710613
0.815891
0.802383
0.840766
0.821708
0.814167
0.833446
0.796109
0.815025
0.821087
0.811323
0.822514
0.750677
0.85766
0.822213
0.816258
0.817584
0.817292
0.819126
0.82047
0.817378
0.814348
0.843069
0.821869
0.802203
0.826928
0.829358
0.818474
0.816035
0.802295
0.802832
0.817632
0.822285
0.831102
0.81746
0.819816
0.802011
0.813599
0.817525
0.817304
0.803156
0.818545
0.817606
0.804498
0.817577
0.837877
0.801165
0.813155
0.824072
0.574776
0.818141
0.82147
0.818541
0.818469
0.824927
0.831151
0.819201
0.822112
0.706673
0.81765
0.802796
0.8193
0.821355
0.836748
0.824609
0.817686
0.831962
0.827766
0.815163
0.820186
0.82208
0.807628
0.817646
0.819287
0.821158
0.834574
0.81704
0.81936
0.803153
0.817663
0.817528
0.558931
0.642224
0.815386
0.824499
0.803541
0.825247
0.819543
0.843815
0.713047
0.817887
0.737356
0.819967
0.814096
0.817623
0.831553
0.817826
0.80746
0.817627
0.832128
0.842255
0.81716
0.723797
0.820887
0.819569
0.801649
0.803336
0.819052
0.857436
0.817195
0.817707
0.851406
0.831011
0.844856
0.600668
0.831641
0.817991
0.814597
0.82083
0.853657
0.821151
0.722785
0.801479
0.833383
0.802028
0.801565
0.80689
0.751519
0.817713
0.818187
0.732285
0.818153
0.828976
0.817566
0.817869
0.801227
0.821647
0.817676
0.826027
0.809619
0.811276
0.818385
0.687225
0.822325
0.817956
0.817701
0.651249
0.715043
0.608145
0.824928
0.589509
0.857026
0.731487
0.844706
0.816891
0.733518
0.823445
0.819325
0.746362
0.809139
0.821677
0.795384
0.819917
0.819501
0.81943
0.817658
0.81177
0.804235
0.741217
0.838853
0.823174
0.820031
0.800953
0.816965
0.804526
0.819624
0.817604
0.857572
0.821075
0.622435
0.816735
0.822058
0.821954
0.780244
0.817255
0.807578
0.820039
0.848354
0.606711
0.811461
0.801408
0.819037
0.820983
0.821024
0.816919
0.821892
0.817334
0.818137
0.803641
0.817793
0.848052
0.817732
0.793397
0.815521
0.630883
0.716832
0.817643
0.820445
0.804034
0.825294
0.735427
0.803415
0.803382
0.823361
0.677258
0.820998
0.801499
0.819136
0.868425
0.787413
0.824964
0.821337
0.825301
0.818062
0.7725
0.803048
0.817717
0.902817
0.82883
0.819982
0.833856
0.813954
0.872152
0.716478
0.682688
0.855012
0.803165
0.679178
0.852915
0.78794