# vtk DataFile Version 1.0
unstructured grid
ascii
DATASET UNSTRUCTURED_GRID
points 7812 float
-1 0 0
-1 1 0
2 0 0
2 1 0
0 0 0
1 0 0
-1 1 0.1
-1 0 0.1
0 0 0.1
1 0 0.1
2 0 0.1
2 1 0.1
-0.99 0 0
-0.98 0 0
-0.97 0 0
-0.96 0 0
-0.95 0 0
-0.94 0 0
-0.93 0 0
-0.92 0 0
-0.91 0 0
-0.9 0 0
-0.89 0 0
-0.88 0 0
-0.87 0 0
-0.86 0 0
-0.85 0 0
-0.84 0 0
-0.83 0 0
-0.82 0 0
-0.81 0 0
-0.8 0 0
-0.79 0 0
-0.78 0 0
-0.77 0 0
-0.76 0 0
-0.75 0 0
-0.74 0 0
-0.73 0 0
-0.72 0 0
-0.71 0 0
-0.7 0 0
-0.69 0 0
-0.68 0 0
-0.67 0 0
-0.66 0 0
-0.65 0 0
-0.64 0 0
-0.63 0 0
-0.62 0 0
-0.61 0 0
-0.6 0 0
-0.59 0 0
-0.58 0 0
-0.57 0 0
-0.56 0 0
-0.55 0 0
-0.54 0 0
-0.53 0 0
-0.52 0 0
-0.51 0 0
-0.5 0 0
-0.49 0 0
-0.48 0 0
-0.47 0 0
-0.46 0 0
-0.45 0 0
-0.44 0 0
-0.43 0 0
-0.42 0 0
-0.41 0 0
-0.4 0 0
-0.39 0 0
-0.38 0 0
-0.37 0 0
-0.36 0 0
-0.35 0 0
-0.34 0 0
-0.33 0 0
-0.32 0 0
-0.31 0 0
-0.3 0 0
-0.29 0 0
-0.28 0 0
-0.27 0 0
-0.26 0 0
-0.25 0 0
-0.24 0 0
-0.23 0 0
-0.22 0 0
-0.21 0 0
-0.2 0 0
-0.19 0 0
-0.18 0 0
-0.17 0 0
-0.16 0 0
-0.15 0 0
-0.14 0 0
-0.13 0 0
-0.12 0 0
-0.11 0 0
-0.1 0 0
-0.09 0 0
-0.08 0 0
-0.07 0 0
-0.06 0 0
-0.05 0 0
-0.04 0 0
-0.03 0 0
-0.02 0 0
-0.01 0 0
1.01 0 0
1.02 0 0
1.03 0 0
1.04 0 0
1.05 0 0
1.06 0 0
1.07 0 0
1.08 0 0
1.09 0 0
1.1 0 0
1.11 0 0
1.12 0 0
1.13 0 0
1.14 0 0
1.15 0 0
1.16 0 0
1.17 0 0
1.18 0 0
1.19 0 0
1.2 0 0
1.21 0 0
1.22 0 0
1.23 0 0
1.24 0 0
1.25 0 0
1.26 0 0
1.27 0 0
1.28 0 0
1.29 0 0
1.3 0 0
1.31 0 0
1.32 0 0
1.33 0 0
1.34 0 0
1.35 0 0
1.36 0 0
1.37 0 0
1.38 0 0
1.39 0 0
1.4 0 0
1.41 0 0
1.42 0 0
1.43 0 0
1.44 0 0
1.45 0 0
1.46 0 0
1.47 0 0
1.48 0 0
1.49 0 0
1.5 0 0
1.51 0 0
1.52 0 0
1.53 0 0
1.54 0 0
1.55 0 0
1.56 0 0
1.57 0 0
1.58 0 0
1.59 0 0
1.6 0 0
1.61 0 0
1.62 0 0
1.63 0 0
1.64 0 0
1.65 0 0
1.66 0 0
1.67 0 0
1.68 0 0
1.69 0 0
1.7 0 0
1.71 0 0
1.72 0 0
1.73 0 0
1.74 0 0
1.75 0 0
1.76 0 0
1.77 0 0
1.78 0 0
1.79 0 0
1.8 0 0
1.81 0 0
1.82 0 0
1.83 0 0
1.84 0 0
1.85 0 0
1.86 0 0
1.87 0 0
1.88 0 0
1.89 0 0
1.9 0 0
1.91 0 0
1.92 0 0
1.93 0 0
1.94 0 0
1.95 0 0
1.96 0 0
1.97 0 0
1.98 0 0
1.99 0 0
2 0.010289 0
2 0.0215307 0
2 0.0338135 0
2 0.0472336 0
2 0.0618965 0
2 0.0779171 0
2 0.0954213 0
2 0.114546 0
2 0.135442 0
2 0.158274 0
2 0.183219 0
2 0.210474 0
2 0.240253 0
2 0.27279 0
2 0.308339 0
2 0.347181 0
2 0.389619 0
2 0.435987 0
2 0.486649 0
2 0.542002 0
2 0.602481 0
2 0.66856 0
2 0.740758 0
2 0.819642 0
2 0.90583 0
1.9 1 0
1.8 1 0
1.7 1 0
1.6 1 0
1.5 1 0
1.4 1 0
1.3 1 0
1.2 1 0
1.1 1 0
1 1 0
0.9 1 0
0.8 1 0
0.7 1 0
0.6 1 0
0.5 1 0
0.4 1 0
0.3 1 0
0.2 1 0
0.1 1 0
3.69793e-12 1 0
-0.1 1 0
-0.2 1 0
-0.3 1 0
-0.4 1 0
-0.5 1 0
-0.6 1 0
-0.7 1 0
-0.8 1 0
-0.9 1 0
-1 0.90583 0
-1 0.819642 0
-1 0.740758 0
-1 0.66856 0
-1 0.602481 0
-1 0.542002 0
-1 0.486649 0
-1 0.435987 0
-1 0.389619 0
-1 0.347181 0
-1 0.308339 0
-1 0.27279 0
-1 0.240253 0
-1 0.210474 0
-1 0.183219 0
-1 0.158274 0
-1 0.135442 0
-1 0.114546 0
-1 0.0954213 0
-1 0.0779171 0
-1 0.0618965 0
-1 0.0472336 0
-1 0.0338135 0
-1 0.0215307 0
-1 0.010289 0
0.00921362 0.00379763 0
0.0184561 0.00752451 0
0.0277268 0.0111804 0
0.0370253 0.0147652 0
0.0463511 0.0182786 0
0.0557034 0.0217203 0
0.0650819 0.0250903 0
0.074486 0.0283883 0
0.083915 0.0316141 0
0.0933685 0.0347675 0
0.102846 0.0378484 0
0.112347 0.0408565 0
0.12187 0.0437917 0
0.131416 0.0466538 0
0.140983 0.0494427 0
0.150572 0.0521581 0
0.160181 0.0547999 0
0.16981 0.0573681 0
0.179458 0.0598623 0
0.189125 0.0622825 0
0.198811 0.0646285 0
0.208514 0.0669001 0
0.218234 0.0690974 0
0.227971 0.07122 0
0.237724 0.073268 0
0.247493 0.0752411 0
0.257276 0.0771393 0
0.267073 0.0789625 0
0.276884 0.0807105 0
0.286708 0.0823832 0
0.296545 0.0839806 0
0.306394 0.0855025 0
0.316254 0.0869488 0
0.326125 0.0883196 0
0.336006 0.0896146 0
0.345896 0.0908339 0
0.355796 0.0919773 0
0.365704 0.0930447 0
0.375621 0.0940362 0
0.385544 0.0949517 0
0.395474 0.095791 0
0.40541 0.0965542 0
0.415352 0.0972412 0
0.425299 0.097852 0
0.43525 0.0983865 0
0.445205 0.0988447 0
0.455164 0.0992266 0
0.465125 0.0995321 0
0.475088 0.0997613 0
0.485052 0.0999141 0
0.495017 0.0999904 0
0.504983 0.0999904 0
0.514948 0.0999141 0
0.524912 0.0997613 0
0.534875 0.0995321 0
0.544836 0.0992266 0
0.554795 0.0988447 0
0.56475 0.0983865 0
0.574701 0.097852 0
0.584648 0.0972412 0
0.59459 0.0965542 0
0.604526 0.095791 0
0.614456 0.0949517 0
0.624379 0.0940362 0
0.634296 0.0930447 0
0.644204 0.0919773 0
0.654104 0.0908339 0
0.663994 0.0896146 0
0.673875 0.0883196 0
0.683746 0.0869488 0
0.693606 0.0855025 0
0.703455 0.0839806 0
0.713292 0.0823832 0
0.723116 0.0807105 0
0.732927 0.0789625 0
0.742724 0.0771393 0
0.752508 0.0752411 0
0.762276 0.073268 0
0.772029 0.07122 0
0.781766 0.0690974 0
0.791486 0.0669001 0
0.801189 0.0646285 0
0.810875 0.0622825 0
0.820542 0.0598623 0
0.83019 0.0573681 0
0.839819 0.0547999 0
0.849428 0.0521581 0
0.859017 0.0494427 0
0.868584 0.0466538 0
0.87813 0.0437917 0
0.887653 0.0408565 0
0.897154 0.0378484 0
0.906631 0.0347675 0
0.916085 0.0316141 0
0.925514 0.0283883 0
0.934918 0.0250903 0
0.944297 0.0217203 0
0.953649 0.0182786 0
0.962975 0.0147652 0
0.972273 0.0111804 0
0.981544 0.00752451 0
0.990786 0.00379763 0
-1 0.90583 0.1
-1 0.819642 0.1
-1 0.740758 0.1
-1 0.66856 0.1
-1 0.602481 0.1
-1 0.542002 0.1
-1 0.486649 0.1
-1 0.435987 0.1
-1 0.389619 0.1
-1 0.347181 0.1
-1 0.308339 0.1
-1 0.27279 0.1
-1 0.240253 0.1
-1 0.210474 0.1
-1 0.183219 0.1
-1 0.158274 0.1
-1 0.135442 0.1
-1 0.114546 0.1
-1 0.0954213 0.1
-1 0.0779171 0.1
-1 0.0618965 0.1
-1 0.0472336 0.1
-1 0.0338135 0.1
-1 0.0215307 0.1
-1 0.010289 0.1
-0.99 0 0.1
-0.98 0 0.1
-0.97 0 0.1
-0.96 0 0.1
-0.95 0 0.1
-0.94 0 0.1
-0.93 0 0.1
-0.92 0 0.1
-0.91 0 0.1
-0.9 0 0.1
-0.89 0 0.1
-0.88 0 0.1
-0.87 0 0.1
-0.86 0 0.1
-0.85 0 0.1
-0.84 0 0.1
-0.83 0 0.1
-0.82 0 0.1
-0.81 0 0.1
-0.8 0 0.1
-0.79 0 0.1
-0.78 0 0.1
-0.77 0 0.1
-0.76 0 0.1
-0.75 0 0.1
-0.74 0 0.1
-0.73 0 0.1
-0.72 0 0.1
-0.71 0 0.1
-0.7 0 0.1
-0.69 0 0.1
-0.68 0 0.1
-0.67 0 0.1
-0.66 0 0.1
-0.65 0 0.1
-0.64 0 0.1
-0.63 0 0.1
-0.62 0 0.1
-0.61 0 0.1
-0.6 0 0.1
-0.59 0 0.1
-0.58 0 0.1
-0.57 0 0.1
-0.56 0 0.1
-0.55 0 0.1
-0.54 0 0.1
-0.53 0 0.1
-0.52 0 0.1
-0.51 0 0.1
-0.5 0 0.1
-0.49 0 0.1
-0.48 0 0.1
-0.47 0 0.1
-0.46 0 0.1
-0.45 0 0.1
-0.44 0 0.1
-0.43 0 0.1
-0.42 0 0.1
-0.41 0 0.1
-0.4 0 0.1
-0.39 0 0.1
-0.38 0 0.1
-0.37 0 0.1
-0.36 0 0.1
-0.35 0 0.1
-0.34 0 0.1
-0.33 0 0.1
-0.32 0 0.1
-0.31 0 0.1
-0.3 0 0.1
-0.29 0 0.1
-0.28 0 0.1
-0.27 0 0.1
-0.26 0 0.1
-0.25 0 0.1
-0.24 0 0.1
-0.23 0 0.1
-0.22 0 0.1
-0.21 0 0.1
-0.2 0 0.1
-0.19 0 0.1
-0.18 0 0.1
-0.17 0 0.1
-0.16 0 0.1
-0.15 0 0.1
-0.14 0 0.1
-0.13 0 0.1
-0.12 0 0.1
-0.11 0 0.1
-0.1 0 0.1
-0.09 0 0.1
-0.08 0 0.1
-0.07 0 0.1
-0.06 0 0.1
-0.05 0 0.1
-0.04 0 0.1
-0.03 0 0.1
-0.02 0 0.1
-0.01 0 0.1
0.00921362 0.00379763 0.1
0.0184561 0.00752451 0.1
0.0277268 0.0111804 0.1
0.0370253 0.0147652 0.1
0.0463511 0.0182786 0.1
0.0557034 0.0217203 0.1
0.0650819 0.0250903 0.1
0.074486 0.0283883 0.1
0.083915 0.0316141 0.1
0.0933685 0.0347675 0.1
0.102846 0.0378484 0.1
0.112347 0.0408565 0.1
0.12187 0.0437917 0.1
0.131416 0.0466538 0.1
0.140983 0.0494427 0.1
0.150572 0.0521581 0.1
0.160181 0.0547999 0.1
0.16981 0.0573681 0.1
0.179458 0.0598623 0.1
0.189125 0.0622825 0.1
0.198811 0.0646285 0.1
0.208514 0.0669001 0.1
0.218234 0.0690974 0.1
0.227971 0.07122 0.1
0.237724 0.073268 0.1
0.247493 0.0752411 0.1
0.257276 0.0771393 0.1
0.267073 0.0789625 0.1
0.276884 0.0807105 0.1
0.286708 0.0823832 0.1
0.296545 0.0839806 0.1
0.306394 0.0855025 0.1
0.316254 0.0869488 0.1
0.326125 0.0883196 0.1
0.336006 0.0896146 0.1
0.345896 0.0908339 0.1
0.355796 0.0919773 0.1
0.365704 0.0930447 0.1
0.375621 0.0940362 0.1
0.385544 0.0949517 0.1
0.395474 0.095791 0.1
0.40541 0.0965542 0.1
0.415352 0.0972412 0.1
0.425299 0.097852 0.1
0.43525 0.0983865 0.1
0.445205 0.0988447 0.1
0.455164 0.0992266 0.1
0.465125 0.0995321 0.1
0.475088 0.0997613 0.1
0.485052 0.0999141 0.1
0.495017 0.0999904 0.1
0.504983 0.0999904 0.1
0.514948 0.0999141 0.1
0.524912 0.0997613 0.1
0.534875 0.0995321 0.1
0.544836 0.0992266 0.1
0.554795 0.0988447 0.1
0.56475 0.0983865 0.1
0.574701 0.097852 0.1
0.584648 0.0972412 0.1
0.59459 0.0965542 0.1
0.604526 0.095791 0.1
0.614456 0.0949517 0.1
0.624379 0.0940362 0.1
0.634296 0.0930447 0.1
0.644204 0.0919773 0.1
0.654104 0.0908339 0.1
0.663994 0.0896146 0.1
0.673875 0.0883196 0.1
0.683746 0.0869488 0.1
0.693606 0.0855025 0.1
0.703455 0.0839806 0.1
0.713292 0.0823832 0.1
0.723116 0.0807105 0.1
0.732927 0.0789625 0.1
0.742724 0.0771393 0.1
0.752508 0.0752411 0.1
0.762276 0.073268 0.1
0.772029 0.07122 0.1
0.781766 0.0690974 0.1
0.791486 0.0669001 0.1
0.801189 0.0646285 0.1
0.810875 0.0622825 0.1
0.820542 0.0598623 0.1
0.83019 0.0573681 0.1
0.839819 0.0547999 0.1
0.849428 0.0521581 0.1
0.859017 0.0494427 0.1
0.868584 0.0466538 0.1
0.87813 0.0437917 0.1
0.887653 0.0408565 0.1
0.897154 0.0378484 0.1
0.906631 0.0347675 0.1
0.916085 0.0316141 0.1
0.925514 0.0283883 0.1
0.934918 0.0250903 0.1
0.944297 0.0217203 0.1
0.953649 0.0182786 0.1
0.962975 0.0147652 0.1
0.972273 0.0111804 0.1
0.981544 0.00752451 0.1
0.990786 0.00379763 0.1
1.01 0 0.1
1.02 0 0.1
1.03 0 0.1
1.04 0 0.1
1.05 0 0.1
1.06 0 0.1
1.07 0 0.1
1.08 0 0.1
1.09 0 0.1
1.1 0 0.1
1.11 0 0.1
1.12 0 0.1
1.13 0 0.1
1.14 0 0.1
1.15 0 0.1
1.16 0 0.1
1.17 0 0.1
1.18 0 0.1
1.19 0 0.1
1.2 0 0.1
1.21 0 0.1
1.22 0 0.1
1.23 0 0.1
1.24 0 0.1
1.25 0 0.1
1.26 0 0.1
1.27 0 0.1
1.28 0 0.1
1.29 0 0.1
1.3 0 0.1
1.31 0 0.1
1.32 0 0.1
1.33 0 0.1
1.34 0 0.1
1.35 0 0.1
1.36 0 0.1
1.37 0 0.1
1.38 0 0.1
1.39 0 0.1
1.4 0 0.1
1.41 0 0.1
1.42 0 0.1
1.43 0 0.1
1.44 0 0.1
1.45 0 0.1
1.46 0 0.1
1.47 0 0.1
1.48 0 0.1
1.49 0 0.1
1.5 0 0.1
1.51 0 0.1
1.52 0 0.1
1.53 0 0.1
1.54 0 0.1
1.55 0 0.1
1.56 0 0.1
1.57 0 0.1
1.58 0 0.1
1.59 0 0.1
1.6 0 0.1
1.61 0 0.1
1.62 0 0.1
1.63 0 0.1
1.64 0 0.1
1.65 0 0.1
1.66 0 0.1
1.67 0 0.1
1.68 0 0.1
1.69 0 0.1
1.7 0 0.1
1.71 0 0.1
1.72 0 0.1
1.73 0 0.1
1.74 0 0.1
1.75 0 0.1
1.76 0 0.1
1.77 0 0.1
1.78 0 0.1
1.79 0 0.1
1.8 0 0.1
1.81 0 0.1
1.82 0 0.1
1.83 0 0.1
1.84 0 0.1
1.85 0 0.1
1.86 0 0.1
1.87 0 0.1
1.88 0 0.1
[...]
CELL_DATA 7425
SCALARS rho float
LOOKUP_TABLE default
0.59408
0.805355
0.821535
0.829229
0.800922
0.821081
0.822487
0.816414
0.815446
0.74109
0.864432
0.810751
0.816205
0.829085
0.805083
0.819235
0.800134
0.81567
0.803732
0.768639
0.832919
0.822605
0.727418
0.829771
0.804147
0.709315
0.832821
0.850806
0.80053
0.808927
0.82098
0.723555
0.803883
0.65778
0.533329
0.829738
0.803741
0.816396
0.811852
0.829623
0.721182
0.711216
0.791774
0.690061
0.594915
0.75004
0.801337
0.816146
0.678234
0.717734
0.74628
0.805476
0.812893
0.800476
0.704721
0.688997
0.82478
0.801131
0.740972
0.704376
0.717055
0.808033
0.815646
0.800713
0.799156
0.819664
0.591028
0.775325
0.685048
0.808885
0.805318
0.803346
0.88412
0.821682
0.811411
0.815503
0.805377
0.800777
0.815647
0.757999
0.818126
0.807616
0.812649
0.789676
0.837182
0.802415
0.581007
0.831511
0.552653
0.849746
0.694147
0.732303
0.847672
0.803427
0.819462
0.761797
0.837404
0.78889
0.827416
0.803942
0.810225
0.738475
0.80352
0.829861
0.602974
0.811753
0.826108
0.711858
0.817208
0.800629
0.818786
0.785745
0.790694
0.812845
0.791515
0.78725
0.832865
0.803242
0.692485
0.664161
0.805371
0.779235
0.815419
0.791221
0.860069
0.840855
0.808087
0.805966
0.665526
0.518269
0.816699
0.660755
0.528398
0.87075
0.679429
0.801017
0.811643
0.726824
0.588652
0.729832
0.728221
0.810826
0.812049
0.701649
0.804275
0.780638
0.571883
0.790924
0.783042
0.829498
0.818374
0.693641
0.804272
0.744517
0.701039
0.803533
0.811145
0.832074
0.799368
0.662902
0.803142
0.691487
0.802436
0.831424
0.822397
0.802657
0.815511
0.786689
0.80672
0.802068
0.821683
0.805973
0.793527
0.800587
0.800977
0.744263
0.805079
0.762262
0.603617
0.690617
0.801082
0.794774
0.880555
0.833362
0.684772
0.824792
0.800091
0.828891
0.801233
0.815769
0.815134
0.803453
0.807394
0.700655
0.817218
0.82119
0.771474
0.799144
0.863585
0.808227
0.812871
0.813632
0.618272
0.840896
0.579723
0.544695
0.601287
0.61581
0.829468
0.880106
0.80789
0.799032
0.842552
0.815457
0.818755
0.822696
0.817394
0.642198
0.593214
0.816058
0.556121
0.601838
0.697724
0.813853
0.816322
0.815503
0.834703
0.815446
0.867069
0.704187
0.836484
0.719942
0.805634
0.804194
0.802477
0.717459
0.725701
0.623835
0.696715
0.864678
0.878717
0.808467
0.808078
0.800936
0.812682
0.722298
0.823516
0.801711
0.82745
0.79528
0.812282
0.719746
0.815337
0.825576
0.744185
0.53747
0.801034
0.736304
0.844656
0.816575
0.724792
0.817736
0.817065
0.851024
0.811844
0.805557
0.803476
0.827439
0.861866
0.806951
0.62347
0.850137
0.813781
0.805951
0.829255
0.838626
0.815384
0.823273
0.794234
0.817279
0.86957
0.851029
0.828657
0.838262
0.803251
0.819243
0.803335
0.760014
0.707546
0.587414
0.69231
0.804389
0.815363
0.818133
0.857234
0.780738
0.649867
0.828829
0.534711
0.776263
0.802305
0.650556
0.605264
0.64324
0.817395
0.815646
0.815455
0.815039
0.828472
0.775391
0.811897
0.80296
0.815445
0.842149
0.870253
0.835109
0.803475
0.692484
0.797765
0.835576
0.695314
0.800178
0.802479
0.865763
0.819187
0.598549
0.815757
0.744865
0.854767
0.735759
0.81247
0.908144
0.801369
0.796764
0.663312
0.639917
0.706656
0.78322
0.828282
0.817147
0.816029
0.88601
0.860344
0.801026
0.800831
0.826611
0.74292
0.803131
0.880225
0.801604
0.806347
0.802115
0.802821
0.815356
0.817883
0.818489
0.642888
0.831326
0.656722
0.809498
0.645947
0.804628
0.802598
0.841557
0.734066
0.816868
0.810698
0.819065
0.800766
0.802741
0.811879
0.705859
0.825044
0.815507
0.815319
0.800945
0.737473
0.566343
0.806784
0.813466
0.803401
0.815419
0.795937
0.570205
0.847544
0.815689
0.804113
0.787601
0.815668
0.805789
0.8042
0.81837
0.807879
0.824376
0.770375
0.814226
0.80821
0.569226
0.804618
0.644248
0.839956
0.640603
0.816884
0.87876
0.60705
0.819123
0.751631
0.804753
0.874171
0.546568
0.824957
0.824144
0.803747
0.82752
0.812114
0.825304
0.832293
0.826611
0.743917
0.829254
0.761756
0.811405
0.794886
0.795505
0.761047
0.806026
0.802262
0.8165
0.756176
0.805682
0.610106
0.619699
0.696712
0.815215
0.845528
0.865883
0.831448
0.800066
0.815166
0.805943
0.820332
0.684322
0.802207
0.745348
0.825433
0.816937
0.807101
0.706031
0.730509
0.543333
0.610497
0.802579
0.616094
0.794754
0.765959
0.77175
0.724911
0.764888
0.770108
0.811805
0.81715
0.82153
0.813928
0.716412
0.617968
0.840462
0.809056
0.784163
0.811506
0.803366
0.838085
0.724997
0.856472
0.764391
0.734228
0.767326
0.813696
0.554421
0.800258
0.843041
0.814512
0.816112
0.812049
0.800691
0.782953
0.837008
0.803323
0.844373
0.723081
0.702479
0.8013
0.797038
0.823898
0.713153
0.849269
0.801992
0.818172
0.80012
0.780276
0.809868
0.600165
0.681261
0.636651
0.815233
0.805421
0.828087
0.751569
0.811001
0.817028
0.822332
0.800449
0.734747
0.799131
0.815978
0.803401
0.711536
0.815941
0.82084
0.841345
0.813233
0.827132
0.863239
0.858313
0.747575
0.608808
0.839252
0.806937
0.844543
0.816503
0.824098
0.815885
0.816128
0.665308
0.80692
0.811272
0.815358
0.793689
0.812172
0.806193
0.86318
0.800139
0.815274
0.816946
0.872859
0.603082
0.81582
0.844436
0.884043
0.539692
0.818523
0.831285
0.796714
0.815267
0.796819
0.868585
0.813902
0.832993
0.814423
0.624312
0.802825
0.804469
0.698578
0.854193
0.759565
0.802411
0.816263
0.815149
0.862311
0.795925
0.835003
0.836285
0.786817
0.826348
0.844212
0.801204
0.812038
0.80849
0.805663
0.816852
0.802869
0.846524
0.769927
0.810205
0.803613
0.816845
0.726958
0.815411
0.820385
0.754895
0.815935
0.818125
0.829171
0.8269
0.802076
0.801702
0.85158
0.768076
0.826965
0.845538
0.804883
0.519707
0.815365
0.829998
0.853442
0.814812
0.80329
0.809413
0.856106
0.780518
0.802875
0.802469
0.815448
0.733131
0.803828
0.831193
0.809788
0.795611
0.795843
0.844594
0.806967
0.846451
0.802201
0.826078
0.815103
0.804515
0.843032
0.815333
0.685828
0.820795
0.807477
0.815175
0.906644
0.801767
0.81777
0.801374
0.801476
0.81834
0.80157
0.80373
0.783821
0.747288
0.808738
0.815419
0.760438
0.79372
0.824864
0.813439
0.824147
0.807284
0.827559
0.876125
0.832309
0.590395
0.711708
0.842196
0.81937
0.845468
0.816955
0.851281
0.80888
0.814004
0.800716
0.839847
0.862029
0.854016
0.735293
0.816386
0.824007
0.74332
0.818747
0.776746
0.801195
0.736522
0.818209
0.832523
0.824056
0.864651
0.816469
0.815704
0.812454
0.816852
0.837182
0.812644
0.80006
0.810645
0.741271
0.813828
0.774466
0.834327
0.81435
0.643006
0.778705
0.812573
0.800542
0.821804
0.80395
0.816885
0.819382
0.80558
0.821364
0.804463
0.807479
0.607767
0.848373
0.826919
0.828466
0.816469
0.803473
0.705015
0.808297
0.90833
0.815852
0.802618
0.815234
0.783332
0.808922
0.815561
0.823211
0.81512
0.815644
0.818379
0.684223
0.78021
0.767427
0.815102
0.806347
0.802601
0.626341
0.80732
0.80402
0.712433
0.83867
0.819282
0.803297
0.808877
0.800582
0.819301
0.815617
0.815698
0.815414
0.712567
0.833191
0.800821
0.809063
0.844358
0.819121
0.81841
0.801473
0.753937
0.825579
0.78972
0.823339
0.790257
0.807362
0.822891
0.738335
0.819289
0.664043
0.872968
0.707809
0.846367
0.803026
0.875974
0.794697
0.802461
0.82262
0.837722
0.839555
0.827156
0.821807
0.81685
0.80321
0.804681
0.809081
0.731989
0.828385
0.800421
0.718202
0.832041
0.689262
0.801553
0.863038
0.805987
0.709799
0.798516
0.816388
0.698975
0.785844
0.821358
0.833272
0.809227
0.622584
0.734431
0.812916
0.802936
0.815448
0.801981
0.739822
0.816283
0.81789
0.815008
0.777336
0.803482
0.804877
0.805278
0.566896
0.81525
0.835192
0.589933
0.817375
0.818253
0.816938
0.820398
0.816674
0.82635
0.800627
0.795636
0.770978
0.823923
0.830703
0.826124
0.837064
0.767468
0.811352
0.730667
0.773359
0.810302
0.823008
0.815678
0.801259
0.860707
0.815447
0.802548
0.811974
0.818213
0.817392
0.838158
0.816755
0.815291
0.812383
0.816145
0.801763
0.822912
0.804143
0.824706
0.815846
0.585445
0.815886
0.836039
0.86047
0.839464
0.509122
0.818913
0.806288
0.510916
0.67665
0.657037
0.835746
0.809671
0.812061
0.815229
0.803325
0.81886
0.811991
0.544181
0.694022
0.81914
0.806981
0.817777
0.803766
0.810804
0.813361
0.822131
0.800686
0.700677
0.858544
0.803278
0.815208
0.815942
0.759965
0.504426
0.834504
0.814653
0.74123
0.802832
0.808042
0.604085
0.828781
0.816965
0.829459
0.820801
0.8278
0.805056
0.726209
0.647698
0.568569
0.827119
0.810231
0.783391
0.815448
0.782196
0.819949
0.874151
0.764492
0.823525
0.815789
0.827601
0.884356
0.81669
0.814222
0.803697
0.814282
0.697269
0.829933
0.801051
0.81194
0.802701
0.785117
0.855373
0.823921
0.84168
0.823441
0.75722
0.757515
0.804899
0.820086
0.803227
0.805579
0.803061
0.778185
0.816902
0.763974
0.822776
0.665966
0.816256
0.803387
0.73424
0.824639
0.819802
0.742453
0.801623
0.759649
0.884108
0.800992
0.815386
0.765124
0.801667
0.816551
0.804235
0.595982
0.822133
0.800432
0.803565
0.816782
0.827326
0.759752
0.807046
0.84368
0.828649
0.81506
0.837384
0.682971
0.70334
0.815448
0.746578
0.824114
0.773388
0.815374
0.802895
0.812099
0.754298
0.794755
0.766928
0.812165
0.803278
0.635394
0.77985
0.79958
0.851322
0.816638
0.830365
0.538201
0.825916
0.78619
0.859873
0.80124
0.819063
0.801841
0.787818
0.800162
0.827397
0.83701
0.822942
0.819171
0.702682
0.77623
0.817338
0.80571
0.812463
0.804194
0.699224
0.794697
0.804487
0.812203
0.828602
0.852276
0.833488
0.815843
0.800893
0.805495
0.803129
0.780856
0.616976
0.802514
0.735592
0.666302
0.824601
0.800182
0.777333
0.801341
0.756432
0.786131
0.814005
0.823551
0.805254
0.818124
0.819117
0.822086
0.815781
0.810202
0.714985
0.702715
0.644984
0.830975
0.870523
0.816844
0.84274
0.849101
0.864679
0.740648
0.818456
0.864014
0.812135
0.815428
0.817922
0.736284
0.814598
0.808325
0.80777
0.528992
0.815458
0.763096
0.815566
0.814306
0.803787
0.700475
0.815598
0.615887
0.826205
0.803507
0.823634
0.856356
0.803701
0.795948
0.822868
0.81389
0.806587
0.764089
0.52477
0.822811
0.803462
0.83084
0.827536
0.804321
0.807394
0.835867
0.724609
0.517173
0.886989
0.802602
0.817862
0.804635
0.706151
0.80006
0.80141
0.817279
0.741085
0.650603
0.883978
0.717545
0.838076
0.814351
0.834496
0.844053
0.794504
0.80505
0.815912
0.853841
0.740801
0.871557
0.81632
0.569342
0.804016
0.748162
0.854138
0.763161
0.804519
0.804228
0.800927
0.802243
0.811223
0.815445
0.85767
0.807491
0.803017
0.80153
0.801312
0.814789
0.818978
0.802803
0.815035
0.850499
0.803222
0.785489
0.802523
0.841404
0.731234
0.815979
0.816117
0.674094
0.716507
0.806052
0.82482
0.805293
0.525074
0.858809
0.815487
0.834781
0.805636
0.803519
0.801925
0.788425
0.592297
0.804761
0.818248
0.837099
0.822515
0.815456
0.800412
0.750597
0.802062
0.768949
0.78841
0.800732
0.791648
0.751053
0.802069
0.812956
0.812716
0.833571
0.851218
0.5624
0.843329
0.815399
0.821326
0.803196
0.823216
0.813631
0.895258
0.801904
0.870016
0.806132
0.762629
0.863075
0.80261
0.800545
0.825916
0.664519
0.649474
0.803639
0.804183
0.68607
0.658366
0.800199
0.825674
0.815502
0.824467
0.736678
0.818828
0.815282
0.827909
0.818835
0.812366
0.81542
0.756906
0.805362
0.817818
0.813885
0.679782
0.573264
0.815458
0.653976
0.724629
0.56235
0.842807
0.801449
0.541931
0.606247
0.82889
0.908562
0.82018
0.656489
0.816426
0.788458
0.802942
0.78737
0.822398
0.812103
0.789147
0.822921
0.803178
0.594575
0.819873
0.769078
0.818032
0.69538
0.824101
0.791729
0.816239
0.801519
0.666886
0.844677
0.808224
0.808179
0.51019
0.818933
0.801623
0.85455
0.70798
0.819176
0.602408
0.725659
0.802593
0.798564
0.738097
0.719895
0.71213
0.522862
0.618241
0.801515
0.533182
0.824479
0.547214
0.759438
0.678616
0.622501
0.554542
0.747873
0.80323
0.710677
0.823219
0.80185
0.803985
0.763404
0.890382
0.800508
0.826289
0.803776
0.815323
0.70909
0.808979
0.739302
0.823812
0.886792
0.835022
0.750458
0.824644
0.772747
0.880657
0.80449
0.760859
0.85195
0.779028
0.800225
0.806927
0.76046
0.749056
0.680959
0.805301
0.803188
0.819888
0.835059
0.616053
0.809547
0.549139
0.672329
0.629684
0.820153
0.822961
0.81131
0.804268
0.620373
0.873294
0.802852
0.803085
0.86458
0.814979
0.77368
0.814714
0.802611
0.819955
0.803261
0.719975
0.804494
0.666143
0.800346
0.806084
0.802053
0.643195
0.813275
0.811931
0.726368
0.819315
0.558203
0.58332
0.804487
0.699801
0.728611
0.57842
0.727897
0.815968
0.699327
0.774349
0.713485
0.814313
0.674106
0.764301
0.807375
0.812838
0.660777
0.80235
0.895796
0.797381
0.818903
0.596911
0.697489
0.803132
0.815453
0.816287
0.852774
0.815069
0.804695
0.804085
0.803581
0.717403
0.714919
0.621111
0.774041
0.550099
0.721532
0.812223
0.81663
0.807615
0.800746
0.598835
0.811345
0.80404
0.563246
0.555366
0.748988
0.803849
0.808175
0.557223
0.799122
0.576741
0.72714
0.613537
0.814621
0.803419
0.603202
0.613611
0.868863
0.811099
0.767581
0.722189
0.632389
0.659327
0.703271
0.818101
0.761946
0.765323
0.629133
0.756532
0.811558
0.817542
0.81498
0.817656
0.868227
0.75761
0.820918
0.803804
0.852447
0.81541
0.803001
0.815501
0.719574
0.815029
0.814107
0.817282
0.813304
0.817967
0.803479
0.81994
0.81257
0.811955
0.8193
0.800444
0.818647
0.820954
0.671378
0.820621
0.869396
0.820194
0.793585
0.650106
0.859708
0.820802
0.826696
0.80095
0.813754
0.757506
0.853776
0.586311
0.732522
0.810286
0.817834
0.804172
0.803598
0.833673
0.806398
0.806261
0.81746
0.782599
0.840036
0.843314
0.817024
0.668274
0.631268
0.817925
0.818687
0.790737
0.850907
0.848483
0.812491
0.815722
0.77996
0.816322
0.81986
0.816359
0.820787
0.814653
0.817982
0.852292
0.81812
0.816621
0.819621
0.819806
0.785864
0.816225
0.805497
0.805795
0.805938
0.82059
0.813996
0.790369
0.753696
0.815044
0.806632
0.811089
0.806739
0.858781
0.804553
0.816216
0.815168
0.806366
0.687305
0.804207
0.815223
0.816578
0.810765
0.815276
0.815667
0.815469
0.810575
0.865324
0.516859
0.815315
0.843011
0.815109
0.803425
0.809196
0.817213
0.841134
0.80183
0.802817
0.814138
0.687628
0.815341
0.809472
0.808905
0.814957
0.815342
0.815462
0.815745
0.526562
0.812789
0.722525
0.886565
0.822898
0.732014
0.687191
0.817549
0.804623
0.820057
0.650689
0.802433
0.815722
0.652078
0.801263
0.804602
0.817113
0.807865
0.857898
0.810238
0.612232
0.801946
0.77547
0.811707
0.889777
0.805092
0.815993
0.820492
0.833479
0.815777
0.82428
0.837813
0.639493
0.804566
0.659847
0.816068
0.815978
0.70832
0.815874
0.806862
0.709711
0.816827
0.707996
0.862165
0.784911
0.816565
0.815394
0.81578
0.673377
0.815993
0.637323
0.801302
0.793128
0.824147
0.817378
0.719911
0.766961
0.831716
0.815137
0.822718
0.823796
0.815808
0.827121
0.800801
0.55913
0.754527
0.761728
0.729572
0.839107
0.824104
0.835585
0.77883
0.803001
0.815491
0.815447
0.815444
0.776102
0.570423
0.803412
0.543309
0.809958
0.82601
0.801085
0.804028
0.814669
0.806484
0.784834
0.733858
0.815764
0.86016
0.815443
0.800582
0.735744
0.810943
0.78955
0.834983
0.523865
0.796509
0.80808
0.800261
0.697927
0.815269
0.812714
0.859412
0.575342
0.807785
0.803467
0.815175
0.623617
0.815516
0.803528
0.803632
0.803255
0.815609
0.81569
0.818195
0.815495
0.71397
0.804866
0.803395
0.815465
0.896775
0.815563
0.776215
0.84268
0.799519
0.803297
0.606814
0.815374
0.803559
0.827373
0.802769
0.867238
0.816594
0.855438
0.801746
0.82255
0.779113
0.565801
0.7559
0.796372
0.806115
0.814351
0.816089
0.562848
0.862734
0.860225
0.771245
0.758388
0.738075
0.813765
0.85019
0.815404
0.814821
0.815437
0.804571
0.725525
0.803768
0.800439
0.764247
0.826049
0.824848
0.862783
0.817765
0.815455
0.577518
0.809268
0.815416
0.801858
0.775998
0.818554
0.803258
0.815245
0.828625
0.799026
0.804654
0.802141
0.817023
0.84054
0.803758
0.800418
0.803015
0.765971
0.821818
0.574007
0.869253
0.804006
0.553489
0.804406
0.804897
0.821024
0.621127
0.611843
0.802738
0.8051
0.802136
0.861688
0.780671
0.816569
0.803196
0.868536
0.805025
0.804745
0.827714
0.817886
0.821709
0.823149
0.822233
0.868357
0.731999
0.853223
0.819234
0.657847
0.80364
0.803465
0.803931
0.823023
0.825304
0.804992
0.80232
0.801341
0.824528
0.804215
0.803949
0.801018
0.826184
0.804256
0.80265
0.806429
0.829533
0.802059
0.802706
0.826094
0.800804
0.817548
0.655511
0.828131
0.850993
0.805797
0.821533
0.803585
0.830429
0.838976
0.803622
0.823353
0.801541
0.808396
0.790152
0.802759
0.804195
0.806696
0.806864
0.805848
0.820516
0.816958
0.811752
0.833024
0.803598
0.802624
0.801208
0.789598
0.835299
0.803527
0.821268
0.817381
0.807965
0.806238
0.803102
0.8403
0.867407
0.800931
0.682471
0.802043
0.843538
0.818674
0.806635
0.804756
0.82071
0.845861
0.625188
0.830528
0.796572
0.852744
0.820704
0.81264
0.814218
0.809617
0.804243
0.813545
0.809352
0.596913
0.849264
0.795418
0.81644
0.855759
0.821246
0.765322
0.80957
0.816685
0.817492
0.803365
0.665813
0.810752
0.864194
0.804314
0.801662
0.777951
0.872071
0.80131
0.877875
0.808317
0.819211
0.822528
0.803781
0.804885
0.815024
0.818002
0.804958
0.815653
0.81819
0.882127
0.821721
0.809696
0.801607
0.829937
0.810916
0.840697
0.809894
0.8073
0.813691
0.818636
0.831344
0.815926
0.824281
0.83373
0.815699
0.706783
0.69878
0.815444
0.819772
0.805356
0.815456
0.531676
0.855893
0.800937
0.806569
0.816107
0.815774
0.804331
0.814837
0.801712
0.802212
0.8093
0.816412
0.760026
0.786484
0.824766
0.844677
0.836037
0.801573
0.807071
0.803581
0.81341
0.806713
0.800862
0.801019
0.801922
0.812447
0.798411
0.804199
0.837011
0.833056
0.734651
0.689768
0.808144
0.707061
0.800951
0.595478
0.804822
0.807838
0.804432
0.820172
0.83552
0.816203
0.815307
0.810725
0.804278
0.882312
0.818369
0.806347
0.773658
0.605127
0.81063
0.808086
0.770947
0.81664
0.81616
0.792186
0.801237
0.80439
0.65092
0.831782
0.803746
0.78404
0.780525
0.853808
0.810364
0.804312
0.804137
0.811743
0.811613
0.534093
0.802671
0.840934
0.816205
0.799217
0.59723
0.815715
0.816327
0.815441
0.835286
0.816191
0.804505
0.823762
0.806845
0.581971
0.809267
0.740695
0.799242
0.815949
0.724449
0.817113
0.848041
0.832666
0.668508
0.891551
0.786542
0.779947
0.797461
0.78013
0.809724
0.852079
0.809385
0.803425
0.815875
0.811106
0.783687
0.78686
0.816117
0.809806
0.83592
0.823063
0.836789
0.803368
0.801066
0.815485
0.857755
0.818245
0.819682
0.815704
0.612371
0.796181
0.82558
0.830648
0.866902
0.815089
0.820112
0.524261
0.81201
0.801799
0.814927
0.816389
0.848796
0.815459
0.811503
0.882246
0.766656
0.813357
0.815586
0.811236
0.80564
0.816466
0.659921
0.801006
0.850785
0.834562
0.811998
0.815575
0.815718
0.809948
0.706004
0.814543
0.801631
0.840025
0.820435
0.813209
0.832749
0.794907
0.813631
0.819792
0.810376
0.821243
0.748293
0.856774
0.820929
0.815326
0.815469
0.815136
0.817752
0.819151
0.815194
0.812903
0.842424
0.82057
0.801524
0.826276
0.828524
0.817562
0.815358
0.801656
0.802377
0.815477
0.820993
0.830454
0.815251
0.818471
0.801285
0.812108
0.815296
0.815206
0.802762
0.816869
0.815664
0.803811
0.815328
0.837126
0.800495
0.811612
0.823148
0.568641
0.816434
0.820153
0.817402
0.817065
0.823804
0.830355
0.817719
0.820811
0.704705
0.81549
0.802299
0.817751
0.820469
0.836153
0.823438
0.816995
0.831028
0.826713
0.813082
0.819645
0.821147
0.806332
0.815556
0.817738
0.820461
0.833705
0.815006
0.817824
0.802954
0.815405
0.815447
0.540446
0.636267
0.814821
0.82332
0.802901
0.824225
0.818023
0.843169
0.711204
0.816036
0.734249
0.819074
0.812507
0.815553
0.830818
0.815956
0.8065
0.815384
0.831469
0.841308
0.815159
0.72209
0.820212
0.818111
0.801117
0.803186
0.817465
0.85701
0.815066
0.815724
0.85089
0.83037
0.844402
0.588374
0.830739
0.816204
0.813058
0.819437
0.852698
0.819783
0.721161
0.800875
0.832773
0.801272
0.800997
0.806264
0.750191
0.815743
0.816537
0.729698
0.816532
0.828338
0.815642
0.816223
0.800608
0.820349
0.815445
0.825125
0.809082
0.810146
0.817011
0.692001
0.821038
0.816284
0.815441
0.646666
0.715449
0.60463
0.824259
0.55591
0.85607
0.729959
0.844077
0.814889
0.729285
0.822801
0.817928
0.744981
0.808491
0.820346
0.794722
0.818548
0.817979
0.817909
0.815439
0.810128
0.803915
0.73979
0.837945
0.822028
0.818644
0.800464
0.816298
0.803614
0.818115
0.815751
0.856675
0.819759
0.525321
0.815356
0.820759
0.820642
0.77907
0.816595
0.807075
0.8194
0.847415
0.60255
0.810567
0.800738
0.817465
0.81963
0.819688
0.814845
0.820579
0.815923
0.816672
0.803305
0.816356
0.847427
0.816111
0.792661
0.813754
0.627551
0.716691
0.815489
0.819039
0.803584
0.82415
0.734888
0.803272
0.803279
0.822126
0.690297
0.819619
0.800809
0.817561
0.867393
0.78638
0.823807
0.819984
0.824385
0.816276
0.771017
0.802794
0.815859
0.90283
0.828182
0.818511
0.833256
0.811975
0.871085
0.716656
0.689474
0.854198
0.802892
0.69008