# vtk DataFile Version 1.0
unstructured grid
ascii
DATASET UNSTRUCTURED_GRID
points 7812 float
-1 0 0
-1 1 0
2 0 0
2 1 0
0 0 0
1 0 0
-1 1 0.1
-1 0 0.1
0 0 0.1
1 0 0.1
2 0 0.1
2 1 0.1
-0.99 0 0
-0.98 0 0
-0.97 0 0
-0.96 0 0
-0.95 0 0
-0.94 0 0
-0.93 0 0
-0.92 0 0
-0.91 0 0
-0.9 0 0
-0.89 0 0
-0.88 0 0
-0.87 0 0
-0.86 0 0
-0.85 0 0
-0.84 0 0
-0.83 0 0
-0.82 0 0
-0.81 0 0
-0.8 0 0
-0.79 0 0
-0.78 0 0
-0.77 0 0
-0.76 0 0
-0.75 0 0
-0.74 0 0
-0.73 0 0
-0.72 0 0
-0.71 0 0
-0.7 0 0
-0.69 0 0
-0.68 0 0
-0.67 0 0
-0.66 0 0
-0.65 0 0
-0.64 0 0
-0.63 0 0
-0.62 0 0
-0.61 0 0
-0.6 0 0
-0.59 0 0
-0.58 0 0
-0.57 0 0
-0.56 0 0
-0.55 0 0
-0.54 0 0
-0.53 0 0
-0.52 0 0
-0.51 0 0
-0.5 0 0
-0.49 0 0
-0.48 0 0
-0.47 0 0
-0.46 0 0
-0.45 0 0
-0.44 0 0
-0.43 0 0
-0.42 0 0
-0.41 0 0
-0.4 0 0
-0.39 0 0
-0.38 0 0
-0.37 0 0
-0.36 0 0
-0.35 0 0
-0.34 0 0
-0.33 0 0
-0.32 0 0
-0.31 0 0
-0.3 0 0
-0.29 0 0
-0.28 0 0
-0.27 0 0
-0.26 0 0
-0.25 0 0
-0.24 0 0
-0.23 0 0
-0.22 0 0
-0.21 0 0
-0.2 0 0
-0.19 0 0
-0.18 0 0
-0.17 0 0
-0.16 0 0
-0.15 0 0
-0.14 0 0
-0.13 0 0
-0.12 0 0
-0.11 0 0
-0.1 0 0
-0.09 0 0
-0.08 0 0
-0.07 0 0
-0.06 0 0
-0.05 0 0
-0.04 0 0
-0.03 0 0
-0.02 0 0
-0.01 0 0
1.01 0 0
1.02 0 0
1.03 0 0
1.04 0 0
1.05 0 0
1.06 0 0
1.07 0 0
1.08 0 0
1.09 0 0
1.1 0 0
1.11 0 0
1.12 0 0
1.13 0 0
1.14 0 0
1.15 0 0
1.16 0 0
1.17 0 0
1.18 0 0
1.19 0 0
1.2 0 0
1.21 0 0
1.22 0 0
1.23 0 0
1.24 0 0
1.25 0 0
1.26 0 0
1.27 0 0
1.28 0 0
1.29 0 0
1.3 0 0
1.31 0 0
1.32 0 0
1.33 0 0
1.34 0 0
1.35 0 0
1.36 0 0
1.37 0 0
1.38 0 0
1.39 0 0
1.4 0 0
1.41 0 0
1.42 0 0
1.43 0 0
1.44 0 0
1.45 0 0
1.46 0 0
1.47 0 0
1.48 0 0
1.49 0 0
1.5 0 0
1.51 0 0
1.52 0 0
1.53 0 0
1.54 0 0
1.55 0 0
1.56 0 0
1.57 0 0
1.58 0 0
1.59 0 0
1.6 0 0
1.61 0 0
1.62 0 0
1.63 0 0
1.64 0 0
1.65 0 0
1.66 0 0
1.67 0 0
1.68 0 0
1.69 0 0
1.7 0 0
1.71 0 0
1.72 0 0
1.73 0 0
1.74 0 0
1.75 0 0
1.76 0 0
1.77 0 0
1.78 0 0
1.79 0 0
1.8 0 0
1.81 0 0
1.82 0 0
1.83 0 0
1.84 0 0
1.85 0 0
1.86 0 0
1.87 0 0
1.88 0 0
1.89 0 0
1.9 0 0
1.91 0 0
1.92 0 0
1.93 0 0
1.94 0 0
1.95 0 0
1.96 0 0
1.97 0 0
1.98 0 0
1.99 0 0
2 0.010289 0
2 0.0215307 0
2 0.0338135 0
2 0.0472336 0
2 0.0618965 0
2 0.0779171 0
2 0.0954213 0
2 0.114546 0
2 0.135442 0
2 0.158274 0
2 0.183219 0
2 0.210474 0
2 0.240253 0
2 0.27279 0
2 0.308339 0
2 0.347181 0
2 0.389619 0
2 0.435987 0
2 0.486649 0
2 0.542002 0
2 0.602481 0
2 0.66856 0
2 0.740758 0
2 0.819642 0
2 0.90583 0
1.9 1 0
1.8 1 0
1.7 1 0
1.6 1 0
1.5 1 0
1.4 1 0
1.3 1 0
1.2 1 0
1.1 1 0
1 1 0
0.9 1 0
0.8 1 0
0.7 1 0
0.6 1 0
0.5 1 0
0.4 1 0
0.3 1 0
0.2 1 0
0.1 1 0
3.69793e-12 1 0
-0.1 1 0
-0.2 1 0
-0.3 1 0
-0.4 1 0
-0.5 1 0
-0.6 1 0
-0.7 1 0
-0.8 1 0
-0.9 1 0
-1 0.90583 0
-1 0.819642 0
-1 0.740758 0
-1 0.66856 0
-1 0.602481 0
-1 0.542002 0
-1 0.486649 0
-1 0.435987 0
-1 0.389619 0
-1 0.347181 0
-1 0.308339 0
-1 0.27279 0
-1 0.240253 0
-1 0.210474 0
-1 0.183219 0
-1 0.158274 0
-1 0.135442 0
-1 0.114546 0
-1 0.0954213 0
-1 0.0779171 0
-1 0.0618965 0
-1 0.0472336 0
-1 0.0338135 0
-1 0.0215307 0
-1 0.010289 0
0.00921362 0.00379763 0
0.0184561 0.00752451 0
0.0277268 0.0111804 0
0.0370253 0.0147652 0
0.0463511 0.0182786 0
0.0557034 0.0217203 0
0.0650819 0.0250903 0
0.074486 0.0283883 0
0.083915 0.0316141 0
0.0933685 0.0347675 0
0.102846 0.0378484 0
0.112347 0.0408565 0
0.12187 0.0437917 0
0.131416 0.0466538 0
0.140983 0.0494427 0
0.150572 0.0521581 0
0.160181 0.0547999 0
0.16981 0.0573681 0
0.179458 0.0598623 0
0.189125 0.0622825 0
0.198811 0.0646285 0
0.208514 0.0669001 0
0.218234 0.0690974 0
0.227971 0.07122 0
0.237724 0.073268 0
0.247493 0.0752411 0
0.257276 0.0771393 0
0.267073 0.0789625 0
0.276884 0.0807105 0
0.286708 0.0823832 0
0.296545 0.0839806 0
0.306394 0.0855025 0
0.316254 0.0869488 0
0.326125 0.0883196 0
0.336006 0.0896146 0
0.345896 0.0908339 0
0.355796 0.0919773 0
0.365704 0.0930447 0
0.375621 0.0940362 0
0.385544 0.0949517 0
0.395474 0.095791 0
0.40541 0.0965542 0
0.415352 0.0972412 0
0.425299 0.097852 0
0.43525 0.0983865 0
0.445205 0.0988447 0
0.455164 0.0992266 0
0.465125 0.0995321 0
0.475088 0.0997613 0
0.485052 0.0999141 0
0.495017 0.0999904 0
0.504983 0.0999904 0
0.514948 0.0999141 0
0.524912 0.0997613 0
0.534875 0.0995321 0
0.544836 0.0992266 0
0.554795 0.0988447 0
0.56475 0.0983865 0
0.574701 0.097852 0
0.584648 0.0972412 0
0.59459 0.0965542 0
0.604526 0.095791 0
0.614456 0.0949517 0
0.624379 0.0940362 0
0.634296 0.0930447 0
0.644204 0.0919773 0
0.654104 0.0908339 0
0.663994 0.0896146 0
0.673875 0.0883196 0
0.683746 0.0869488 0
0.693606 0.0855025 0
0.703455 0.0839806 0
0.713292 0.0823832 0
0.723116 0.0807105 0
0.732927 0.0789625 0
0.742724 0.0771393 0
0.752508 0.0752411 0
0.762276 0.073268 0
0.772029 0.07122 0
0.781766 0.0690974 0
0.791486 0.0669001 0
0.801189 0.0646285 0
0.810875 0.0622825 0
0.820542 0.0598623 0
0.83019 0.0573681 0
0.839819 0.0547999 0
0.849428 0.0521581 0
0.859017 0.0494427 0
0.868584 0.0466538 0
0.87813 0.0437917 0
0.887653 0.0408565 0
0.897154 0.0378484 0
0.906631 0.0347675 0
0.916085 0.0316141 0
0.925514 0.0283883 0
0.934918 0.0250903 0
0.944297 0.0217203 0
0.953649 0.0182786 0
0.962975 0.0147652 0
0.972273 0.0111804 0
0.981544 0.00752451 0
0.990786 0.00379763 0
-1 0.90583 0.1
-1 0.819642 0.1
-1 0.740758 0.1
-1 0.66856 0.1
-1 0.602481 0.1
-1 0.542002 0.1
-1 0.486649 0.1
-1 0.435987 0.1
-1 0.389619 0.1
-1 0.347181 0.1
-1 0.308339 0.1
-1 0.27279 0.1
-1 0.240253 0.1
-1 0.210474 0.1
-1 0.183219 0.1
-1 0.158274 0.1
-1 0.135442 0.1
-1 0.114546 0.1
-1 0.0954213 0.1
-1 0.0779171 0.1
-1 0.0618965 0.1
-1 0.0472336 0.1
-1 0.0338135 0.1
-1 0.0215307 0.1
-1 0.010289 0.1
-0.99 0 0.1
-0.98 0 0.1
-0.97 0 0.1
-0.96 0 0.1
-0.95 0 0.1
-0.94 0 0.1
-0.93 0 0.1
-0.92 0 0.1
-0.91 0 0.1
-0.9 0 0.1
-0.89 0 0.1
-0.88 0 0.1
-0.87 0 0.1
-0.86 0 0.1
-0.85 0 0.1
-0.84 0 0.1
-0.83 0 0.1
-0.82 0 0.1
-0.81 0 0.1
-0.8 0 0.1
-0.79 0 0.1
-0.78 0 0.1
-0.77 0 0.1
-0.76 0 0.1
-0.75 0 0.1
-0.74 0 0.1
-0.73 0 0.1
-0.72 0 0.1
-0.71 0 0.1
-0.7 0 0.1
-0.69 0 0.1
-0.68 0 0.1
-0.67 0 0.1
-0.66 0 0.1
-0.65 0 0.1
-0.64 0 0.1
-0.63 0 0.1
-0.62 0 0.1
-0.61 0 0.1
-0.6 0 0.1
-0.59 0 0.1
-0.58 0 0.1
-0.57 0 0.1
-0.56 0 0.1
-0.55 0 0.1
-0.54 0 0.1
-0.53 0 0.1
-0.52 0 0.1
-0.51 0 0.1
-0.5 0 0.1
-0.49 0 0.1
-0.48 0 0.1
-0.47 0 0.1
-0.46 0 0.1
-0.45 0 0.1
-0.44 0 0.1
-0.43 0 0.1
-0.42 0 0.1
-0.41 0 0.1
-0.4 0 0.1
-0.39 0 0.1
-0.38 0 0.1
-0.37 0 0.1
-0.36 0 0.1
-0.35 0 0.1
-0.34 0 0.1
-0.33 0 0.1
-0.32 0 0.1
-0.31 0 0.1
-0.3 0 0.1
-0.29 0 0.1
-0.28 0 0.1
-0.27 0 0.1
-0.26 0 0.1
-0.25 0 0.1
-0.24 0 0.1
-0.23 0 0.1
-0.22 0 0.1
-0.21 0 0.1
-0.2 0 0.1
-0.19 0 0.1
-0.18 0 0.1
-0.17 0 0.1
-0.16 0 0.1
-0.15 0 0.1
-0.14 0 0.1
-0.13 0 0.1
-0.12 0 0.1
-0.11 0 0.1
-0.1 0 0.1
-0.09 0 0.1
-0.08 0 0.1
-0.07 0 0.1
-0.06 0 0.1
-0.05 0 0.1
-0.04 0 0.1
-0.03 0 0.1
-0.02 0 0.1
-0.01 0 0.1
0.00921362 0.00379763 0.1
0.0184561 0.00752451 0.1
0.0277268 0.0111804 0.1
0.0370253 0.0147652 0.1
0.0463511 0.0182786 0.1
0.0557034 0.0217203 0.1
0.0650819 0.0250903 0.1
0.074486 0.0283883 0.1
0.083915 0.0316141 0.1
0.0933685 0.0347675 0.1
0.102846 0.0378484 0.1
0.112347 0.0408565 0.1
0.12187 0.0437917 0.1
0.131416 0.0466538 0.1
0.140983 0.0494427 0.1
0.150572 0.0521581 0.1
0.160181 0.0547999 0.1
0.16981 0.0573681 0.1
0.179458 0.0598623 0.1
0.189125 0.0622825 0.1
0.198811 0.0646285 0.1
0.208514 0.0669001 0.1
0.218234 0.0690974 0.1
0.227971 0.07122 0.1
0.237724 0.073268 0.1
0.247493 0.0752411 0.1
0.257276 0.0771393 0.1
0.267073 0.0789625 0.1
0.276884 0.0807105 0.1
0.286708 0.0823832 0.1
0.296545 0.0839806 0.1
0.306394 0.0855025 0.1
0.316254 0.0869488 0.1
0.326125 0.0883196 0.1
0.336006 0.0896146 0.1
0.345896 0.0908339 0.1
0.355796 0.0919773 0.1
0.365704 0.0930447 0.1
0.375621 0.0940362 0.1
0.385544 0.0949517 0.1
0.395474 0.095791 0.1
0.40541 0.0965542 0.1
0.415352 0.0972412 0.1
0.425299 0.097852 0.1
0.43525 0.0983865 0.1
0.445205 0.0988447 0.1
0.455164 0.0992266 0.1
0.465125 0.0995321 0.1
0.475088 0.0997613 0.1
0.485052 0.0999141 0.1
0.495017 0.0999904 0.1
0.504983 0.0999904 0.1
0.514948 0.0999141 0.1
0.524912 0.0997613 0.1
0.534875 0.0995321 0.1
0.544836 0.0992266 0.1
0.554795 0.0988447 0.1
0.56475 0.0983865 0.1
0.574701 0.097852 0.1
0.584648 0.0972412 0.1
0.59459 0.0965542 0.1
0.604526 0.095791 0.1
0.614456 0.0949517 0.1
0.624379 0.0940362 0.1
0.634296 0.0930447 0.1
0.644204 0.0919773 0.1
0.654104 0.0908339 0.1
0.663994 0.0896146 0.1
0.673875 0.0883196 0.1
0.683746 0.0869488 0.1
0.693606 0.0855025 0.1
0.703455 0.0839806 0.1
0.713292 0.0823832 0.1
0.723116 0.0807105 0.1
0.732927 0.0789625 0.1
0.742724 0.0771393 0.1
0.752508 0.0752411 0.1
0.762276 0.073268 0.1
0.772029 0.07122 0.1
0.781766 0.0690974 0.1
0.791486 0.0669001 0.1
0.801189 0.0646285 0.1
0.810875 0.0622825 0.1
0.820542 0.0598623 0.1
0.83019 0.0573681 0.1
0.839819 0.0547999 0.1
0.849428 0.0521581 0.1
0.859017 0.0494427 0.1
0.868584 0.0466538 0.1
0.87813 0.0437917 0.1
0.887653 0.0408565 0.1
0.897154 0.0378484 0.1
0.906631 0.0347675 0.1
0.916085 0.0316141 0.1
0.925514 0.0283883 0.1
0.934918 0.0250903 0.1
0.944297 0.0217203 0.1
0.953649 0.0182786 0.1
0.962975 0.0147652 0.1
0.972273 0.0111804 0.1
0.981544 0.00752451 0.1
0.990786 0.00379763 0.1
1.01 0 0.1
1.02 0 0.1
1.03 0 0.1
1.04 0 0.1
1.05 0 0.1
1.06 0 0.1
1.07 0 0.1
1.08 0 0.1
1.09 0 0.1
1.1 0 0.1
1.11 0 0.1
1.12 0 0.1
1.13 0 0.1
1.14 0 0.1
1.15 0 0.1
1.16 0 0.1
1.17 0 0.1
1.18 0 0.1
1.19 0 0.1
1.2 0 0.1
1.21 0 0.1
1.22 0 0.1
1.23 0 0.1
1.24 0 0.1
1.25 0 0.1
1.26 0 0.1
1.27 0 0.1
1.28 0 0.1
1.29 0 0.1
1.3 0 0.1
1.31 0 0.1
1.32 0 0.1
1.33 0 0.1
1.34 0 0.1
1.35 0 0.1
1.36 0 0.1
1.37 0 0.1
1.38 0 0.1
1.39 0 0.1
1.4 0 0.1
1.41 0 0.1
1.42 0 0.1
1.43 0 0.1
1.44 0 0.1
1.45 0 0.1
1.46 0 0.1
1.47 0 0.1
1.48 0 0.1
1.49 0 0.1
1.5 0 0.1
1.51 0 0.1
1.52 0 0.1
1.53 0 0.1
1.54 0 0.1
1.55 0 0.1
1.56 0 0.1
1.57 0 0.1
1.58 0 0.1
1.59 0 0.1
1.6 0 0.1
1.61 0 0.1
1.62 0 0.1
1.63 0 0.1
1.64 0 0.1
1.65 0 0.1
1.66 0 0.1
1.67 0 0.1
1.68 0 0.1
1.69 0 0.1
1.7 0 0.1
1.71 0 0.1
1.72 0 0.1
1.73 0 0.1
1.74 0 0.1
1.75 0 0.1
1.76 0 0.1
1.77 0 0.1
1.78 0 0.1
1.79 0 0.1
1.8 0 0.1
1.81 0 0.1
1.82 0 0.1
1.83 0 0.1
1.84 0 0.1
1.85 0 0.1
1.86 0 0.1
1.87 0 0.1
1.88 0 0.1
[...]
CELL_DATA 7425
SCALARS rho float
LOOKUP_TABLE default
0.588085
0.805079
0.819807
0.827735
0.799697
0.819397
0.821107
0.814429
0.813308
0.738951
0.863602
0.810124
0.814196
0.827592
0.803955
0.817419
0.79901
0.813581
0.803505
0.767442
0.831481
0.82213
0.725127
0.828266
0.803912
0.703878
0.831409
0.848686
0.800214
0.808076
0.819569
0.725182
0.803652
0.652852
0.521019
0.828233
0.803539
0.814407
0.811233
0.82821
0.716682
0.704407
0.790205
0.700481
0.587581
0.74847
0.799565
0.814131
0.664218
0.718996
0.746375
0.805197
0.812432
0.799335
0.709071
0.665889
0.823151
0.800273
0.738824
0.701368
0.710554
0.807709
0.813551
0.799625
0.798826
0.817872
0.585244
0.773542
0.703351
0.808005
0.80436
0.803223
0.883486
0.821203
0.810929
0.813367
0.805094
0.800485
0.813557
0.757898
0.816255
0.807289
0.810596
0.788917
0.83606
0.801326
0.575312
0.830151
0.543816
0.848636
0.704467
0.730074
0.845641
0.803212
0.817663
0.758688
0.836256
0.788137
0.825854
0.80274
0.808367
0.738618
0.803318
0.828443
0.597989
0.811157
0.824591
0.708038
0.815282
0.799436
0.816975
0.784705
0.790027
0.812487
0.789938
0.786442
0.831457
0.803124
0.698982
0.636303
0.805092
0.777516
0.813273
0.790515
0.859075
0.839211
0.807747
0.804483
0.661766
0.505852
0.814762
0.655811
0.516802
0.868203
0.66476
0.79979
0.811178
0.723977
0.582878
0.725537
0.723926
0.809801
0.809958
0.706537
0.803329
0.779751
0.566322
0.788821
0.782562
0.827986
0.816963
0.705104
0.803145
0.744335
0.704488
0.80331
0.810524
0.830619
0.797786
0.653576
0.802603
0.701773
0.801336
0.829954
0.820704
0.802416
0.813387
0.785049
0.806337
0.800904
0.81996
0.804748
0.791479
0.799398
0.800073
0.740701
0.803939
0.759187
0.595322
0.703206
0.799934
0.792967
0.879884
0.832032
0.634624
0.823163
0.798907
0.827628
0.800118
0.813715
0.812945
0.80323
0.807004
0.703833
0.815296
0.819501
0.770282
0.797394
0.861622
0.807826
0.81197
0.811493
0.613588
0.839268
0.573909
0.533403
0.596253
0.60253
0.828369
0.879421
0.807575
0.798704
0.841521
0.813299
0.816947
0.821011
0.815485
0.638578
0.554223
0.814031
0.546913
0.593748
0.702668
0.811974
0.814357
0.813367
0.83333
0.813249
0.86468
0.708989
0.835392
0.713668
0.805232
0.803959
0.802038
0.714376
0.721209
0.620084
0.704195
0.863746
0.875942
0.806526
0.807747
0.799125
0.811698
0.716779
0.82185
0.800464
0.825914
0.794712
0.810171
0.721269
0.813147
0.823969
0.740394
0.529675
0.800067
0.736335
0.843468
0.814633
0.726302
0.815856
0.815129
0.850077
0.809816
0.804165
0.803285
0.825878
0.860893
0.805711
0.619826
0.849039
0.812283
0.805649
0.827756
0.837492
0.813305
0.821664
0.7936
0.815358
0.867098
0.850073
0.827554
0.836927
0.802755
0.817427
0.803211
0.759851
0.702106
0.581755
0.699708
0.802602
0.813219
0.816262
0.855129
0.7798
0.646302
0.8273
0.52256
0.774532
0.80121
0.646965
0.499022
0.639666
0.815481
0.813553
0.813298
0.813026
0.826936
0.774558
0.811534
0.802707
0.813245
0.840888
0.867593
0.833749
0.802846
0.703871
0.796127
0.834441
0.69208
0.799011
0.802111
0.8649
0.817368
0.593785
0.813703
0.741109
0.852706
0.732487
0.810418
0.907708
0.80014
0.7959
0.659541
0.636152
0.710797
0.780926
0.826758
0.815221
0.813998
0.882994
0.858605
0.799808
0.79937
0.826121
0.7397
0.802608
0.879484
0.801411
0.804993
0.800953
0.802604
0.813282
0.815999
0.816644
0.637089
0.830209
0.647093
0.80863
0.640197
0.802874
0.802289
0.84041
0.729422
0.816421
0.808843
0.817248
0.799729
0.802531
0.811345
0.698092
0.824558
0.813383
0.813244
0.800717
0.736903
0.560808
0.806464
0.811346
0.803219
0.813231
0.794961
0.506925
0.846261
0.813628
0.803885
0.78596
0.81358
0.804849
0.803225
0.816512
0.80756
0.822745
0.768846
0.812849
0.80783
0.563555
0.803388
0.640676
0.838901
0.636816
0.814981
0.878001
0.595026
0.818209
0.749298
0.80446
0.873439
0.53534
0.823352
0.822497
0.803531
0.825962
0.811205
0.823691
0.830843
0.825058
0.740296
0.827738
0.761636
0.8104
0.794327
0.793863
0.758905
0.805657
0.802112
0.814726
0.752754
0.804849
0.605196
0.614959
0.690091
0.813129
0.84436
0.864963
0.830072
0.798858
0.81298
0.805048
0.818747
0.68102
0.801198
0.743285
0.824221
0.815074
0.805695
0.7107
0.727661
0.534941
0.606264
0.801516
0.612013
0.792861
0.765522
0.770276
0.726725
0.76277
0.767862
0.809749
0.815219
0.819803
0.811794
0.711297
0.60433
0.839207
0.807203
0.783283
0.810134
0.802686
0.836747
0.719146
0.855429
0.763784
0.729178
0.764879
0.811793
0.546247
0.799093
0.841792
0.813489
0.814091
0.810023
0.799447
0.780643
0.83586
0.803139
0.843146
0.721414
0.706775
0.800503
0.79539
0.822258
0.70931
0.848122
0.800709
0.816326
0.798988
0.779323
0.808557
0.595368
0.67795
0.632985
0.813235
0.804015
0.826572
0.749553
0.810651
0.815089
0.82064
0.799249
0.730078
0.79717
0.8146
0.803228
0.704416
0.813902
0.819154
0.840192
0.811106
0.825563
0.862406
0.857398
0.744415
0.60414
0.838179
0.805981
0.843522
0.814525
0.823085
0.813835
0.814109
0.639429
0.805485
0.809557
0.813164
0.792128
0.810788
0.805021
0.861023
0.798938
0.813078
0.815005
0.872034
0.598371
0.813771
0.84282
0.883403
0.531697
0.816678
0.830173
0.796221
0.814823
0.795189
0.867717
0.812413
0.831556
0.813021
0.62002
0.802459
0.804193
0.691932
0.853267
0.75972
0.801893
0.814278
0.813039
0.860192
0.795431
0.833785
0.834917
0.784623
0.825346
0.842738
0.800011
0.81078
0.807243
0.805364
0.815103
0.802667
0.845384
0.769428
0.809844
0.803227
0.81542
0.723652
0.813234
0.818616
0.752902
0.813897
0.816578
0.827881
0.825344
0.800965
0.800839
0.850631
0.767869
0.825448
0.844371
0.804603
0.507452
0.81323
0.828497
0.852515
0.812928
0.80317
0.808613
0.855176
0.780092
0.802626
0.801453
0.813275
0.728007
0.802907
0.830168
0.808316
0.795061
0.793819
0.843373
0.806658
0.845457
0.802047
0.824484
0.813076
0.80426
0.841998
0.813199
0.68032
0.81904
0.807153
0.813148
0.906201
0.800972
0.816135
0.800638
0.80059
0.816484
0.800692
0.803414
0.783731
0.747466
0.8068
0.813239
0.758338
0.791708
0.823259
0.813077
0.822501
0.806459
0.826002
0.875403
0.83086
0.576818
0.709194
0.840935
0.817561
0.844321
0.815051
0.850248
0.807626
0.812604
0.799605
0.83859
0.861067
0.852944
0.732036
0.814394
0.822413
0.743771
0.817418
0.776142
0.800396
0.733538
0.816347
0.831077
0.823561
0.862368
0.814514
0.813622
0.810487
0.814936
0.835967
0.812264
0.79893
0.810291
0.738056
0.811685
0.774137
0.833027
0.813067
0.639377
0.777785
0.811409
0.799437
0.820084
0.802748
0.814969
0.817573
0.804643
0.819654
0.804207
0.80615
0.59867
0.84721
0.825361
0.82693
0.815219
0.803258
0.702271
0.806779
0.907891
0.813891
0.801326
0.813201
0.782428
0.807561
0.81359
0.821537
0.814708
0.813554
0.816522
0.699403
0.778161
0.764965
0.812992
0.805477
0.80132
0.622007
0.80601
0.802886
0.708775
0.837441
0.817473
0.802384
0.807717
0.799622
0.817519
0.81415
0.813614
0.813224
0.71007
0.831885
0.800358
0.807718
0.843071
0.817913
0.816573
0.800416
0.753789
0.82406
0.78772
0.821682
0.789532
0.80595
0.821206
0.737638
0.817648
0.652535
0.872143
0.704804
0.845178
0.8011
0.875257
0.793949
0.801804
0.820926
0.836477
0.838543
0.825687
0.820087
0.814994
0.801404
0.804253
0.808359
0.726655
0.827366
0.800132
0.719389
0.830726
0.702507
0.800292
0.86089
0.805639
0.702716
0.79794
0.814396
0.704163
0.785675
0.819643
0.832036
0.807267
0.580305
0.729483
0.812464
0.801626
0.81327
0.80091
0.737568
0.814319
0.816007
0.812836
0.77562
0.803297
0.804547
0.803882
0.561313
0.813061
0.83423
0.581174
0.815461
0.816389
0.814997
0.818629
0.814723
0.824773
0.799373
0.795195
0.771001
0.823021
0.829783
0.825224
0.835248
0.765652
0.809321
0.725309
0.7725
0.809085
0.821326
0.81361
0.801013
0.858795
0.813274
0.80063
0.809918
0.816376
0.815483
0.836825
0.814798
0.813147
0.812037
0.814133
0.800443
0.821246
0.803821
0.823074
0.81379
0.576866
0.813836
0.834665
0.858561
0.838334
0.492901
0.817087
0.804754
0.498381
0.670373
0.645213
0.834481
0.808194
0.811708
0.813131
0.803222
0.817029
0.811103
0.535825
0.687541
0.818345
0.806675
0.815903
0.803545
0.810314
0.811244
0.820484
0.799734
0.693485
0.856413
0.803169
0.814787
0.813937
0.758067
0.48788
0.8331
0.813705
0.741776
0.802721
0.806505
0.592663
0.827708
0.815074
0.827945
0.819047
0.826303
0.804777
0.720416
0.644112
0.562939
0.825551
0.808828
0.782963
0.81331
0.780114
0.818162
0.873416
0.762648
0.82186
0.81383
0.826066
0.88366
0.814744
0.81216
0.803325
0.813924
0.69248
0.828431
0.800094
0.810477
0.802283
0.78437
0.854314
0.822286
0.840632
0.821774
0.757523
0.756129
0.803605
0.818362
0.803088
0.805291
0.802654
0.775987
0.814981
0.761917
0.821468
0.662589
0.81428
0.80302
0.735337
0.823429
0.818213
0.740317
0.801228
0.757536
0.881264
0.800761
0.81319
0.763004
0.800381
0.814579
0.80399
0.590678
0.821122
0.798889
0.801643
0.814828
0.825833
0.757506
0.805808
0.84202
0.82726
0.81422
0.836035
0.698311
0.700573
0.813271
0.74448
0.822465
0.771634
0.813181
0.802574
0.810618
0.752266
0.794275
0.764674
0.810197
0.803163
0.631752
0.779227
0.799285
0.849431
0.814673
0.828871
0.527957
0.825428
0.785337
0.858878
0.800983
0.818129
0.800571
0.78605
0.799015
0.825928
0.83592
0.821941
0.817389
0.706375
0.774149
0.815619
0.805426
0.810317
0.803948
0.705606
0.793071
0.803631
0.810947
0.827458
0.851342
0.832061
0.813787
0.799704
0.804449
0.802213
0.779805
0.612322
0.800616
0.731874
0.662491
0.823037
0.799097
0.777262
0.800228
0.75446
0.78541
0.811806
0.822458
0.803591
0.816288
0.81758
0.82084
0.813714
0.808697
0.712526
0.699835
0.641444
0.829496
0.869685
0.815551
0.841546
0.847996
0.863853
0.736392
0.816828
0.863136
0.810446
0.813222
0.816415
0.733252
0.812713
0.80696
0.806487
0.518746
0.813305
0.761445
0.813484
0.81386
0.803577
0.704843
0.813523
0.611308
0.825201
0.802491
0.822415
0.855313
0.803469
0.79545
0.821185
0.811889
0.805833
0.762508
0.511676
0.821145
0.803137
0.829254
0.82599
0.802395
0.807075
0.834642
0.721327
0.502351
0.886349
0.800847
0.815977
0.804365
0.709926
0.798901
0.800262
0.815358
0.736762
0.647049
0.883336
0.714602
0.836743
0.812304
0.833093
0.842838
0.792483
0.804787
0.813906
0.85291
0.738642
0.870806
0.814325
0.563665
0.802743
0.748772
0.853065
0.760671
0.804258
0.803991
0.799867
0.801692
0.809193
0.813253
0.855991
0.806262
0.802888
0.801341
0.800241
0.812588
0.81715
0.802644
0.812833
0.849369
0.803116
0.783714
0.802279
0.839962
0.725891
0.813944
0.814132
0.644855
0.713552
0.805615
0.823253
0.803856
0.513381
0.856784
0.813516
0.833346
0.805351
0.803342
0.801432
0.786526
0.587848
0.804358
0.816384
0.836112
0.820818
0.81329
0.798458
0.74746
0.801635
0.766201
0.787655
0.79959
0.791056
0.751183
0.801055
0.811763
0.810684
0.832371
0.849499
0.554427
0.842082
0.813192
0.820917
0.802204
0.822745
0.811424
0.89469
0.800447
0.867618
0.805747
0.760143
0.862238
0.802324
0.800285
0.824384
0.660947
0.645842
0.803429
0.8039
0.702662
0.654841
0.799941
0.824085
0.813365
0.82283
0.733494
0.817393
0.813171
0.826359
0.81719
0.812
0.813213
0.754884
0.804159
0.815959
0.811679
0.676692
0.567329
0.81325
0.650525
0.72228
0.556086
0.841573
0.80036
0.528774
0.601484
0.827685
0.908123
0.818411
0.652869
0.81446
0.786694
0.801927
0.786623
0.820966
0.810361
0.7884
0.821294
0.801291
0.588572
0.818091
0.766984
0.816204
0.700002
0.822462
0.789909
0.814255
0.800316
0.663403
0.843655
0.806762
0.806901
0.49555
0.817107
0.8006
0.852598
0.710924
0.817359
0.58626
0.719858
0.801606
0.796907
0.733472
0.716118
0.71527
0.508878
0.593538
0.800265
0.519395
0.822841
0.523021
0.757482
0.672244
0.602447
0.542301
0.745749
0.803102
0.714313
0.821544
0.801088
0.803106
0.761479
0.889762
0.799314
0.824712
0.803478
0.813133
0.70637
0.807822
0.737035
0.822155
0.886128
0.833753
0.748072
0.823027
0.770783
0.879991
0.804236
0.758948
0.850842
0.77714
0.799968
0.805586
0.75852
0.745212
0.667837
0.805028
0.803046
0.818164
0.833688
0.612075
0.808208
0.539488
0.669082
0.618067
0.818828
0.821289
0.809305
0.804016
0.616286
0.872559
0.802702
0.802965
0.863647
0.812772
0.772251
0.812509
0.802402
0.81817
0.803161
0.717424
0.80355
0.656809
0.799251
0.80435
0.801625
0.639691
0.811749
0.810509
0.725762
0.818089
0.550286
0.577561
0.804192
0.696916
0.726291
0.572925
0.724178
0.813936
0.706137
0.773163
0.716247
0.812991
0.670715
0.76239
0.806579
0.810901
0.655327
0.802007
0.895231
0.796792
0.817071
0.586671
0.69429
0.801222
0.813284
0.814312
0.851794
0.812971
0.804314
0.803776
0.803372
0.714269
0.717269
0.616337
0.771805
0.534798
0.72343
0.810225
0.814702
0.806399
0.799536
0.542829
0.809367
0.803796
0.555159
0.544818
0.746904
0.80361
0.806433
0.550334
0.79837
0.570514
0.721419
0.608524
0.813712
0.80245
0.597838
0.608979
0.868013
0.810188
0.765689
0.718425
0.623087
0.655851
0.708608
0.816284
0.760055
0.765459
0.624676
0.754215
0.809606
0.815651
0.812796
0.815759
0.866136
0.755069
0.819187
0.803398
0.851423
0.813205
0.802806
0.813403
0.721932
0.813218
0.812267
0.815457
0.811433
0.816162
0.8033
0.818186
0.810672
0.810029
0.817529
0.800159
0.81686
0.81921
0.667985
0.818868
0.868534
0.818429
0.793017
0.646453
0.858718
0.819048
0.825117
0.799798
0.811555
0.757466
0.852697
0.562588
0.727455
0.809918
0.81595
0.803914
0.803394
0.832252
0.805299
0.805365
0.815551
0.780955
0.838737
0.842115
0.815437
0.664834
0.614911
0.816048
0.816888
0.788621
0.849786
0.847408
0.811149
0.8139
0.778039
0.814381
0.818094
0.814408
0.819035
0.813384
0.816105
0.851196
0.816249
0.814777
0.817821
0.81803
0.785025
0.814392
0.804309
0.804424
0.804842
0.818828
0.811822
0.788605
0.753829
0.812985
0.806324
0.809083
0.806425
0.857891
0.803545
0.814286
0.813025
0.805377
0.609165
0.80393
0.813071
0.815308
0.810373
0.813116
0.813612
0.813348
0.810229
0.864502
0.503376
0.813147
0.841826
0.812977
0.803027
0.808513
0.815288
0.839858
0.800693
0.801501
0.812797
0.703366
0.813166
0.808422
0.807635
0.81287
0.813209
0.813348
0.813673
0.513587
0.811952
0.716753
0.885926
0.821287
0.733074
0.674089
0.815646
0.803754
0.818953
0.647042
0.801779
0.813645
0.648514
0.800106
0.804164
0.815741
0.80647
0.856879
0.8099
0.60761
0.801018
0.77514
0.811282
0.889154
0.80351
0.815579
0.81949
0.832357
0.81371
0.822635
0.836521
0.635548
0.802873
0.65631
0.814048
0.81395
0.711939
0.813837
0.805077
0.712705
0.815161
0.70233
0.861205
0.784302
0.81459
0.813222
0.813734
0.668602
0.813958
0.633813
0.800388
0.792469
0.822526
0.815463
0.716614
0.7667
0.830255
0.813065
0.821469
0.822141
0.813746
0.825554
0.799733
0.552996
0.754812
0.759553
0.730982
0.83779
0.822668
0.834479
0.776394
0.802793
0.81335
0.813278
0.813281
0.774836
0.564666
0.803231
0.530287
0.808417
0.824589
0.79995
0.803794
0.813258
0.806076
0.782901
0.732433
0.813696
0.859263
0.813912
0.799523
0.736711
0.809905
0.788831
0.833868
0.506058
0.796048
0.806181
0.799128
0.690853
0.813158
0.810999
0.857537
0.569884
0.807392
0.803296
0.813127
0.613958
0.813403
0.803359
0.803433
0.803057
0.813512
0.813607
0.816369
0.813359
0.717069
0.80455
0.803227
0.813311
0.896231
0.813459
0.774268
0.841391
0.799225
0.803156
0.602045
0.813208
0.803384
0.825967
0.802034
0.866342
0.815041
0.853819
0.800591
0.82087
0.778045
0.559268
0.753115
0.79451
0.804212
0.813989
0.814095
0.55647
0.861892
0.858382
0.768827
0.757752
0.738588
0.812364
0.848736
0.813244
0.813858
0.813279
0.804312
0.726695
0.803535
0.799348
0.764119
0.824477
0.823221
0.861949
0.815913
0.813291
0.529384
0.808936
0.813251
0.800904
0.774225
0.818134
0.80313
0.813182
0.827093
0.798525
0.803752
0.801367
0.815397
0.839283
0.802614
0.79939
0.801765
0.766042
0.820102
0.567966
0.868476
0.80373
0.546731
0.803369
0.803345
0.819837
0.595971
0.606888
0.801753
0.803895
0.801072
0.860838
0.780137
0.814864
0.80297
0.866247
0.804754
0.804489
0.826476
0.816181
0.820399
0.821498
0.820552
0.867576
0.729614
0.852269
0.817444
0.654218
0.802718
0.80322
0.803675
0.821346
0.823715
0.804123
0.801298
0.800279
0.822893
0.803353
0.80365
0.799905
0.824593
0.804009
0.802091
0.806121
0.828056
0.800814
0.801722
0.824567
0.799801
0.815644
0.651825
0.826588
0.84997
0.805
0.819803
0.803277
0.828939
0.837661
0.803427
0.821695
0.800702
0.807229
0.789627
0.802244
0.803319
0.806398
0.806034
0.804742
0.818776
0.815015
0.8113
0.83159
0.80243
0.802276
0.800134
0.789033
0.833955
0.803196
0.819533
0.815469
0.807216
0.805229
0.802969
0.83906
0.865246
0.799816
0.679402
0.801319
0.842303
0.816839
0.805397
0.8045
0.819807
0.844732
0.604885
0.82908
0.79475
0.850811
0.81896
0.812071
0.813383
0.808473
0.803992
0.812856
0.808824
0.59249
0.848123
0.794743
0.814453
0.854715
0.819507
0.763451
0.808751
0.81472
0.815698
0.803016
0.66223
0.809483
0.863264
0.802787
0.800863
0.775736
0.871307
0.800576
0.877153
0.806879
0.817404
0.820834
0.802502
0.803984
0.812901
0.816132
0.803732
0.813606
0.816986
0.881432
0.820786
0.809344
0.8004
0.828579
0.810533
0.83921
0.808958
0.806985
0.812406
0.816792
0.830067
0.81393
0.82273
0.832662
0.814446
0.700656
0.692399
0.813336
0.817979
0.804084
0.813404
0.516125
0.854981
0.799967
0.806267
0.81419
0.813757
0.804006
0.812764
0.800688
0.801369
0.808235
0.814922
0.757291
0.784867
0.823148
0.843083
0.834951
0.800488
0.805315
0.803384
0.812973
0.805847
0.799762
0.800007
0.801155
0.811079
0.797884
0.803004
0.83566
0.831651
0.73051
0.69379
0.80765
0.699784
0.799757
0.575076
0.804459
0.80705
0.803331
0.818395
0.834108
0.814195
0.813156
0.810318
0.803899
0.881603
0.816511
0.805075
0.772439
0.588323
0.810283
0.806883
0.769569
0.814677
0.814145
0.791559
0.80077
0.804075
0.628758
0.830588
0.803532
0.781814
0.779463
0.852827
0.810031
0.803134
0.802876
0.810466
0.811124
0.520507
0.801919
0.839649
0.814195
0.798653
0.58983
0.814702
0.814336
0.813252
0.833901
0.814186
0.804003
0.822103
0.805873
0.576587
0.808706
0.737072
0.798556
0.813909
0.722546
0.815181
0.846386
0.831709
0.665012
0.890968
0.785708
0.777733
0.796944
0.779589
0.808772
0.85038
0.808223
0.802941
0.813824
0.809127
0.78275
0.786044
0.814143
0.808584
0.834943
0.82147
0.835784
0.801537
0.799873
0.813339
0.856735
0.816658
0.818576
0.813626
0.607984
0.795605
0.824075
0.829482
0.866004
0.812904
0.819094
0.510559
0.810011
0.800798
0.812883
0.815019
0.847713
0.813339
0.811135
0.881575
0.764822
0.812636
0.813514
0.809283
0.805262
0.814488
0.656426
0.800561
0.849664
0.833606
0.810834
0.813788
0.813645
0.809608
0.70008
0.812728
0.800429
0.838726
0.818695
0.811882
0.831475
0.792982
0.811788
0.818037
0.809078
0.819508
0.744784
0.855146
0.819185
0.814051
0.813343
0.812994
0.815946
0.81738
0.813042
0.811029
0.841219
0.818816
0.800398
0.825372
0.827117
0.816308
0.814552
0.80059
0.801645
0.813335
0.819246
0.829504
0.81309
0.816683
0.80009
0.810208
0.813128
0.813085
0.802529
0.814918
0.813602
0.803313
0.813154
0.835813
0.800078
0.809684
0.821819
0.561088
0.814469
0.818388
0.815723
0.815239
0.822169
0.828987
0.81586
0.819057
0.701858
0.813347
0.801488
0.81586
0.819257
0.835164
0.821772
0.815696
0.829551
0.825134
0.810959
0.819236
0.819818
0.804465
0.813439
0.815847
0.819555
0.832284
0.812908
0.81594
0.802746
0.813227
0.813333
0.524716
0.628775
0.814401
0.821648
0.801926
0.822659
0.816146
0.841996
0.708514
0.814011
0.731002
0.817578
0.810569
0.813443
0.829503
0.813923
0.805153
0.813212
0.830225
0.839701
0.813073
0.719564
0.819325
0.816266
0.80013
0.803048
0.815556
0.856038
0.812933
0.813647
0.849821
0.829141
0.843382
0.575282
0.829284
0.814204
0.811144
0.817629
0.850946
0.81799
0.71875
0.799781
0.831838
0.800044
0.799955
0.805511
0.748131
0.813671
0.814596
0.725989
0.814605
0.827419
0.813587
0.814282
0.799474
0.818595
0.813276
0.823832
0.808742
0.808419
0.815199
0.706301
0.819293
0.814332
0.813263
0.64077
0.71808
0.600043
0.823356
0.53234
0.854254
0.727661
0.842931
0.812803
0.723652
0.821555
0.816111
0.742861
0.807762
0.818575
0.79444
0.816748
0.816102
0.816031
0.813276
0.808147
0.803693
0.737612
0.836476
0.82037
0.816836
0.79945
0.8155
0.802288
0.816244
0.813724
0.855022
0.817992
0.499311
0.813531
0.819007
0.818881
0.778183
0.815809
0.806763
0.818636
0.845741
0.597212
0.809367
0.799566
0.815563
0.817843
0.817911
0.812732
0.818818
0.814087
0.814816
0.8031
0.81451
0.846248
0.814181
0.792042
0.811752
0.623172
0.718522
0.813348
0.817222
0.803024
0.822502
0.735504
0.803165
0.803196
0.820416
0.667405
0.81782
0.799618
0.815657
0.865162
0.785603
0.82215
0.818199
0.823065
0.814278
0.769783
0.802474
0.81383
0.90235
0.827253
0.81666
0.832295
0.809883
0.86873
0.718982
0.700383
0.85267
0.802725
0.689133
0.850619
0.786159
0.832085