# vtk DataFile Version 1.0
unstructured grid
ascii
DATASET UNSTRUCTURED_GRID
points 7812 float
-1 0 0
-1 1 0
2 0 0
2 1 0
0 0 0
1 0 0
-1 1 0.1
-1 0 0.1
0 0 0.1
1 0 0.1
2 0 0.1
2 1 0.1
-0.99 0 0
-0.98 0 0
-0.97 0 0
-0.96 0 0
-0.95 0 0
-0.94 0 0
-0.93 0 0
-0.92 0 0
-0.91 0 0
-0.9 0 0
-0.89 0 0
-0.88 0 0
-0.87 0 0
-0.86 0 0
-0.85 0 0
-0.84 0 0
-0.83 0 0
-0.82 0 0
-0.81 0 0
-0.8 0 0
-0.79 0 0
-0.78 0 0
-0.77 0 0
-0.76 0 0
-0.75 0 0
-0.74 0 0
-0.73 0 0
-0.72 0 0
-0.71 0 0
-0.7 0 0
-0.69 0 0
-0.68 0 0
-0.67 0 0
-0.66 0 0
-0.65 0 0
-0.64 0 0
-0.63 0 0
-0.62 0 0
-0.61 0 0
-0.6 0 0
-0.59 0 0
-0.58 0 0
-0.57 0 0
-0.56 0 0
-0.55 0 0
-0.54 0 0
-0.53 0 0
-0.52 0 0
-0.51 0 0
-0.5 0 0
-0.49 0 0
-0.48 0 0
-0.47 0 0
-0.46 0 0
-0.45 0 0
-0.44 0 0
-0.43 0 0
-0.42 0 0
-0.41 0 0
-0.4 0 0
-0.39 0 0
-0.38 0 0
-0.37 0 0
-0.36 0 0
-0.35 0 0
-0.34 0 0
-0.33 0 0
-0.32 0 0
-0.31 0 0
-0.3 0 0
-0.29 0 0
-0.28 0 0
-0.27 0 0
-0.26 0 0
-0.25 0 0
-0.24 0 0
-0.23 0 0
-0.22 0 0
-0.21 0 0
-0.2 0 0
-0.19 0 0
-0.18 0 0
-0.17 0 0
-0.16 0 0
-0.15 0 0
-0.14 0 0
-0.13 0 0
-0.12 0 0
-0.11 0 0
-0.1 0 0
-0.09 0 0
-0.08 0 0
-0.07 0 0
-0.06 0 0
-0.05 0 0
-0.04 0 0
-0.03 0 0
-0.02 0 0
-0.01 0 0
1.01 0 0
1.02 0 0
1.03 0 0
1.04 0 0
1.05 0 0
1.06 0 0
1.07 0 0
1.08 0 0
1.09 0 0
1.1 0 0
1.11 0 0
1.12 0 0
1.13 0 0
1.14 0 0
1.15 0 0
1.16 0 0
1.17 0 0
1.18 0 0
1.19 0 0
1.2 0 0
1.21 0 0
1.22 0 0
1.23 0 0
1.24 0 0
1.25 0 0
1.26 0 0
1.27 0 0
1.28 0 0
1.29 0 0
1.3 0 0
1.31 0 0
1.32 0 0
1.33 0 0
1.34 0 0
1.35 0 0
1.36 0 0
1.37 0 0
1.38 0 0
1.39 0 0
1.4 0 0
1.41 0 0
1.42 0 0
1.43 0 0
1.44 0 0
1.45 0 0
1.46 0 0
1.47 0 0
1.48 0 0
1.49 0 0
1.5 0 0
1.51 0 0
1.52 0 0
1.53 0 0
1.54 0 0
1.55 0 0
1.56 0 0
1.57 0 0
1.58 0 0
1.59 0 0
1.6 0 0
1.61 0 0
1.62 0 0
1.63 0 0
1.64 0 0
1.65 0 0
1.66 0 0
1.67 0 0
1.68 0 0
1.69 0 0
1.7 0 0
1.71 0 0
1.72 0 0
1.73 0 0
1.74 0 0
1.75 0 0
1.76 0 0
1.77 0 0
1.78 0 0
1.79 0 0
1.8 0 0
1.81 0 0
1.82 0 0
1.83 0 0
1.84 0 0
1.85 0 0
1.86 0 0
1.87 0 0
1.88 0 0
1.89 0 0
1.9 0 0
1.91 0 0
1.92 0 0
1.93 0 0
1.94 0 0
1.95 0 0
1.96 0 0
1.97 0 0
1.98 0 0
1.99 0 0
2 0.010289 0
2 0.0215307 0
2 0.0338135 0
2 0.0472336 0
2 0.0618965 0
2 0.0779171 0
2 0.0954213 0
2 0.114546 0
2 0.135442 0
2 0.158274 0
2 0.183219 0
2 0.210474 0
2 0.240253 0
2 0.27279 0
2 0.308339 0
2 0.347181 0
2 0.389619 0
2 0.435987 0
2 0.486649 0
2 0.542002 0
2 0.602481 0
2 0.66856 0
2 0.740758 0
2 0.819642 0
2 0.90583 0
1.9 1 0
1.8 1 0
1.7 1 0
1.6 1 0
1.5 1 0
1.4 1 0
1.3 1 0
1.2 1 0
1.1 1 0
1 1 0
0.9 1 0
0.8 1 0
0.7 1 0
0.6 1 0
0.5 1 0
0.4 1 0
0.3 1 0
0.2 1 0
0.1 1 0
3.69793e-12 1 0
-0.1 1 0
-0.2 1 0
-0.3 1 0
-0.4 1 0
-0.5 1 0
-0.6 1 0
-0.7 1 0
-0.8 1 0
-0.9 1 0
-1 0.90583 0
-1 0.819642 0
-1 0.740758 0
-1 0.66856 0
-1 0.602481 0
-1 0.542002 0
-1 0.486649 0
-1 0.435987 0
-1 0.389619 0
-1 0.347181 0
-1 0.308339 0
-1 0.27279 0
-1 0.240253 0
-1 0.210474 0
-1 0.183219 0
-1 0.158274 0
-1 0.135442 0
-1 0.114546 0
-1 0.0954213 0
-1 0.0779171 0
-1 0.0618965 0
-1 0.0472336 0
-1 0.0338135 0
-1 0.0215307 0
-1 0.010289 0
0.00921362 0.00379763 0
0.0184561 0.00752451 0
0.0277268 0.0111804 0
0.0370253 0.0147652 0
0.0463511 0.0182786 0
0.0557034 0.0217203 0
0.0650819 0.0250903 0
0.074486 0.0283883 0
0.083915 0.0316141 0
0.0933685 0.0347675 0
0.102846 0.0378484 0
0.112347 0.0408565 0
0.12187 0.0437917 0
0.131416 0.0466538 0
0.140983 0.0494427 0
0.150572 0.0521581 0
0.160181 0.0547999 0
0.16981 0.0573681 0
0.179458 0.0598623 0
0.189125 0.0622825 0
0.198811 0.0646285 0
0.208514 0.0669001 0
0.218234 0.0690974 0
0.227971 0.07122 0
0.237724 0.073268 0
0.247493 0.0752411 0
0.257276 0.0771393 0
0.267073 0.0789625 0
0.276884 0.0807105 0
0.286708 0.0823832 0
0.296545 0.0839806 0
0.306394 0.0855025 0
0.316254 0.0869488 0
0.326125 0.0883196 0
0.336006 0.0896146 0
0.345896 0.0908339 0
0.355796 0.0919773 0
0.365704 0.0930447 0
0.375621 0.0940362 0
0.385544 0.0949517 0
0.395474 0.095791 0
0.40541 0.0965542 0
0.415352 0.0972412 0
0.425299 0.097852 0
0.43525 0.0983865 0
0.445205 0.0988447 0
0.455164 0.0992266 0
0.465125 0.0995321 0
0.475088 0.0997613 0
0.485052 0.0999141 0
0.495017 0.0999904 0
0.504983 0.0999904 0
0.514948 0.0999141 0
0.524912 0.0997613 0
0.534875 0.0995321 0
0.544836 0.0992266 0
0.554795 0.0988447 0
0.56475 0.0983865 0
0.574701 0.097852 0
0.584648 0.0972412 0
0.59459 0.0965542 0
0.604526 0.095791 0
0.614456 0.0949517 0
0.624379 0.0940362 0
0.634296 0.0930447 0
0.644204 0.0919773 0
0.654104 0.0908339 0
0.663994 0.0896146 0
0.673875 0.0883196 0
0.683746 0.0869488 0
0.693606 0.0855025 0
0.703455 0.0839806 0
0.713292 0.0823832 0
0.723116 0.0807105 0
0.732927 0.0789625 0
0.742724 0.0771393 0
0.752508 0.0752411 0
0.762276 0.073268 0
0.772029 0.07122 0
0.781766 0.0690974 0
0.791486 0.0669001 0
0.801189 0.0646285 0
0.810875 0.0622825 0
0.820542 0.0598623 0
0.83019 0.0573681 0
0.839819 0.0547999 0
0.849428 0.0521581 0
0.859017 0.0494427 0
0.868584 0.0466538 0
0.87813 0.0437917 0
0.887653 0.0408565 0
0.897154 0.0378484 0
0.906631 0.0347675 0
0.916085 0.0316141 0
0.925514 0.0283883 0
0.934918 0.0250903 0
0.944297 0.0217203 0
0.953649 0.0182786 0
0.962975 0.0147652 0
0.972273 0.0111804 0
0.981544 0.00752451 0
0.990786 0.00379763 0
-1 0.90583 0.1
-1 0.819642 0.1
-1 0.740758 0.1
-1 0.66856 0.1
-1 0.602481 0.1
-1 0.542002 0.1
-1 0.486649 0.1
-1 0.435987 0.1
-1 0.389619 0.1
-1 0.347181 0.1
-1 0.308339 0.1
-1 0.27279 0.1
-1 0.240253 0.1
-1 0.210474 0.1
-1 0.183219 0.1
-1 0.158274 0.1
-1 0.135442 0.1
-1 0.114546 0.1
-1 0.0954213 0.1
-1 0.0779171 0.1
-1 0.0618965 0.1
-1 0.0472336 0.1
-1 0.0338135 0.1
-1 0.0215307 0.1
-1 0.010289 0.1
-0.99 0 0.1
-0.98 0 0.1
-0.97 0 0.1
-0.96 0 0.1
-0.95 0 0.1
-0.94 0 0.1
-0.93 0 0.1
-0.92 0 0.1
-0.91 0 0.1
-0.9 0 0.1
-0.89 0 0.1
-0.88 0 0.1
-0.87 0 0.1
-0.86 0 0.1
-0.85 0 0.1
-0.84 0 0.1
-0.83 0 0.1
-0.82 0 0.1
-0.81 0 0.1
-0.8 0 0.1
-0.79 0 0.1
-0.78 0 0.1
-0.77 0 0.1
-0.76 0 0.1
-0.75 0 0.1
-0.74 0 0.1
-0.73 0 0.1
-0.72 0 0.1
-0.71 0 0.1
-0.7 0 0.1
-0.69 0 0.1
-0.68 0 0.1
-0.67 0 0.1
-0.66 0 0.1
-0.65 0 0.1
-0.64 0 0.1
-0.63 0 0.1
-0.62 0 0.1
-0.61 0 0.1
-0.6 0 0.1
-0.59 0 0.1
-0.58 0 0.1
-0.57 0 0.1
-0.56 0 0.1
-0.55 0 0.1
-0.54 0 0.1
-0.53 0 0.1
-0.52 0 0.1
-0.51 0 0.1
-0.5 0 0.1
-0.49 0 0.1
-0.48 0 0.1
-0.47 0 0.1
-0.46 0 0.1
-0.45 0 0.1
-0.44 0 0.1
-0.43 0 0.1
-0.42 0 0.1
-0.41 0 0.1
-0.4 0 0.1
-0.39 0 0.1
-0.38 0 0.1
-0.37 0 0.1
-0.36 0 0.1
-0.35 0 0.1
-0.34 0 0.1
-0.33 0 0.1
-0.32 0 0.1
-0.31 0 0.1
-0.3 0 0.1
-0.29 0 0.1
-0.28 0 0.1
-0.27 0 0.1
-0.26 0 0.1
-0.25 0 0.1
-0.24 0 0.1
-0.23 0 0.1
-0.22 0 0.1
-0.21 0 0.1
-0.2 0 0.1
-0.19 0 0.1
-0.18 0 0.1
-0.17 0 0.1
-0.16 0 0.1
-0.15 0 0.1
-0.14 0 0.1
-0.13 0 0.1
-0.12 0 0.1
-0.11 0 0.1
-0.1 0 0.1
-0.09 0 0.1
-0.08 0 0.1
-0.07 0 0.1
-0.06 0 0.1
-0.05 0 0.1
-0.04 0 0.1
-0.03 0 0.1
-0.02 0 0.1
-0.01 0 0.1
0.00921362 0.00379763 0.1
0.0184561 0.00752451 0.1
0.0277268 0.0111804 0.1
0.0370253 0.0147652 0.1
0.0463511 0.0182786 0.1
0.0557034 0.0217203 0.1
0.0650819 0.0250903 0.1
0.074486 0.0283883 0.1
0.083915 0.0316141 0.1
0.0933685 0.0347675 0.1
0.102846 0.0378484 0.1
0.112347 0.0408565 0.1
0.12187 0.0437917 0.1
0.131416 0.0466538 0.1
0.140983 0.0494427 0.1
0.150572 0.0521581 0.1
0.160181 0.0547999 0.1
0.16981 0.0573681 0.1
0.179458 0.0598623 0.1
0.189125 0.0622825 0.1
0.198811 0.0646285 0.1
0.208514 0.0669001 0.1
0.218234 0.0690974 0.1
0.227971 0.07122 0.1
0.237724 0.073268 0.1
0.247493 0.0752411 0.1
0.257276 0.0771393 0.1
0.267073 0.0789625 0.1
0.276884 0.0807105 0.1
0.286708 0.0823832 0.1
0.296545 0.0839806 0.1
0.306394 0.0855025 0.1
0.316254 0.0869488 0.1
0.326125 0.0883196 0.1
0.336006 0.0896146 0.1
0.345896 0.0908339 0.1
0.355796 0.0919773 0.1
0.365704 0.0930447 0.1
0.375621 0.0940362 0.1
0.385544 0.0949517 0.1
0.395474 0.095791 0.1
0.40541 0.0965542 0.1
0.415352 0.0972412 0.1
0.425299 0.097852 0.1
0.43525 0.0983865 0.1
0.445205 0.0988447 0.1
0.455164 0.0992266 0.1
0.465125 0.0995321 0.1
0.475088 0.0997613 0.1
0.485052 0.0999141 0.1
0.495017 0.0999904 0.1
0.504983 0.0999904 0.1
0.514948 0.0999141 0.1
0.524912 0.0997613 0.1
0.534875 0.0995321 0.1
0.544836 0.0992266 0.1
0.554795 0.0988447 0.1
0.56475 0.0983865 0.1
0.574701 0.097852 0.1
0.584648 0.0972412 0.1
0.59459 0.0965542 0.1
0.604526 0.095791 0.1
0.614456 0.0949517 0.1
0.624379 0.0940362 0.1
0.634296 0.0930447 0.1
0.644204 0.0919773 0.1
0.654104 0.0908339 0.1
0.663994 0.0896146 0.1
0.673875 0.0883196 0.1
0.683746 0.0869488 0.1
0.693606 0.0855025 0.1
0.703455 0.0839806 0.1
0.713292 0.0823832 0.1
0.723116 0.0807105 0.1
0.732927 0.0789625 0.1
0.742724 0.0771393 0.1
0.752508 0.0752411 0.1
0.762276 0.073268 0.1
0.772029 0.07122 0.1
0.781766 0.0690974 0.1
0.791486 0.0669001 0.1
0.801189 0.0646285 0.1
0.810875 0.0622825 0.1
0.820542 0.0598623 0.1
0.83019 0.0573681 0.1
0.839819 0.0547999 0.1
0.849428 0.0521581 0.1
0.859017 0.0494427 0.1
0.868584 0.0466538 0.1
0.87813 0.0437917 0.1
0.887653 0.0408565 0.1
0.897154 0.0378484 0.1
0.906631 0.0347675 0.1
0.916085 0.0316141 0.1
0.925514 0.0283883 0.1
0.934918 0.0250903 0.1
0.944297 0.0217203 0.1
0.953649 0.0182786 0.1
0.962975 0.0147652 0.1
0.972273 0.0111804 0.1
0.981544 0.00752451 0.1
0.990786 0.00379763 0.1
1.01 0 0.1
1.02 0 0.1
1.03 0 0.1
1.04 0 0.1
1.05 0 0.1
1.06 0 0.1
1.07 0 0.1
1.08 0 0.1
1.09 0 0.1
1.1 0 0.1
1.11 0 0.1
1.12 0 0.1
1.13 0 0.1
1.14 0 0.1
1.15 0 0.1
1.16 0 0.1
1.17 0 0.1
1.18 0 0.1
1.19 0 0.1
1.2 0 0.1
1.21 0 0.1
1.22 0 0.1
1.23 0 0.1
1.24 0 0.1
1.25 0 0.1
1.26 0 0.1
1.27 0 0.1
1.28 0 0.1
1.29 0 0.1
1.3 0 0.1
1.31 0 0.1
1.32 0 0.1
1.33 0 0.1
1.34 0 0.1
1.35 0 0.1
1.36 0 0.1
1.37 0 0.1
1.38 0 0.1
1.39 0 0.1
1.4 0 0.1
1.41 0 0.1
1.42 0 0.1
1.43 0 0.1
1.44 0 0.1
1.45 0 0.1
1.46 0 0.1
1.47 0 0.1
1.48 0 0.1
1.49 0 0.1
1.5 0 0.1
1.51 0 0.1
1.52 0 0.1
1.53 0 0.1
1.54 0 0.1
1.55 0 0.1
1.56 0 0.1
1.57 0 0.1
1.58 0 0.1
1.59 0 0.1
1.6 0 0.1
1.61 0 0.1
1.62 0 0.1
1.63 0 0.1
1.64 0 0.1
1.65 0 0.1
1.66 0 0.1
1.67 0 0.1
1.68 0 0.1
1.69 0 0.1
1.7 0 0.1
1.71 0 0.1
1.72 0 0.1
1.73 0 0.1
1.74 0 0.1
1.75 0 0.1
1.76 0 0.1
1.77 0 0.1
1.78 0 0.1
1.79 0 0.1
1.8 0 0.1
1.81 0 0.1
1.82 0 0.1
1.83 0 0.1
1.84 0 0.1
1.85 0 0.1
1.86 0 0.1
1.87 0 0.1
1.88 0 0.1
[...]
CELL_DATA 7425
SCALARS rho float
LOOKUP_TABLE default
0.587104
0.805029
0.819512
0.827485
0.799389
0.819111
0.82088
0.81408
0.812924
0.738599
0.863472
0.81002
0.813842
0.827342
0.803682
0.817105
0.798724
0.813208
0.803463
0.767229
0.831241
0.822034
0.724749
0.828014
0.803869
0.702948
0.831174
0.848221
0.800157
0.807918
0.819337
0.725514
0.80361
0.652041
0.519149
0.82798
0.803501
0.814057
0.811129
0.827976
0.715919
0.703096
0.789949
0.702269
0.586397
0.748186
0.799271
0.813775
0.661297
0.719292
0.746307
0.805146
0.812344
0.799046
0.709858
0.624845
0.822874
0.80007
0.738469
0.70087
0.709379
0.80765
0.813178
0.799353
0.798766
0.817563
0.584298
0.77325
0.704788
0.807835
0.804151
0.8032
0.883389
0.821107
0.81083
0.812984
0.805042
0.800432
0.813184
0.757741
0.81593
0.80723
0.810233
0.788648
0.83588
0.801064
0.574383
0.829926
0.542414
0.848455
0.706878
0.729706
0.845185
0.803172
0.817353
0.758162
0.836016
0.788002
0.82559
0.802443
0.808049
0.738657
0.803281
0.828207
0.597175
0.811057
0.824337
0.707402
0.814945
0.799135
0.816663
0.784518
0.78977
0.812421
0.789681
0.786298
0.831223
0.803102
0.700176
0.629885
0.805041
0.777234
0.812888
0.790388
0.858915
0.838798
0.807686
0.804241
0.661149
0.503959
0.814424
0.654996
0.51503
0.867629
0.661622
0.799483
0.81109
0.723506
0.581941
0.724738
0.723196
0.809577
0.809586
0.707358
0.803121
0.779587
0.56541
0.788468
0.782536
0.827732
0.816732
0.70419
0.802873
0.744298
0.705261
0.80327
0.810421
0.830376
0.797528
0.65197
0.802498
0.703546
0.801069
0.829709
0.820416
0.802369
0.813007
0.784782
0.806267
0.800617
0.819666
0.804443
0.791136
0.799098
0.799855
0.740053
0.803663
0.758667
0.593981
0.706732
0.799648
0.792669
0.879781
0.831813
0.614136
0.822887
0.798604
0.827285
0.799842
0.81335
0.81255
0.803188
0.806933
0.70464
0.81496
0.819214
0.770071
0.797105
0.861062
0.807756
0.811806
0.81111
0.612822
0.838849
0.57296
0.53168
0.595432
0.600384
0.828111
0.879315
0.807518
0.798644
0.841357
0.812911
0.816636
0.820725
0.815153
0.637977
0.548932
0.813672
0.545454
0.59244
0.70349
0.811649
0.814013
0.812984
0.833103
0.812852
0.864139
0.710037
0.835192
0.712536
0.805159
0.803916
0.80195
0.713866
0.720366
0.619475
0.70564
0.863597
0.875317
0.806191
0.807687
0.798824
0.811501
0.715741
0.821566
0.800156
0.825656
0.794609
0.809795
0.721425
0.812753
0.823697
0.739707
0.52843
0.799832
0.736432
0.843269
0.814293
0.726622
0.815529
0.81479
0.849927
0.809459
0.803831
0.803249
0.825615
0.860737
0.805401
0.619234
0.848861
0.811949
0.805595
0.827505
0.837309
0.812935
0.821392
0.793486
0.815022
0.866541
0.849922
0.827297
0.836706
0.802659
0.817114
0.803188
0.759689
0.701176
0.580836
0.700996
0.802303
0.812834
0.815938
0.854646
0.779634
0.645717
0.827043
0.520723
0.774249
0.800944
0.646377
0.495145
0.639074
0.815147
0.81318
0.81291
0.812671
0.826678
0.77441
0.811468
0.80266
0.812848
0.84068
0.867037
0.833524
0.802721
0.706279
0.795859
0.834258
0.691543
0.798713
0.802039
0.864763
0.817054
0.593006
0.813339
0.740429
0.852239
0.731941
0.810055
0.907646
0.799834
0.795604
0.658923
0.63554
0.711785
0.780542
0.826503
0.814884
0.813639
0.882343
0.858106
0.799503
0.799132
0.826015
0.739162
0.802512
0.879369
0.801376
0.804662
0.800666
0.802563
0.812913
0.815672
0.816325
0.63614
0.829947
0.645449
0.808435
0.639255
0.802581
0.802229
0.840232
0.728618
0.816335
0.808525
0.816934
0.799472
0.802491
0.811231
0.696653
0.824455
0.813003
0.812875
0.800675
0.736804
0.5599
0.806406
0.810967
0.803185
0.812837
0.794697
0.502979
0.845975
0.813261
0.803843
0.785692
0.813207
0.804646
0.803004
0.81619
0.807503
0.822468
0.768573
0.812625
0.807762
0.562625
0.803084
0.640085
0.838733
0.6362
0.814649
0.877882
0.593103
0.818057
0.748913
0.804406
0.873325
0.533632
0.823081
0.822218
0.803491
0.825699
0.811037
0.823418
0.830601
0.824797
0.739639
0.827483
0.76166
0.810184
0.794226
0.793594
0.758553
0.805591
0.802084
0.814423
0.752172
0.804681
0.604393
0.614184
0.688943
0.812758
0.844169
0.864816
0.829845
0.798548
0.812586
0.804863
0.818481
0.680472
0.800959
0.742907
0.824026
0.814751
0.805355
0.711875
0.72719
0.533612
0.605576
0.801262
0.611351
0.792547
0.765348
0.770013
0.727112
0.762422
0.767491
0.809385
0.814882
0.819508
0.811412
0.71042
0.602113
0.839001
0.806888
0.783126
0.809795
0.802547
0.836526
0.718076
0.85526
0.763671
0.728258
0.764472
0.811463
0.544945
0.798796
0.841586
0.813266
0.813733
0.809666
0.799133
0.780256
0.835674
0.803104
0.842944
0.721058
0.70751
0.800317
0.79512
0.82198
0.70867
0.847934
0.80039
0.816006
0.798699
0.779154
0.808226
0.594582
0.6774
0.632387
0.812883
0.803787
0.826318
0.749221
0.810588
0.814749
0.820352
0.798945
0.729268
0.796839
0.814257
0.803195
0.703098
0.81354
0.818868
0.839996
0.810726
0.825299
0.862275
0.857253
0.743885
0.603379
0.838008
0.805779
0.84336
0.814177
0.822884
0.813471
0.813752
0.633598
0.805151
0.809269
0.812768
0.791874
0.810563
0.804734
0.860467
0.798632
0.812682
0.814666
0.871903
0.5976
0.813408
0.842383
0.883305
0.530416
0.816359
0.829918
0.796132
0.814739
0.794923
0.867579
0.812169
0.831316
0.812676
0.619323
0.802389
0.804142
0.690777
0.853121
0.759768
0.801798
0.813928
0.812662
0.859653
0.795342
0.833586
0.83469
0.784257
0.825154
0.842315
0.799712
0.810459
0.806926
0.80531
0.814805
0.802629
0.845199
0.769232
0.809773
0.803155
0.815186
0.723102
0.812842
0.818312
0.752574
0.813535
0.81632
0.827533
0.825082
0.800694
0.80064
0.850481
0.767936
0.825098
0.844181
0.804552
0.505588
0.812848
0.828246
0.852369
0.812602
0.803147
0.808519
0.855028
0.780074
0.802581
0.801213
0.812884
0.727073
0.802703
0.82998
0.807982
0.794963
0.793479
0.843173
0.806602
0.845299
0.802018
0.824214
0.812717
0.804213
0.841833
0.812817
0.679397
0.818739
0.807094
0.812789
0.906137
0.800791
0.81586
0.800469
0.800382
0.816162
0.800488
0.803356
0.783727
0.747335
0.806465
0.812846
0.757993
0.791371
0.822988
0.813011
0.822222
0.8063
0.825739
0.875291
0.830618
0.574738
0.70878
0.840728
0.817249
0.844134
0.81472
0.850082
0.807308
0.812376
0.799327
0.838384
0.860913
0.85277
0.731493
0.814043
0.822144
0.74398
0.817071
0.775919
0.800209
0.733043
0.816024
0.830835
0.823456
0.861795
0.814171
0.813252
0.810144
0.814601
0.835769
0.812194
0.79864
0.810226
0.737519
0.811301
0.77418
0.832814
0.812735
0.638774
0.777623
0.811117
0.799159
0.81979
0.802452
0.814634
0.817261
0.804441
0.819362
0.80416
0.805821
0.597197
0.84702
0.825099
0.826672
0.814891
0.803218
0.701817
0.806454
0.907828
0.813547
0.801007
0.812841
0.782267
0.807227
0.813244
0.821252
0.814631
0.813181
0.8162
0.702014
0.777822
0.764556
0.812615
0.805301
0.801003
0.621302
0.805686
0.802611
0.708167
0.837166
0.817161
0.80218
0.807429
0.799385
0.817213
0.813909
0.813243
0.812829
0.709658
0.83167
0.800274
0.807382
0.842777
0.817591
0.816256
0.800159
0.753649
0.823805
0.787388
0.821401
0.789403
0.805608
0.820919
0.737513
0.817371
0.650466
0.872013
0.704306
0.844984
0.800773
0.875146
0.793683
0.801666
0.820637
0.836197
0.838392
0.825442
0.819793
0.814673
0.801102
0.804176
0.808232
0.725685
0.82722
0.800079
0.719686
0.83051
0.706323
0.799979
0.860352
0.805576
0.701361
0.797836
0.814045
0.705048
0.785655
0.81935
0.831835
0.806927
0.573197
0.72858
0.812378
0.801302
0.812878
0.800651
0.737197
0.813974
0.815679
0.812445
0.77534
0.803262
0.804488
0.803547
0.560396
0.812666
0.834087
0.579742
0.815126
0.816065
0.814657
0.818325
0.814381
0.824508
0.799057
0.795115
0.771032
0.822879
0.829648
0.825088
0.834846
0.765327
0.808963
0.724357
0.772363
0.808777
0.82104
0.813242
0.800968
0.858245
0.812883
0.800306
0.809555
0.816059
0.81515
0.836605
0.814454
0.812763
0.811974
0.813777
0.800117
0.820962
0.803762
0.822797
0.813425
0.575472
0.813472
0.834437
0.858028
0.838164
0.490657
0.816772
0.804503
0.496483
0.669317
0.643114
0.834274
0.807953
0.811644
0.812757
0.803203
0.816712
0.810942
0.534503
0.686427
0.818222
0.80662
0.815577
0.803504
0.810229
0.810866
0.820206
0.7995
0.692209
0.855878
0.803149
0.814709
0.813583
0.757755
0.485594
0.832867
0.813525
0.741997
0.8027
0.806178
0.59084
0.827502
0.814745
0.827691
0.818746
0.825951
0.804726
0.719356
0.643523
0.562015
0.825286
0.808489
0.782975
0.812927
0.779769
0.817854
0.873302
0.762345
0.821577
0.813487
0.825808
0.883552
0.814403
0.811794
0.803258
0.813858
0.691679
0.828179
0.799862
0.810136
0.802201
0.784238
0.854142
0.822009
0.840465
0.821491
0.757596
0.755882
0.803285
0.818068
0.803062
0.805239
0.80258
0.775623
0.814646
0.761549
0.821118
0.662028
0.813933
0.802954
0.735745
0.823234
0.817946
0.739965
0.801158
0.757189
0.880595
0.800718
0.812794
0.762656
0.800061
0.814232
0.803945
0.589813
0.820916
0.798637
0.801317
0.814486
0.825583
0.757101
0.805497
0.841587
0.826905
0.814081
0.835812
0.700974
0.700115
0.812879
0.744135
0.822185
0.771347
0.812786
0.802513
0.810375
0.751932
0.794188
0.764301
0.809853
0.803141
0.631157
0.778996
0.799231
0.848966
0.814328
0.828621
0.526379
0.825324
0.785118
0.858718
0.800936
0.817963
0.800258
0.78576
0.798722
0.825683
0.835745
0.82174
0.817083
0.707022
0.773806
0.815327
0.805375
0.809933
0.803903
0.706954
0.792806
0.80345
0.810624
0.827145
0.851194
0.831823
0.813422
0.799405
0.804208
0.802008
0.779617
0.611562
0.800296
0.731247
0.661865
0.822774
0.798821
0.777271
0.799953
0.754136
0.785283
0.811409
0.822155
0.803316
0.815971
0.817324
0.820639
0.813346
0.80845
0.71212
0.699359
0.640863
0.829249
0.869552
0.815342
0.841326
0.847817
0.863723
0.735619
0.816554
0.862996
0.810162
0.812823
0.816165
0.732749
0.812386
0.806624
0.806163
0.517148
0.812919
0.76115
0.813113
0.813775
0.803538
0.705616
0.813153
0.610561
0.825004
0.802256
0.822218
0.855144
0.803426
0.795361
0.820898
0.811536
0.80569
0.762225
0.509698
0.820862
0.803078
0.82889
0.82573
0.802067
0.807017
0.834442
0.720782
0.500263
0.886251
0.800556
0.815649
0.804316
0.710526
0.798604
0.799977
0.815022
0.736014
0.64646
0.883238
0.714115
0.836522
0.811941
0.83286
0.842638
0.792144
0.804739
0.813552
0.852763
0.738286
0.87069
0.813973
0.562736
0.802427
0.748935
0.852892
0.760257
0.804211
0.803948
0.799604
0.801578
0.808835
0.812858
0.855508
0.805955
0.802864
0.801306
0.799978
0.812191
0.816834
0.802614
0.812435
0.849184
0.803096
0.783424
0.802232
0.83955
0.724942
0.813584
0.813783
0.636913
0.713062
0.805536
0.82299
0.803521
0.511589
0.856275
0.81317
0.832957
0.805299
0.803309
0.801328
0.786212
0.587119
0.804285
0.81606
0.835968
0.820528
0.812901
0.798128
0.746894
0.801559
0.765739
0.78752
0.799303
0.79095
0.751076
0.800813
0.811422
0.810325
0.832176
0.849023
0.553157
0.841877
0.812793
0.820837
0.801975
0.822647
0.811026
0.894604
0.80021
0.867045
0.805678
0.759731
0.862107
0.802272
0.800237
0.824127
0.660352
0.645237
0.80339
0.803849
0.70519
0.654256
0.799894
0.823817
0.812981
0.822552
0.732901
0.817157
0.812793
0.826098
0.816913
0.811933
0.812814
0.754552
0.803863
0.815637
0.81128
0.676179
0.566362
0.812851
0.649955
0.721892
0.555025
0.841371
0.800092
0.52681
0.600705
0.827491
0.90806
0.818107
0.652265
0.814115
0.786405
0.80169
0.786357
0.820612
0.810067
0.788267
0.821019
0.800972
0.587589
0.817785
0.76664
0.815889
0.70101
0.822185
0.789609
0.813905
0.800016
0.662824
0.843492
0.806524
0.806579
0.493402
0.816792
0.800354
0.852112
0.711381
0.817046
0.583741
0.718819
0.801376
0.796636
0.732667
0.715487
0.716043
0.506821
0.589204
0.799954
0.517359
0.822563
0.519998
0.75716
0.671171
0.598992
0.54045
0.7454
0.803079
0.715264
0.821259
0.800917
0.802916
0.761163
0.889668
0.799013
0.824447
0.803423
0.812739
0.705921
0.807535
0.736662
0.821873
0.886027
0.833545
0.747678
0.822753
0.77046
0.879889
0.80419
0.758634
0.850662
0.77683
0.799921
0.805254
0.758202
0.744553
0.665115
0.804978
0.80302
0.81787
0.833461
0.61143
0.807875
0.537978
0.668544
0.616149
0.818475
0.821005
0.808953
0.80397
0.615623
0.872445
0.802674
0.802943
0.863498
0.812374
0.771996
0.812111
0.802362
0.817862
0.803143
0.717003
0.803341
0.655194
0.798975
0.804061
0.801536
0.639115
0.811497
0.810278
0.725623
0.817762
0.549024
0.57662
0.804139
0.696438
0.725908
0.572022
0.723555
0.813576
0.707668
0.772951
0.716735
0.812777
0.670151
0.762076
0.806431
0.810564
0.654427
0.801939
0.895146
0.796686
0.816755
0.585025
0.69376
0.800899
0.812894
0.813964
0.851638
0.812597
0.804244
0.80372
0.803333
0.713749
0.717584
0.615557
0.771435
0.532591
0.723964
0.809875
0.814365
0.806094
0.799232
0.535547
0.809021
0.803751
0.553868
0.543183
0.746562
0.803567
0.806142
0.549237
0.798194
0.569503
0.720393
0.607706
0.813509
0.802229
0.596968
0.608224
0.867878
0.810017
0.765378
0.717796
0.621546
0.655276
0.709872
0.815971
0.759745
0.765502
0.62395
0.753833
0.809266
0.815322
0.812403
0.815429
0.865544
0.754648
0.818892
0.803324
0.851259
0.812806
0.802769
0.813029
0.722618
0.812908
0.81195
0.815143
0.81111
0.815851
0.803267
0.817885
0.810344
0.809695
0.817225
0.800107
0.816553
0.818911
0.667421
0.818567
0.868397
0.818127
0.792914
0.645857
0.858559
0.818747
0.82485
0.79951
0.811159
0.757504
0.852522
0.559027
0.726564
0.809851
0.815622
0.803867
0.803356
0.832015
0.804987
0.805179
0.815218
0.780686
0.838523
0.841919
0.815172
0.664264
0.612079
0.815721
0.816578
0.788266
0.849603
0.847234
0.810807
0.813586
0.777724
0.814042
0.817791
0.814066
0.818734
0.813054
0.815779
0.851018
0.815924
0.814459
0.817511
0.817725
0.784874
0.814075
0.804016
0.804089
0.804583
0.818526
0.811431
0.788315
0.753978
0.81262
0.806269
0.808732
0.806368
0.85775
0.803317
0.813949
0.812641
0.805161
0.561055
0.80388
0.812685
0.814974
0.810302
0.812727
0.813247
0.812969
0.810166
0.864374
0.501365
0.812757
0.841632
0.812594
0.802953
0.808397
0.814951
0.839647
0.800413
0.801175
0.81258
0.706223
0.812775
0.808185
0.807313
0.812499
0.812827
0.81297
0.813304
0.511634
0.811852
0.71568
0.885829
0.821016
0.733439
0.671076
0.815314
0.803472
0.818682
0.646435
0.801642
0.813276
0.647923
0.799818
0.804084
0.815388
0.806243
0.856715
0.809839
0.606857
0.800803
0.775172
0.811202
0.889059
0.803251
0.815501
0.819286
0.832177
0.813342
0.822357
0.836309
0.634907
0.802592
0.655722
0.813691
0.813591
0.712579
0.813476
0.804777
0.713159
0.81488
0.701153
0.86105
0.784057
0.814243
0.812831
0.813371
0.667813
0.813598
0.633238
0.80017
0.792351
0.822252
0.815129
0.715951
0.766691
0.830011
0.812696
0.821268
0.821859
0.81338
0.82529
0.799467
0.551996
0.754905
0.759163
0.731456
0.837572
0.822306
0.83431
0.775986
0.802755
0.812966
0.812888
0.812892
0.77461
0.563724
0.803198
0.528357
0.808164
0.824228
0.799668
0.803752
0.812913
0.806002
0.782582
0.732159
0.813328
0.859121
0.813659
0.799258
0.736932
0.809561
0.788702
0.833689
0.50367
0.795965
0.805856
0.79884
0.688915
0.81278
0.81071
0.857005
0.568988
0.807322
0.803264
0.812764
0.612382
0.813026
0.803328
0.803396
0.803021
0.813138
0.813236
0.816053
0.812976
0.717926
0.804492
0.803195
0.812924
0.89615
0.813083
0.773948
0.841107
0.799172
0.803129
0.601264
0.812818
0.803352
0.82561
0.801954
0.8662
0.814783
0.853355
0.800305
0.820584
0.777854
0.558194
0.752651
0.794201
0.803887
0.813923
0.813744
0.555406
0.86176
0.857852
0.768424
0.75765
0.738504
0.812017
0.848361
0.812856
0.813674
0.812891
0.804265
0.726764
0.803493
0.799073
0.764216
0.824212
0.822945
0.861818
0.815592
0.812902
0.524113
0.808876
0.812862
0.800679
0.773934
0.818053
0.803106
0.812816
0.826835
0.798435
0.803558
0.801196
0.815124
0.839076
0.802336
0.799132
0.801455
0.766092
0.819809
0.566983
0.868354
0.803679
0.545639
0.803129
0.803091
0.819521
0.591462
0.606077
0.801524
0.803598
0.800816
0.860705
0.779897
0.814575
0.802929
0.865661
0.804704
0.804442
0.826276
0.815891
0.820049
0.821218
0.820266
0.867454
0.729221
0.852117
0.817136
0.653613
0.802513
0.803176
0.803628
0.82106
0.823448
0.803941
0.801055
0.800019
0.822616
0.80317
0.803596
0.799628
0.824325
0.803963
0.801977
0.806065
0.827809
0.800503
0.801494
0.824216
0.799554
0.815312
0.65121
0.826329
0.849806
0.804843
0.819508
0.80322
0.82869
0.837443
0.80339
0.821413
0.800507
0.806939
0.789536
0.802141
0.803131
0.806345
0.805873
0.804478
0.818478
0.814674
0.811219
0.831351
0.802144
0.802209
0.79987
0.788988
0.833733
0.803135
0.819236
0.815136
0.807082
0.805004
0.802944
0.838857
0.864672
0.799538
0.678892
0.80116
0.8421
0.816521
0.805087
0.804453
0.819662
0.844549
0.60134
0.828706
0.794449
0.850305
0.818662
0.811975
0.813246
0.808192
0.803945
0.812746
0.808734
0.591766
0.847937
0.794573
0.814103
0.854546
0.81921
0.763144
0.808606
0.814375
0.815391
0.802951
0.661633
0.80916
0.863116
0.802538
0.80068
0.775369
0.871188
0.800408
0.877041
0.806645
0.817092
0.820545
0.802184
0.803791
0.812521
0.815807
0.803431
0.813243
0.816666
0.881324
0.820664
0.80928
0.800099
0.828356
0.810463
0.838798
0.808775
0.806928
0.812074
0.816473
0.829858
0.813578
0.82247
0.832467
0.814118
0.699591
0.690626
0.812959
0.817671
0.803769
0.81304
0.513858
0.854836
0.79973
0.806212
0.813856
0.8134
0.803946
0.812395
0.800442
0.801179
0.807989
0.814676
0.756835
0.784603
0.822874
0.842621
0.834758
0.800223
0.805021
0.803347
0.812891
0.805672
0.799488
0.799759
0.800983
0.810858
0.797789
0.80271
0.835436
0.831269
0.729748
0.663849
0.807558
0.698464
0.799457
0.571961
0.804394
0.806904
0.803069
0.81809
0.833718
0.81384
0.81277
0.810246
0.803831
0.881493
0.816189
0.804758
0.772221
0.58568
0.810221
0.806582
0.769323
0.814333
0.813789
0.791446
0.800686
0.804018
0.624221
0.830395
0.803493
0.781442
0.779273
0.85267
0.809971
0.802844
0.802563
0.810157
0.811038
0.518515
0.801759
0.839437
0.81384
0.798551
0.588633
0.81449
0.813985
0.812857
0.833671
0.813832
0.803911
0.821821
0.805542
0.5757
0.808609
0.73646
0.798486
0.813547
0.722146
0.814843
0.845929
0.83157
0.664431
0.89088
0.785558
0.777365
0.796852
0.7795
0.80858
0.8499
0.807936
0.802849
0.81346
0.808781
0.782582
0.785898
0.813796
0.808274
0.834799
0.821201
0.835633
0.80123
0.799624
0.812954
0.856571
0.816392
0.818302
0.813256
0.607272
0.795501
0.823823
0.829294
0.865861
0.81251
0.818879
0.508545
0.80966
0.80056
0.812521
0.814677
0.847538
0.812959
0.811068
0.881472
0.764494
0.81252
0.813145
0.808943
0.805194
0.81414
0.655851
0.800481
0.849482
0.833466
0.810543
0.813482
0.813276
0.809547
0.698845
0.812417
0.80013
0.838512
0.818397
0.811545
0.831266
0.792662
0.811471
0.817736
0.808751
0.819211
0.74419
0.854674
0.818887
0.81372
0.812962
0.812609
0.815635
0.817077
0.812655
0.810706
0.841021
0.818516
0.80012
0.825237
0.826884
0.815978
0.814426
0.800331
0.801487
0.812951
0.818946
0.829358
0.812702
0.816376
0.799792
0.809879
0.812738
0.812705
0.802486
0.814577
0.813236
0.803222
0.812762
0.835597
0.800006
0.80935
0.821465
0.559863
0.814124
0.818085
0.815439
0.814925
0.821892
0.828761
0.815538
0.818757
0.701387
0.812963
0.801308
0.815531
0.818935
0.835016
0.821489
0.815486
0.829303
0.824868
0.81058
0.819157
0.819465
0.804149
0.813061
0.815518
0.819406
0.832048
0.812534
0.815612
0.802707
0.812835
0.812955
0.522425
0.627544
0.814322
0.821363
0.801701
0.822396
0.81582
0.841812
0.70807
0.813652
0.730394
0.81733
0.810231
0.813066
0.829287
0.813563
0.804824
0.812821
0.830022
0.839234
0.812701
0.719147
0.819218
0.815946
0.79989
0.803022
0.815223
0.855882
0.812551
0.813277
0.849649
0.828941
0.843219
0.573274
0.829042
0.813852
0.810812
0.817317
0.850443
0.817681
0.718352
0.799509
0.831703
0.799737
0.799698
0.805369
0.747792
0.813302
0.814256
0.725367
0.814268
0.827282
0.813222
0.813942
0.799189
0.818295
0.812886
0.823481
0.808681
0.808129
0.814888
0.705312
0.818994
0.81399
0.81287
0.639803
0.718771
0.599296
0.823217
0.529393
0.85375
0.727282
0.842744
0.812431
0.722634
0.821354
0.815798
0.742512
0.807634
0.818271
0.794392
0.816439
0.815776
0.815705
0.812887
0.807802
0.803652
0.737253
0.836072
0.820089
0.816524
0.799196
0.815378
0.801963
0.81592
0.813366
0.854545
0.817689
0.496849
0.813218
0.818706
0.818579
0.778026
0.81569
0.806706
0.818522
0.845288
0.596345
0.809062
0.799271
0.815231
0.817536
0.817606
0.812354
0.818516
0.813771
0.814494
0.803063
0.814191
0.846055
0.813844
0.791986
0.811399
0.62246
0.718735
0.812965
0.816908
0.802916
0.822223
0.735435
0.803145
0.80318
0.820124
0.622222
0.817509
0.799318
0.815326
0.864589
0.785464
0.821868
0.817892
0.822712
0.813926
0.769564
0.802413
0.813471
0.90228
0.82711
0.816339
0.832155
0.809512
0.868124
0.71939
0.686751
0.852272
0.802695
0.661124