# vtk DataFile Version 1.0
unstructured grid
ascii
DATASET UNSTRUCTURED_GRID
points 7812 float
-1 0 0
-1 1 0
2 0 0
2 1 0
0 0 0
1 0 0
-1 1 0.1
-1 0 0.1
0 0 0.1
1 0 0.1
2 0 0.1
2 1 0.1
-0.99 0 0
-0.98 0 0
-0.97 0 0
-0.96 0 0
-0.95 0 0
-0.94 0 0
-0.93 0 0
-0.92 0 0
-0.91 0 0
-0.9 0 0
-0.89 0 0
-0.88 0 0
-0.87 0 0
-0.86 0 0
-0.85 0 0
-0.84 0 0
-0.83 0 0
-0.82 0 0
-0.81 0 0
-0.8 0 0
-0.79 0 0
-0.78 0 0
-0.77 0 0
-0.76 0 0
-0.75 0 0
-0.74 0 0
-0.73 0 0
-0.72 0 0
-0.71 0 0
-0.7 0 0
-0.69 0 0
-0.68 0 0
-0.67 0 0
-0.66 0 0
-0.65 0 0
-0.64 0 0
-0.63 0 0
-0.62 0 0
-0.61 0 0
-0.6 0 0
-0.59 0 0
-0.58 0 0
-0.57 0 0
-0.56 0 0
-0.55 0 0
-0.54 0 0
-0.53 0 0
-0.52 0 0
-0.51 0 0
-0.5 0 0
-0.49 0 0
-0.48 0 0
-0.47 0 0
-0.46 0 0
-0.45 0 0
-0.44 0 0
-0.43 0 0
-0.42 0 0
-0.41 0 0
-0.4 0 0
-0.39 0 0
-0.38 0 0
-0.37 0 0
-0.36 0 0
-0.35 0 0
-0.34 0 0
-0.33 0 0
-0.32 0 0
-0.31 0 0
-0.3 0 0
-0.29 0 0
-0.28 0 0
-0.27 0 0
-0.26 0 0
-0.25 0 0
-0.24 0 0
-0.23 0 0
-0.22 0 0
-0.21 0 0
-0.2 0 0
-0.19 0 0
-0.18 0 0
-0.17 0 0
-0.16 0 0
-0.15 0 0
-0.14 0 0
-0.13 0 0
-0.12 0 0
-0.11 0 0
-0.1 0 0
-0.09 0 0
-0.08 0 0
-0.07 0 0
-0.06 0 0
-0.05 0 0
-0.04 0 0
-0.03 0 0
-0.02 0 0
-0.01 0 0
1.01 0 0
1.02 0 0
1.03 0 0
1.04 0 0
1.05 0 0
1.06 0 0
1.07 0 0
1.08 0 0
1.09 0 0
1.1 0 0
1.11 0 0
1.12 0 0
1.13 0 0
1.14 0 0
1.15 0 0
1.16 0 0
1.17 0 0
1.18 0 0
1.19 0 0
1.2 0 0
1.21 0 0
1.22 0 0
1.23 0 0
1.24 0 0
1.25 0 0
1.26 0 0
1.27 0 0
1.28 0 0
1.29 0 0
1.3 0 0
1.31 0 0
1.32 0 0
1.33 0 0
1.34 0 0
1.35 0 0
1.36 0 0
1.37 0 0
1.38 0 0
1.39 0 0
1.4 0 0
1.41 0 0
1.42 0 0
1.43 0 0
1.44 0 0
1.45 0 0
1.46 0 0
1.47 0 0
1.48 0 0
1.49 0 0
1.5 0 0
1.51 0 0
1.52 0 0
1.53 0 0
1.54 0 0
1.55 0 0
1.56 0 0
1.57 0 0
1.58 0 0
1.59 0 0
1.6 0 0
1.61 0 0
1.62 0 0
1.63 0 0
1.64 0 0
1.65 0 0
1.66 0 0
1.67 0 0
1.68 0 0
1.69 0 0
1.7 0 0
1.71 0 0
1.72 0 0
1.73 0 0
1.74 0 0
1.75 0 0
1.76 0 0
1.77 0 0
1.78 0 0
1.79 0 0
1.8 0 0
1.81 0 0
1.82 0 0
1.83 0 0
1.84 0 0
1.85 0 0
1.86 0 0
1.87 0 0
1.88 0 0
1.89 0 0
1.9 0 0
1.91 0 0
1.92 0 0
1.93 0 0
1.94 0 0
1.95 0 0
1.96 0 0
1.97 0 0
1.98 0 0
1.99 0 0
2 0.010289 0
2 0.0215307 0
2 0.0338135 0
2 0.0472336 0
2 0.0618965 0
2 0.0779171 0
2 0.0954213 0
2 0.114546 0
2 0.135442 0
2 0.158274 0
2 0.183219 0
2 0.210474 0
2 0.240253 0
2 0.27279 0
2 0.308339 0
2 0.347181 0
2 0.389619 0
2 0.435987 0
2 0.486649 0
2 0.542002 0
2 0.602481 0
2 0.66856 0
2 0.740758 0
2 0.819642 0
2 0.90583 0
1.9 1 0
1.8 1 0
1.7 1 0
1.6 1 0
1.5 1 0
1.4 1 0
1.3 1 0
1.2 1 0
1.1 1 0
1 1 0
0.9 1 0
0.8 1 0
0.7 1 0
0.6 1 0
0.5 1 0
0.4 1 0
0.3 1 0
0.2 1 0
0.1 1 0
3.69793e-12 1 0
-0.1 1 0
-0.2 1 0
-0.3 1 0
-0.4 1 0
-0.5 1 0
-0.6 1 0
-0.7 1 0
-0.8 1 0
-0.9 1 0
-1 0.90583 0
-1 0.819642 0
-1 0.740758 0
-1 0.66856 0
-1 0.602481 0
-1 0.542002 0
-1 0.486649 0
-1 0.435987 0
-1 0.389619 0
-1 0.347181 0
-1 0.308339 0
-1 0.27279 0
-1 0.240253 0
-1 0.210474 0
-1 0.183219 0
-1 0.158274 0
-1 0.135442 0
-1 0.114546 0
-1 0.0954213 0
-1 0.0779171 0
-1 0.0618965 0
-1 0.0472336 0
-1 0.0338135 0
-1 0.0215307 0
-1 0.010289 0
0.00921362 0.00379763 0
0.0184561 0.00752451 0
0.0277268 0.0111804 0
0.0370253 0.0147652 0
0.0463511 0.0182786 0
0.0557034 0.0217203 0
0.0650819 0.0250903 0
0.074486 0.0283883 0
0.083915 0.0316141 0
0.0933685 0.0347675 0
0.102846 0.0378484 0
0.112347 0.0408565 0
0.12187 0.0437917 0
0.131416 0.0466538 0
0.140983 0.0494427 0
0.150572 0.0521581 0
0.160181 0.0547999 0
0.16981 0.0573681 0
0.179458 0.0598623 0
0.189125 0.0622825 0
0.198811 0.0646285 0
0.208514 0.0669001 0
0.218234 0.0690974 0
0.227971 0.07122 0
0.237724 0.073268 0
0.247493 0.0752411 0
0.257276 0.0771393 0
0.267073 0.0789625 0
0.276884 0.0807105 0
0.286708 0.0823832 0
0.296545 0.0839806 0
0.306394 0.0855025 0
0.316254 0.0869488 0
0.326125 0.0883196 0
0.336006 0.0896146 0
0.345896 0.0908339 0
0.355796 0.0919773 0
0.365704 0.0930447 0
0.375621 0.0940362 0
0.385544 0.0949517 0
0.395474 0.095791 0
0.40541 0.0965542 0
0.415352 0.0972412 0
0.425299 0.097852 0
0.43525 0.0983865 0
0.445205 0.0988447 0
0.455164 0.0992266 0
0.465125 0.0995321 0
0.475088 0.0997613 0
0.485052 0.0999141 0
0.495017 0.0999904 0
0.504983 0.0999904 0
0.514948 0.0999141 0
0.524912 0.0997613 0
0.534875 0.0995321 0
0.544836 0.0992266 0
0.554795 0.0988447 0
0.56475 0.0983865 0
0.574701 0.097852 0
0.584648 0.0972412 0
0.59459 0.0965542 0
0.604526 0.095791 0
0.614456 0.0949517 0
0.624379 0.0940362 0
0.634296 0.0930447 0
0.644204 0.0919773 0
0.654104 0.0908339 0
0.663994 0.0896146 0
0.673875 0.0883196 0
0.683746 0.0869488 0
0.693606 0.0855025 0
0.703455 0.0839806 0
0.713292 0.0823832 0
0.723116 0.0807105 0
0.732927 0.0789625 0
0.742724 0.0771393 0
0.752508 0.0752411 0
0.762276 0.073268 0
0.772029 0.07122 0
0.781766 0.0690974 0
0.791486 0.0669001 0
0.801189 0.0646285 0
0.810875 0.0622825 0
0.820542 0.0598623 0
0.83019 0.0573681 0
0.839819 0.0547999 0
0.849428 0.0521581 0
0.859017 0.0494427 0
0.868584 0.0466538 0
0.87813 0.0437917 0
0.887653 0.0408565 0
0.897154 0.0378484 0
0.906631 0.0347675 0
0.916085 0.0316141 0
0.925514 0.0283883 0
0.934918 0.0250903 0
0.944297 0.0217203 0
0.953649 0.0182786 0
0.962975 0.0147652 0
0.972273 0.0111804 0
0.981544 0.00752451 0
0.990786 0.00379763 0
-1 0.90583 0.1
-1 0.819642 0.1
-1 0.740758 0.1
-1 0.66856 0.1
-1 0.602481 0.1
-1 0.542002 0.1
-1 0.486649 0.1
-1 0.435987 0.1
-1 0.389619 0.1
-1 0.347181 0.1
-1 0.308339 0.1
-1 0.27279 0.1
-1 0.240253 0.1
-1 0.210474 0.1
-1 0.183219 0.1
-1 0.158274 0.1
-1 0.135442 0.1
-1 0.114546 0.1
-1 0.0954213 0.1
-1 0.0779171 0.1
-1 0.0618965 0.1
-1 0.0472336 0.1
-1 0.0338135 0.1
-1 0.0215307 0.1
-1 0.010289 0.1
-0.99 0 0.1
-0.98 0 0.1
-0.97 0 0.1
-0.96 0 0.1
-0.95 0 0.1
-0.94 0 0.1
-0.93 0 0.1
-0.92 0 0.1
-0.91 0 0.1
-0.9 0 0.1
-0.89 0 0.1
-0.88 0 0.1
-0.87 0 0.1
-0.86 0 0.1
-0.85 0 0.1
-0.84 0 0.1
-0.83 0 0.1
-0.82 0 0.1
-0.81 0 0.1
-0.8 0 0.1
-0.79 0 0.1
-0.78 0 0.1
-0.77 0 0.1
-0.76 0 0.1
-0.75 0 0.1
-0.74 0 0.1
-0.73 0 0.1
-0.72 0 0.1
-0.71 0 0.1
-0.7 0 0.1
-0.69 0 0.1
-0.68 0 0.1
-0.67 0 0.1
-0.66 0 0.1
-0.65 0 0.1
-0.64 0 0.1
-0.63 0 0.1
-0.62 0 0.1
-0.61 0 0.1
-0.6 0 0.1
-0.59 0 0.1
-0.58 0 0.1
-0.57 0 0.1
-0.56 0 0.1
-0.55 0 0.1
-0.54 0 0.1
-0.53 0 0.1
-0.52 0 0.1
-0.51 0 0.1
-0.5 0 0.1
-0.49 0 0.1
-0.48 0 0.1
-0.47 0 0.1
-0.46 0 0.1
-0.45 0 0.1
-0.44 0 0.1
-0.43 0 0.1
-0.42 0 0.1
-0.41 0 0.1
-0.4 0 0.1
-0.39 0 0.1
-0.38 0 0.1
-0.37 0 0.1
-0.36 0 0.1
-0.35 0 0.1
-0.34 0 0.1
-0.33 0 0.1
-0.32 0 0.1
-0.31 0 0.1
-0.3 0 0.1
-0.29 0 0.1
-0.28 0 0.1
-0.27 0 0.1
-0.26 0 0.1
-0.25 0 0.1
-0.24 0 0.1
-0.23 0 0.1
-0.22 0 0.1
-0.21 0 0.1
-0.2 0 0.1
-0.19 0 0.1
-0.18 0 0.1
-0.17 0 0.1
-0.16 0 0.1
-0.15 0 0.1
-0.14 0 0.1
-0.13 0 0.1
-0.12 0 0.1
-0.11 0 0.1
-0.1 0 0.1
-0.09 0 0.1
-0.08 0 0.1
-0.07 0 0.1
-0.06 0 0.1
-0.05 0 0.1
-0.04 0 0.1
-0.03 0 0.1
-0.02 0 0.1
-0.01 0 0.1
0.00921362 0.00379763 0.1
0.0184561 0.00752451 0.1
0.0277268 0.0111804 0.1
0.0370253 0.0147652 0.1
0.0463511 0.0182786 0.1
0.0557034 0.0217203 0.1
0.0650819 0.0250903 0.1
0.074486 0.0283883 0.1
0.083915 0.0316141 0.1
0.0933685 0.0347675 0.1
0.102846 0.0378484 0.1
0.112347 0.0408565 0.1
0.12187 0.0437917 0.1
0.131416 0.0466538 0.1
0.140983 0.0494427 0.1
0.150572 0.0521581 0.1
0.160181 0.0547999 0.1
0.16981 0.0573681 0.1
0.179458 0.0598623 0.1
0.189125 0.0622825 0.1
0.198811 0.0646285 0.1
0.208514 0.0669001 0.1
0.218234 0.0690974 0.1
0.227971 0.07122 0.1
0.237724 0.073268 0.1
0.247493 0.0752411 0.1
0.257276 0.0771393 0.1
0.267073 0.0789625 0.1
0.276884 0.0807105 0.1
0.286708 0.0823832 0.1
0.296545 0.0839806 0.1
0.306394 0.0855025 0.1
0.316254 0.0869488 0.1
0.326125 0.0883196 0.1
0.336006 0.0896146 0.1
0.345896 0.0908339 0.1
0.355796 0.0919773 0.1
0.365704 0.0930447 0.1
0.375621 0.0940362 0.1
0.385544 0.0949517 0.1
0.395474 0.095791 0.1
0.40541 0.0965542 0.1
0.415352 0.0972412 0.1
0.425299 0.097852 0.1
0.43525 0.0983865 0.1
0.445205 0.0988447 0.1
0.455164 0.0992266 0.1
0.465125 0.0995321 0.1
0.475088 0.0997613 0.1
0.485052 0.0999141 0.1
0.495017 0.0999904 0.1
0.504983 0.0999904 0.1
0.514948 0.0999141 0.1
0.524912 0.0997613 0.1
0.534875 0.0995321 0.1
0.544836 0.0992266 0.1
0.554795 0.0988447 0.1
0.56475 0.0983865 0.1
0.574701 0.097852 0.1
0.584648 0.0972412 0.1
0.59459 0.0965542 0.1
0.604526 0.095791 0.1
0.614456 0.0949517 0.1
0.624379 0.0940362 0.1
0.634296 0.0930447 0.1
0.644204 0.0919773 0.1
0.654104 0.0908339 0.1
0.663994 0.0896146 0.1
0.673875 0.0883196 0.1
0.683746 0.0869488 0.1
0.693606 0.0855025 0.1
0.703455 0.0839806 0.1
0.713292 0.0823832 0.1
0.723116 0.0807105 0.1
0.732927 0.0789625 0.1
0.742724 0.0771393 0.1
0.752508 0.0752411 0.1
0.762276 0.073268 0.1
0.772029 0.07122 0.1
0.781766 0.0690974 0.1
0.791486 0.0669001 0.1
0.801189 0.0646285 0.1
0.810875 0.0622825 0.1
0.820542 0.0598623 0.1
0.83019 0.0573681 0.1
0.839819 0.0547999 0.1
0.849428 0.0521581 0.1
0.859017 0.0494427 0.1
0.868584 0.0466538 0.1
0.87813 0.0437917 0.1
0.887653 0.0408565 0.1
0.897154 0.0378484 0.1
0.906631 0.0347675 0.1
0.916085 0.0316141 0.1
0.925514 0.0283883 0.1
0.934918 0.0250903 0.1
0.944297 0.0217203 0.1
0.953649 0.0182786 0.1
0.962975 0.0147652 0.1
0.972273 0.0111804 0.1
0.981544 0.00752451 0.1
0.990786 0.00379763 0.1
1.01 0 0.1
1.02 0 0.1
1.03 0 0.1
1.04 0 0.1
1.05 0 0.1
1.06 0 0.1
1.07 0 0.1
1.08 0 0.1
1.09 0 0.1
1.1 0 0.1
1.11 0 0.1
1.12 0 0.1
1.13 0 0.1
1.14 0 0.1
1.15 0 0.1
1.16 0 0.1
1.17 0 0.1
1.18 0 0.1
1.19 0 0.1
1.2 0 0.1
1.21 0 0.1
1.22 0 0.1
1.23 0 0.1
1.24 0 0.1
1.25 0 0.1
1.26 0 0.1
1.27 0 0.1
1.28 0 0.1
1.29 0 0.1
1.3 0 0.1
1.31 0 0.1
1.32 0 0.1
1.33 0 0.1
1.34 0 0.1
1.35 0 0.1
1.36 0 0.1
1.37 0 0.1
1.38 0 0.1
1.39 0 0.1
1.4 0 0.1
1.41 0 0.1
1.42 0 0.1
1.43 0 0.1
1.44 0 0.1
1.45 0 0.1
1.46 0 0.1
1.47 0 0.1
1.48 0 0.1
1.49 0 0.1
1.5 0 0.1
1.51 0 0.1
1.52 0 0.1
1.53 0 0.1
1.54 0 0.1
1.55 0 0.1
1.56 0 0.1
1.57 0 0.1
1.58 0 0.1
1.59 0 0.1
1.6 0 0.1
1.61 0 0.1
1.62 0 0.1
1.63 0 0.1
1.64 0 0.1
1.65 0 0.1
1.66 0 0.1
1.67 0 0.1
1.68 0 0.1
1.69 0 0.1
1.7 0 0.1
1.71 0 0.1
1.72 0 0.1
1.73 0 0.1
1.74 0 0.1
1.75 0 0.1
1.76 0 0.1
1.77 0 0.1
1.78 0 0.1
1.79 0 0.1
1.8 0 0.1
1.81 0 0.1
1.82 0 0.1
1.83 0 0.1
1.84 0 0.1
1.85 0 0.1
1.86 0 0.1
1.87 0 0.1
1.88 0 0.1
[...]
CELL_DATA 7425
SCALARS rho float
LOOKUP_TABLE default
0.587668
0.805058
0.819687
0.827631
0.799568
0.819279
0.82101
0.814291
0.813159
0.738801
0.863544
0.810081
0.814057
0.827487
0.803841
0.817292
0.798892
0.813435
0.803488
0.767346
0.831381
0.822088
0.724966
0.828161
0.803894
0.703478
0.83131
0.848481
0.800189
0.808011
0.81947
0.725317
0.803634
0.652506
0.520216
0.828127
0.803523
0.814269
0.81119
0.828111
0.716354
0.703843
0.790095
0.70127
0.587075
0.748344
0.799441
0.813991
0.662975
0.719115
0.746344
0.805174
0.812391
0.799216
0.709415
0.648828
0.823037
0.800191
0.738673
0.701156
0.710047
0.807683
0.813405
0.799513
0.798799
0.817747
0.584842
0.773416
0.704039
0.807935
0.804273
0.803213
0.883441
0.821161
0.810885
0.813218
0.805071
0.800462
0.813412
0.757833
0.816125
0.807263
0.810453
0.788801
0.835981
0.801218
0.574918
0.830056
0.543217
0.848558
0.705465
0.729917
0.84544
0.803195
0.817537
0.758462
0.836154
0.788076
0.825744
0.802615
0.808237
0.738628
0.803303
0.828344
0.597643
0.811116
0.824485
0.707766
0.815147
0.79931
0.816849
0.784618
0.789918
0.812456
0.789827
0.786378
0.831359
0.803115
0.699492
0.63364
0.805069
0.777395
0.813124
0.790457
0.859005
0.839032
0.807721
0.804378
0.661503
0.50504
0.814628
0.655462
0.516042
0.86795
0.663429
0.799662
0.811137
0.723776
0.58248
0.72519
0.723612
0.809707
0.809812
0.706901
0.803243
0.779676
0.565934
0.788671
0.782549
0.82788
0.816864
0.704584
0.803031
0.744312
0.704813
0.803293
0.810481
0.830517
0.797675
0.652886
0.802561
0.702549
0.801225
0.829851
0.820586
0.802397
0.813239
0.784934
0.806305
0.800784
0.81984
0.804619
0.791334
0.799273
0.799985
0.740419
0.803823
0.758964
0.594747
0.704721
0.799816
0.79284
0.879837
0.831939
0.626537
0.823049
0.798781
0.827483
0.800004
0.813572
0.812792
0.803212
0.806972
0.704171
0.815162
0.819383
0.770188
0.797271
0.861381
0.807796
0.811902
0.811344
0.613262
0.839087
0.573506
0.532663
0.595904
0.601604
0.82826
0.879372
0.80755
0.798678
0.841449
0.813149
0.816821
0.820894
0.815353
0.638323
0.55185
0.81389
0.546289
0.593187
0.703014
0.811843
0.814221
0.813219
0.833234
0.813095
0.864443
0.709438
0.835306
0.71318
0.805199
0.803941
0.802003
0.714159
0.720843
0.619825
0.704781
0.86368
0.875666
0.80639
0.807721
0.798998
0.811616
0.716331
0.821733
0.800335
0.825807
0.794666
0.810024
0.721335
0.812995
0.823856
0.740095
0.529144
0.799971
0.736369
0.843382
0.814498
0.726431
0.815725
0.814994
0.850011
0.809675
0.804022
0.80327
0.825768
0.860825
0.805579
0.619574
0.848962
0.812138
0.805626
0.827651
0.837412
0.81316
0.821551
0.793548
0.815224
0.866853
0.850006
0.827445
0.836834
0.802716
0.817301
0.803202
0.759784
0.701706
0.581365
0.700262
0.802476
0.81307
0.816132
0.854917
0.779725
0.646053
0.827193
0.521771
0.774411
0.8011
0.646715
0.497286
0.639415
0.815348
0.813408
0.813147
0.812886
0.826829
0.774489
0.811503
0.802686
0.813092
0.840799
0.867346
0.833654
0.802795
0.704896
0.796011
0.834361
0.691851
0.798887
0.802083
0.864839
0.817241
0.593454
0.81356
0.740813
0.852501
0.732252
0.810276
0.907677
0.800012
0.795773
0.659277
0.635891
0.711219
0.780762
0.826652
0.815087
0.813857
0.882706
0.858392
0.79968
0.799267
0.826073
0.739469
0.802564
0.879432
0.801396
0.804851
0.800833
0.802587
0.813138
0.815868
0.816515
0.636683
0.830098
0.646386
0.808547
0.639794
0.80275
0.802265
0.840332
0.729075
0.81638
0.808713
0.817121
0.799624
0.802514
0.811296
0.697473
0.824511
0.813236
0.8131
0.800698
0.736855
0.560422
0.806438
0.811198
0.803205
0.813079
0.794845
0.505157
0.846138
0.813484
0.803867
0.785845
0.813434
0.804765
0.803134
0.816383
0.807535
0.822631
0.768725
0.812752
0.8078
0.563159
0.803259
0.640425
0.838827
0.636554
0.814848
0.877947
0.594197
0.818145
0.749133
0.804436
0.873387
0.534606
0.82324
0.822382
0.803514
0.825853
0.811135
0.823578
0.830742
0.82495
0.74001
0.827632
0.761645
0.81031
0.794282
0.793747
0.758754
0.80563
0.8021
0.814602
0.752504
0.80478
0.604854
0.61463
0.689597
0.812984
0.844278
0.864898
0.829976
0.798729
0.812828
0.804971
0.818636
0.680788
0.8011
0.743118
0.824136
0.814944
0.805548
0.711193
0.72746
0.534374
0.605972
0.801411
0.611732
0.792727
0.765446
0.77016
0.726885
0.762621
0.767703
0.809606
0.815085
0.819682
0.811645
0.710919
0.603373
0.839119
0.807074
0.783213
0.809989
0.80263
0.836653
0.718683
0.855356
0.76373
0.728779
0.764704
0.81166
0.545691
0.79897
0.841704
0.813396
0.81395
0.809882
0.799315
0.780478
0.835779
0.803124
0.84306
0.721255
0.707093
0.800428
0.795274
0.822144
0.709036
0.848041
0.800574
0.816197
0.798869
0.779247
0.808416
0.595034
0.677717
0.63273
0.813096
0.803917
0.826466
0.749411
0.810622
0.814954
0.820522
0.799122
0.729729
0.797032
0.814454
0.803214
0.703848
0.81376
0.819037
0.840107
0.810958
0.825454
0.862347
0.857334
0.744187
0.603817
0.838104
0.805897
0.843451
0.814387
0.823
0.813692
0.813968
0.636982
0.805341
0.809437
0.813011
0.792019
0.810691
0.8049
0.860781
0.79881
0.812925
0.81487
0.871975
0.598044
0.813629
0.842632
0.883358
0.531151
0.81655
0.830065
0.796181
0.814783
0.795075
0.867656
0.812309
0.831456
0.812873
0.619724
0.802431
0.804172
0.691435
0.853202
0.759738
0.801849
0.814139
0.812892
0.859958
0.795391
0.833699
0.834821
0.784467
0.825265
0.842558
0.799886
0.810644
0.807109
0.805341
0.814981
0.802652
0.845304
0.769342
0.809811
0.803198
0.815319
0.723417
0.813082
0.818493
0.752762
0.813755
0.816469
0.827733
0.825235
0.800853
0.800759
0.850564
0.767895
0.825296
0.84429
0.80458
0.506652
0.813082
0.828392
0.85245
0.812797
0.80316
0.808571
0.85511
0.780083
0.802606
0.801355
0.813124
0.727602
0.802823
0.830088
0.808171
0.795017
0.793676
0.843288
0.806633
0.845387
0.802035
0.824372
0.812935
0.80424
0.841925
0.813051
0.679924
0.818918
0.807126
0.813007
0.906169
0.800899
0.81602
0.80057
0.800506
0.816354
0.800609
0.80339
0.783727
0.74741
0.806664
0.813087
0.75819
0.791565
0.823147
0.813047
0.822386
0.806393
0.825893
0.875352
0.830758
0.575919
0.709018
0.840847
0.817435
0.84424
0.814919
0.850176
0.807491
0.812505
0.79949
0.838502
0.860999
0.852869
0.731803
0.814255
0.822301
0.743858
0.81727
0.776045
0.800321
0.733326
0.816217
0.830975
0.823514
0.862118
0.814378
0.813478
0.81035
0.814802
0.835882
0.812233
0.79881
0.810261
0.737826
0.811535
0.774152
0.832936
0.812926
0.639121
0.777712
0.811286
0.799323
0.819964
0.802623
0.814835
0.817446
0.804559
0.819534
0.804186
0.80601
0.598037
0.847129
0.825252
0.826823
0.81508
0.803241
0.702078
0.806637
0.90786
0.813754
0.801191
0.81306
0.782356
0.807418
0.813452
0.82142
0.814674
0.813409
0.816392
0.700564
0.778015
0.764789
0.812845
0.805404
0.801186
0.621707
0.805872
0.802771
0.708515
0.837323
0.817347
0.8023
0.807595
0.799526
0.817395
0.814047
0.813469
0.813072
0.709895
0.831793
0.80032
0.807574
0.842946
0.817777
0.816445
0.800311
0.753728
0.823953
0.787579
0.821567
0.789474
0.805803
0.821088
0.737578
0.817533
0.651646
0.872085
0.704592
0.845095
0.800965
0.875206
0.793836
0.801749
0.820808
0.836357
0.838477
0.825584
0.819967
0.814865
0.801277
0.804218
0.808306
0.726235
0.827301
0.800109
0.719508
0.830634
0.704155
0.80016
0.860656
0.805612
0.702133
0.797892
0.814258
0.704547
0.785663
0.819523
0.83195
0.807131
0.577103
0.729092
0.812424
0.801488
0.813119
0.800804
0.73741
0.814182
0.815875
0.812685
0.7755
0.803282
0.804523
0.803738
0.560923
0.812908
0.834168
0.580561
0.815327
0.816259
0.814862
0.818505
0.814588
0.824663
0.799241
0.795159
0.77101
0.82296
0.829725
0.825166
0.835071
0.765509
0.80918
0.724898
0.772435
0.808955
0.821209
0.813466
0.800994
0.858558
0.813123
0.800495
0.809775
0.816248
0.81535
0.836732
0.814661
0.812998
0.812008
0.813993
0.800305
0.821129
0.803797
0.82296
0.813647
0.57627
0.813693
0.834569
0.858331
0.838259
0.491929
0.81696
0.804646
0.497566
0.66992
0.644311
0.834393
0.80809
0.811679
0.812985
0.803214
0.816901
0.811036
0.535261
0.687062
0.818293
0.806651
0.815772
0.803528
0.810279
0.811097
0.820369
0.799639
0.692936
0.856179
0.803161
0.814753
0.813797
0.757934
0.48689
0.833002
0.81363
0.741868
0.802712
0.806362
0.591878
0.827619
0.814942
0.827839
0.818925
0.82615
0.804755
0.719958
0.643861
0.562546
0.825441
0.808682
0.782966
0.813162
0.779966
0.818037
0.873364
0.762518
0.821743
0.813694
0.825958
0.883611
0.814608
0.812016
0.803295
0.813894
0.692136
0.828326
0.8
0.81033
0.80225
0.784309
0.854239
0.822172
0.840559
0.821658
0.757552
0.756019
0.803468
0.818242
0.803077
0.805268
0.80262
0.775831
0.814847
0.761756
0.821319
0.662352
0.814143
0.80299
0.735505
0.823344
0.818101
0.740167
0.801193
0.757388
0.88097
0.800742
0.813037
0.762855
0.800245
0.814441
0.80397
0.59031
0.821035
0.79878
0.801508
0.814692
0.825728
0.757329
0.805676
0.841833
0.827108
0.814162
0.835941
0.699501
0.700378
0.813119
0.744333
0.82235
0.771511
0.813029
0.802549
0.810514
0.752123
0.794236
0.764514
0.81006
0.803154
0.631499
0.779127
0.799261
0.849229
0.814536
0.828767
0.52728
0.825381
0.78524
0.858808
0.800962
0.818059
0.800439
0.785926
0.798894
0.825825
0.835843
0.821857
0.817265
0.706652
0.774001
0.815499
0.805404
0.810168
0.803928
0.706185
0.792957
0.803557
0.81081
0.827325
0.851276
0.831961
0.813644
0.799579
0.804349
0.802129
0.779722
0.611999
0.800482
0.731605
0.662224
0.822928
0.798984
0.777262
0.800114
0.754322
0.785352
0.811653
0.822329
0.803473
0.81616
0.817472
0.820753
0.81357
0.808591
0.712354
0.699633
0.641197
0.829393
0.869626
0.81546
0.841451
0.847918
0.863794
0.736056
0.816714
0.863074
0.810327
0.813068
0.816309
0.733036
0.812581
0.806816
0.806349
0.518063
0.813155
0.761314
0.813339
0.81382
0.80356
0.705174
0.813378
0.610991
0.825118
0.802393
0.822329
0.85524
0.803451
0.79541
0.821067
0.811749
0.805774
0.762383
0.510826
0.821029
0.80311
0.829095
0.825882
0.80226
0.80705
0.834556
0.721094
0.501445
0.886303
0.800724
0.815845
0.804343
0.710184
0.798778
0.800144
0.815224
0.736439
0.646799
0.88329
0.714394
0.836649
0.812161
0.832995
0.842752
0.79234
0.804766
0.813766
0.852845
0.738491
0.870754
0.814186
0.563269
0.802609
0.748837
0.85299
0.760493
0.804238
0.803973
0.799759
0.801646
0.809051
0.813101
0.855785
0.806132
0.802878
0.801326
0.800133
0.812435
0.817022
0.802632
0.812679
0.849289
0.803107
0.783589
0.80226
0.839786
0.725481
0.813802
0.813994
0.641712
0.713343
0.805579
0.823144
0.803711
0.512612
0.856563
0.813378
0.833179
0.805328
0.803328
0.801391
0.786391
0.587538
0.804325
0.816254
0.836049
0.820699
0.813139
0.79832
0.747213
0.801598
0.766002
0.787594
0.799471
0.791009
0.751139
0.800956
0.811615
0.810543
0.832286
0.849294
0.553884
0.841995
0.813038
0.82088
0.80211
0.822702
0.811271
0.894649
0.800345
0.867367
0.805716
0.759966
0.862179
0.802301
0.800264
0.824276
0.660695
0.645586
0.803413
0.803879
0.703757
0.654593
0.799921
0.823974
0.813216
0.822715
0.733235
0.817292
0.813024
0.826251
0.817075
0.81197
0.813059
0.754742
0.804034
0.815829
0.811525
0.676475
0.566917
0.813096
0.650282
0.722115
0.555637
0.841487
0.80025
0.527928
0.601153
0.827601
0.908092
0.818287
0.652613
0.814323
0.78657
0.80183
0.786508
0.820813
0.810239
0.78834
0.82118
0.801158
0.588154
0.817967
0.766837
0.816077
0.700424
0.822348
0.78978
0.814117
0.800191
0.663157
0.843584
0.806659
0.806764
0.494624
0.81698
0.8005
0.852387
0.711117
0.817233
0.585169
0.71941
0.801512
0.796791
0.733125
0.715847
0.715599
0.507991
0.591668
0.800135
0.518518
0.822727
0.521693
0.757344
0.671783
0.600957
0.541504
0.7456
0.803092
0.71471
0.821427
0.801019
0.803028
0.761343
0.889718
0.799189
0.824602
0.803455
0.812981
0.706179
0.807701
0.736876
0.822039
0.886082
0.833664
0.747904
0.822914
0.770644
0.879944
0.804217
0.758814
0.850764
0.777007
0.799947
0.805444
0.758384
0.744928
0.666678
0.805006
0.803035
0.818044
0.833592
0.6118
0.808066
0.538841
0.668854
0.61724
0.818678
0.821172
0.809165
0.803995
0.616004
0.872507
0.802691
0.802956
0.863582
0.812619
0.772139
0.812355
0.802386
0.818045
0.803154
0.717245
0.803463
0.656115
0.799138
0.804228
0.801589
0.639446
0.811642
0.810409
0.725695
0.817951
0.549747
0.577161
0.804168
0.696713
0.726128
0.572541
0.723911
0.813794
0.706779
0.773068
0.71646
0.812898
0.670476
0.762256
0.806518
0.810766
0.654942
0.80198
0.895191
0.796743
0.816944
0.585964
0.694064
0.801088
0.813133
0.814174
0.851725
0.812825
0.804282
0.803751
0.803356
0.714047
0.717406
0.616005
0.771646
0.533843
0.723655
0.810086
0.814568
0.80627
0.799409
0.539608
0.809229
0.803777
0.554607
0.544117
0.746758
0.803591
0.806311
0.549865
0.798295
0.570083
0.720976
0.608176
0.813626
0.802359
0.597468
0.608659
0.867953
0.810116
0.765556
0.718155
0.622425
0.655607
0.709134
0.816157
0.759922
0.765476
0.624367
0.754052
0.80947
0.81552
0.812644
0.815627
0.865881
0.754889
0.819067
0.803364
0.851352
0.813051
0.802791
0.813257
0.722217
0.813092
0.812138
0.81533
0.811302
0.816036
0.803286
0.818063
0.81054
0.809895
0.817406
0.800136
0.816735
0.819088
0.667746
0.818746
0.868473
0.818306
0.792971
0.646199
0.858649
0.818926
0.825006
0.799679
0.811402
0.757482
0.852621
0.561032
0.72707
0.809888
0.815819
0.803894
0.803378
0.832152
0.805164
0.805288
0.815418
0.780839
0.838646
0.842031
0.815326
0.664591
0.613691
0.815917
0.816762
0.78847
0.849707
0.847332
0.811003
0.813773
0.777904
0.814246
0.81797
0.814272
0.818912
0.813244
0.815974
0.851119
0.816119
0.814649
0.817695
0.817906
0.784958
0.814264
0.804185
0.80428
0.804734
0.818706
0.81167
0.788481
0.75389
0.812842
0.8063
0.808944
0.8064
0.857828
0.803451
0.814152
0.812876
0.805287
0.588159
0.803909
0.812921
0.815167
0.810342
0.812965
0.813469
0.813201
0.810201
0.864445
0.502511
0.812996
0.841743
0.812828
0.802997
0.808465
0.815153
0.839768
0.800577
0.801363
0.812703
0.704609
0.813015
0.808323
0.807498
0.812725
0.81306
0.813201
0.813529
0.512748
0.811907
0.716289
0.885881
0.821175
0.733227
0.672822
0.815513
0.803634
0.818839
0.646785
0.801724
0.813501
0.648263
0.799986
0.804131
0.81559
0.806372
0.856808
0.809872
0.60729
0.800931
0.775151
0.811245
0.88911
0.803399
0.815542
0.819404
0.832278
0.813566
0.822521
0.836431
0.635275
0.802753
0.656061
0.813908
0.813809
0.712217
0.813695
0.804952
0.712903
0.815044
0.701824
0.861137
0.784198
0.814453
0.813071
0.813592
0.668264
0.813816
0.633568
0.8003
0.792415
0.822412
0.81533
0.716325
0.766696
0.830152
0.81292
0.821382
0.822025
0.813603
0.825444
0.799624
0.552571
0.754847
0.759383
0.731177
0.837697
0.822512
0.834404
0.776219
0.802776
0.813201
0.813127
0.81313
0.774736
0.564265
0.803217
0.529455
0.808309
0.824434
0.799833
0.803775
0.81311
0.806042
0.782764
0.73231
0.813552
0.8592
0.813805
0.799414
0.736801
0.809758
0.788773
0.833789
0.505027
0.796011
0.806049
0.799009
0.690024
0.813011
0.810879
0.857308
0.569503
0.807362
0.803282
0.812985
0.61328
0.813256
0.803346
0.803418
0.803041
0.813366
0.813462
0.816241
0.813211
0.717428
0.804526
0.803213
0.813161
0.896193
0.813312
0.77413
0.841269
0.799202
0.803145
0.601713
0.813057
0.80337
0.825814
0.801998
0.866279
0.814932
0.853621
0.800472
0.820752
0.77796
0.558811
0.752916
0.794378
0.804078
0.813958
0.813957
0.556019
0.861833
0.858155
0.768654
0.757704
0.738552
0.812215
0.848575
0.813094
0.813781
0.813128
0.804291
0.726724
0.803517
0.799236
0.764157
0.824367
0.823107
0.86189
0.815784
0.813141
0.527031
0.808909
0.8131
0.800813
0.7741
0.818096
0.80312
0.813039
0.826985
0.798484
0.803672
0.801298
0.815283
0.839194
0.802498
0.799284
0.801634
0.766059
0.819982
0.567547
0.868421
0.803709
0.546265
0.803269
0.803236
0.819704
0.59403
0.606543
0.801659
0.803769
0.800966
0.860779
0.780036
0.814744
0.802952
0.865992
0.804732
0.804468
0.826389
0.816061
0.82025
0.821382
0.820434
0.867521
0.729447
0.852202
0.817319
0.653962
0.802634
0.803201
0.803654
0.821229
0.823604
0.804048
0.801198
0.800172
0.822779
0.803278
0.803628
0.799791
0.824482
0.803989
0.802045
0.806096
0.827953
0.800683
0.801628
0.824414
0.7997
0.815512
0.651565
0.82648
0.849898
0.804935
0.819683
0.803254
0.828835
0.837569
0.803411
0.821579
0.800623
0.807107
0.789584
0.802203
0.803242
0.806375
0.805967
0.804631
0.818654
0.814879
0.811266
0.83149
0.80231
0.802249
0.800025
0.789012
0.833861
0.803171
0.819412
0.815336
0.80716
0.805136
0.802958
0.838973
0.864997
0.799701
0.679186
0.801255
0.842217
0.816711
0.805265
0.80448
0.819746
0.844653
0.603358
0.828919
0.794622
0.850591
0.818839
0.812031
0.813325
0.808355
0.803972
0.812811
0.808787
0.592183
0.848043
0.79467
0.814315
0.854641
0.819386
0.76332
0.808691
0.814584
0.815573
0.802985
0.661977
0.809346
0.863199
0.802679
0.800789
0.775579
0.871253
0.800509
0.877102
0.806778
0.817278
0.820715
0.802367
0.803904
0.812753
0.816001
0.803605
0.813463
0.816851
0.881383
0.820732
0.809315
0.800274
0.828484
0.810501
0.839033
0.808882
0.806959
0.812265
0.816663
0.829977
0.813791
0.822621
0.832579
0.814307
0.700197
0.691659
0.813189
0.817854
0.80395
0.813261
0.515144
0.854916
0.799871
0.806242
0.814056
0.813616
0.803981
0.812619
0.800588
0.801292
0.808132
0.814817
0.757095
0.784754
0.823034
0.842884
0.834868
0.800379
0.805192
0.803368
0.812935
0.805774
0.799649
0.799906
0.801086
0.810983
0.797841
0.80288
0.835565
0.831487
0.730179
0.681178
0.807607
0.699216
0.799632
0.57372
0.804432
0.80699
0.803222
0.818271
0.833941
0.814055
0.813006
0.810287
0.803868
0.881553
0.816382
0.80494
0.772342
0.587178
0.810255
0.806756
0.76946
0.814541
0.814005
0.791509
0.800732
0.804051
0.626828
0.830504
0.803516
0.781655
0.779379
0.852758
0.810004
0.803012
0.802743
0.81033
0.811088
0.519649
0.801854
0.839559
0.814055
0.798606
0.589318
0.814613
0.814197
0.8131
0.833804
0.814046
0.803965
0.821987
0.805731
0.57621
0.808666
0.736809
0.798524
0.813767
0.722369
0.815047
0.846189
0.831648
0.664765
0.890927
0.785641
0.777575
0.796901
0.779547
0.808692
0.850174
0.808102
0.802904
0.813681
0.808989
0.782675
0.785979
0.814006
0.808453
0.834879
0.821358
0.835718
0.801408
0.799762
0.81319
0.856663
0.816547
0.81846
0.813481
0.607681
0.795558
0.823969
0.8294
0.865941
0.812752
0.819004
0.509691
0.809872
0.800701
0.812741
0.814873
0.847637
0.813191
0.811104
0.881527
0.764678
0.812587
0.81337
0.809147
0.805231
0.814351
0.656182
0.800525
0.849585
0.833545
0.810712
0.813663
0.8135
0.80958
0.69955
0.812601
0.800304
0.838635
0.818573
0.811738
0.831385
0.792846
0.811659
0.817914
0.808939
0.819387
0.744529
0.854944
0.819064
0.81391
0.813195
0.812844
0.81582
0.817257
0.812892
0.810898
0.841134
0.818694
0.800283
0.825314
0.827018
0.816169
0.8145
0.800483
0.801581
0.813186
0.819124
0.829441
0.812939
0.816558
0.799966
0.810075
0.812977
0.812937
0.80251
0.814783
0.813459
0.80327
0.813002
0.835721
0.800043
0.80955
0.821668
0.560566
0.814332
0.818265
0.815606
0.815112
0.822055
0.828891
0.81573
0.818935
0.701657
0.813198
0.801415
0.815728
0.819121
0.835099
0.821656
0.815605
0.829447
0.825024
0.810812
0.819199
0.819668
0.804335
0.813292
0.815715
0.819492
0.832185
0.812762
0.815808
0.80273
0.813075
0.813186
0.523725
0.628247
0.814364
0.821531
0.801834
0.822549
0.816016
0.841915
0.708325
0.81387
0.730737
0.817473
0.810434
0.813296
0.829411
0.813781
0.805012
0.81306
0.830138
0.8395
0.812928
0.719387
0.819277
0.816137
0.800032
0.803037
0.815423
0.855969
0.812784
0.813503
0.849746
0.829055
0.84331
0.574414
0.829183
0.814065
0.811011
0.817502
0.850729
0.817865
0.718581
0.799669
0.831779
0.799915
0.79985
0.805453
0.747986
0.813526
0.814461
0.725722
0.81447
0.82736
0.813444
0.814147
0.799356
0.818473
0.813125
0.823683
0.808714
0.808298
0.815073
0.705742
0.819171
0.814196
0.813111
0.640356
0.718371
0.599726
0.823297
0.531044
0.854037
0.7275
0.842849
0.812657
0.723212
0.821468
0.815984
0.742712
0.807709
0.818451
0.794416
0.816623
0.815971
0.815901
0.813125
0.808009
0.803676
0.737459
0.836303
0.820254
0.81671
0.799347
0.815449
0.80215
0.816114
0.813583
0.854818
0.817869
0.498247
0.813404
0.818884
0.818758
0.778112
0.815759
0.806737
0.818588
0.845546
0.596843
0.809238
0.799443
0.81543
0.817719
0.817787
0.812584
0.818695
0.813959
0.814686
0.803084
0.814381
0.846166
0.814047
0.792016
0.811612
0.622869
0.718611
0.813199
0.817095
0.80298
0.822387
0.735474
0.803157
0.803189
0.820296
0.648053
0.817694
0.799493
0.815525
0.864913
0.78554
0.822034
0.818074
0.822915
0.814139
0.769685
0.80245
0.813689
0.902316
0.827192
0.816531
0.832233
0.809738
0.868466
0.71916
0.694742
0.8525
0.802712
0.677498
0.850455
0.786098