# vtk DataFile Version 1.0
unstructured grid
ascii
DATASET UNSTRUCTURED_GRID
points 7812 float
-1 0 0
-1 1 0
2 0 0
2 1 0
0 0 0
1 0 0
-1 1 0.1
-1 0 0.1
0 0 0.1
1 0 0.1
2 0 0.1
2 1 0.1
-0.99 0 0
-0.98 0 0
-0.97 0 0
-0.96 0 0
-0.95 0 0
-0.94 0 0
-0.93 0 0
-0.92 0 0
-0.91 0 0
-0.9 0 0
-0.89 0 0
-0.88 0 0
-0.87 0 0
-0.86 0 0
-0.85 0 0
-0.84 0 0
-0.83 0 0
-0.82 0 0
-0.81 0 0
-0.8 0 0
-0.79 0 0
-0.78 0 0
-0.77 0 0
-0.76 0 0
-0.75 0 0
-0.74 0 0
-0.73 0 0
-0.72 0 0
-0.71 0 0
-0.7 0 0
-0.69 0 0
-0.68 0 0
-0.67 0 0
-0.66 0 0
-0.65 0 0
-0.64 0 0
-0.63 0 0
-0.62 0 0
-0.61 0 0
-0.6 0 0
-0.59 0 0
-0.58 0 0
-0.57 0 0
-0.56 0 0
-0.55 0 0
-0.54 0 0
-0.53 0 0
-0.52 0 0
-0.51 0 0
-0.5 0 0
-0.49 0 0
-0.48 0 0
-0.47 0 0
-0.46 0 0
-0.45 0 0
-0.44 0 0
-0.43 0 0
-0.42 0 0
-0.41 0 0
-0.4 0 0
-0.39 0 0
-0.38 0 0
-0.37 0 0
-0.36 0 0
-0.35 0 0
-0.34 0 0
-0.33 0 0
-0.32 0 0
-0.31 0 0
-0.3 0 0
-0.29 0 0
-0.28 0 0
-0.27 0 0
-0.26 0 0
-0.25 0 0
-0.24 0 0
-0.23 0 0
-0.22 0 0
-0.21 0 0
-0.2 0 0
-0.19 0 0
-0.18 0 0
-0.17 0 0
-0.16 0 0
-0.15 0 0
-0.14 0 0
-0.13 0 0
-0.12 0 0
-0.11 0 0
-0.1 0 0
-0.09 0 0
-0.08 0 0
-0.07 0 0
-0.06 0 0
-0.05 0 0
-0.04 0 0
-0.03 0 0
-0.02 0 0
-0.01 0 0
1.01 0 0
1.02 0 0
1.03 0 0
1.04 0 0
1.05 0 0
1.06 0 0
1.07 0 0
1.08 0 0
1.09 0 0
1.1 0 0
1.11 0 0
1.12 0 0
1.13 0 0
1.14 0 0
1.15 0 0
1.16 0 0
1.17 0 0
1.18 0 0
1.19 0 0
1.2 0 0
1.21 0 0
1.22 0 0
1.23 0 0
1.24 0 0
1.25 0 0
1.26 0 0
1.27 0 0
1.28 0 0
1.29 0 0
1.3 0 0
1.31 0 0
1.32 0 0
1.33 0 0
1.34 0 0
1.35 0 0
1.36 0 0
1.37 0 0
1.38 0 0
1.39 0 0
1.4 0 0
1.41 0 0
1.42 0 0
1.43 0 0
1.44 0 0
1.45 0 0
1.46 0 0
1.47 0 0
1.48 0 0
1.49 0 0
1.5 0 0
1.51 0 0
1.52 0 0
1.53 0 0
1.54 0 0
1.55 0 0
1.56 0 0
1.57 0 0
1.58 0 0
1.59 0 0
1.6 0 0
1.61 0 0
1.62 0 0
1.63 0 0
1.64 0 0
1.65 0 0
1.66 0 0
1.67 0 0
1.68 0 0
1.69 0 0
1.7 0 0
1.71 0 0
1.72 0 0
1.73 0 0
1.74 0 0
1.75 0 0
1.76 0 0
1.77 0 0
1.78 0 0
1.79 0 0
1.8 0 0
1.81 0 0
1.82 0 0
1.83 0 0
1.84 0 0
1.85 0 0
1.86 0 0
1.87 0 0
1.88 0 0
1.89 0 0
1.9 0 0
1.91 0 0
1.92 0 0
1.93 0 0
1.94 0 0
1.95 0 0
1.96 0 0
1.97 0 0
1.98 0 0
1.99 0 0
2 0.010289 0
2 0.0215307 0
2 0.0338135 0
2 0.0472336 0
2 0.0618965 0
2 0.0779171 0
2 0.0954213 0
2 0.114546 0
2 0.135442 0
2 0.158274 0
2 0.183219 0
2 0.210474 0
2 0.240253 0
2 0.27279 0
2 0.308339 0
2 0.347181 0
2 0.389619 0
2 0.435987 0
2 0.486649 0
2 0.542002 0
2 0.602481 0
2 0.66856 0
2 0.740758 0
2 0.819642 0
2 0.90583 0
1.9 1 0
1.8 1 0
1.7 1 0
1.6 1 0
1.5 1 0
1.4 1 0
1.3 1 0
1.2 1 0
1.1 1 0
1 1 0
0.9 1 0
0.8 1 0
0.7 1 0
0.6 1 0
0.5 1 0
0.4 1 0
0.3 1 0
0.2 1 0
0.1 1 0
3.69793e-12 1 0
-0.1 1 0
-0.2 1 0
-0.3 1 0
-0.4 1 0
-0.5 1 0
-0.6 1 0
-0.7 1 0
-0.8 1 0
-0.9 1 0
-1 0.90583 0
-1 0.819642 0
-1 0.740758 0
-1 0.66856 0
-1 0.602481 0
-1 0.542002 0
-1 0.486649 0
-1 0.435987 0
-1 0.389619 0
-1 0.347181 0
-1 0.308339 0
-1 0.27279 0
-1 0.240253 0
-1 0.210474 0
-1 0.183219 0
-1 0.158274 0
-1 0.135442 0
-1 0.114546 0
-1 0.0954213 0
-1 0.0779171 0
-1 0.0618965 0
-1 0.0472336 0
-1 0.0338135 0
-1 0.0215307 0
-1 0.010289 0
0.00921362 0.00379763 0
0.0184561 0.00752451 0
0.0277268 0.0111804 0
0.0370253 0.0147652 0
0.0463511 0.0182786 0
0.0557034 0.0217203 0
0.0650819 0.0250903 0
0.074486 0.0283883 0
0.083915 0.0316141 0
0.0933685 0.0347675 0
0.102846 0.0378484 0
0.112347 0.0408565 0
0.12187 0.0437917 0
0.131416 0.0466538 0
0.140983 0.0494427 0
0.150572 0.0521581 0
0.160181 0.0547999 0
0.16981 0.0573681 0
0.179458 0.0598623 0
0.189125 0.0622825 0
0.198811 0.0646285 0
0.208514 0.0669001 0
0.218234 0.0690974 0
0.227971 0.07122 0
0.237724 0.073268 0
0.247493 0.0752411 0
0.257276 0.0771393 0
0.267073 0.0789625 0
0.276884 0.0807105 0
0.286708 0.0823832 0
0.296545 0.0839806 0
0.306394 0.0855025 0
0.316254 0.0869488 0
0.326125 0.0883196 0
0.336006 0.0896146 0
0.345896 0.0908339 0
0.355796 0.0919773 0
0.365704 0.0930447 0
0.375621 0.0940362 0
0.385544 0.0949517 0
0.395474 0.095791 0
0.40541 0.0965542 0
0.415352 0.0972412 0
0.425299 0.097852 0
0.43525 0.0983865 0
0.445205 0.0988447 0
0.455164 0.0992266 0
0.465125 0.0995321 0
0.475088 0.0997613 0
0.485052 0.0999141 0
0.495017 0.0999904 0
0.504983 0.0999904 0
0.514948 0.0999141 0
0.524912 0.0997613 0
0.534875 0.0995321 0
0.544836 0.0992266 0
0.554795 0.0988447 0
0.56475 0.0983865 0
0.574701 0.097852 0
0.584648 0.0972412 0
0.59459 0.0965542 0
0.604526 0.095791 0
0.614456 0.0949517 0
0.624379 0.0940362 0
0.634296 0.0930447 0
0.644204 0.0919773 0
0.654104 0.0908339 0
0.663994 0.0896146 0
0.673875 0.0883196 0
0.683746 0.0869488 0
0.693606 0.0855025 0
0.703455 0.0839806 0
0.713292 0.0823832 0
0.723116 0.0807105 0
0.732927 0.0789625 0
0.742724 0.0771393 0
0.752508 0.0752411 0
0.762276 0.073268 0
0.772029 0.07122 0
0.781766 0.0690974 0
0.791486 0.0669001 0
0.801189 0.0646285 0
0.810875 0.0622825 0
0.820542 0.0598623 0
0.83019 0.0573681 0
0.839819 0.0547999 0
0.849428 0.0521581 0
0.859017 0.0494427 0
0.868584 0.0466538 0
0.87813 0.0437917 0
0.887653 0.0408565 0
0.897154 0.0378484 0
0.906631 0.0347675 0
0.916085 0.0316141 0
0.925514 0.0283883 0
0.934918 0.0250903 0
0.944297 0.0217203 0
0.953649 0.0182786 0
0.962975 0.0147652 0
0.972273 0.0111804 0
0.981544 0.00752451 0
0.990786 0.00379763 0
-1 0.90583 0.1
-1 0.819642 0.1
-1 0.740758 0.1
-1 0.66856 0.1
-1 0.602481 0.1
-1 0.542002 0.1
-1 0.486649 0.1
-1 0.435987 0.1
-1 0.389619 0.1
-1 0.347181 0.1
-1 0.308339 0.1
-1 0.27279 0.1
-1 0.240253 0.1
-1 0.210474 0.1
-1 0.183219 0.1
-1 0.158274 0.1
-1 0.135442 0.1
-1 0.114546 0.1
-1 0.0954213 0.1
-1 0.0779171 0.1
-1 0.0618965 0.1
-1 0.0472336 0.1
-1 0.0338135 0.1
-1 0.0215307 0.1
-1 0.010289 0.1
-0.99 0 0.1
-0.98 0 0.1
-0.97 0 0.1
-0.96 0 0.1
-0.95 0 0.1
-0.94 0 0.1
-0.93 0 0.1
-0.92 0 0.1
-0.91 0 0.1
-0.9 0 0.1
-0.89 0 0.1
-0.88 0 0.1
-0.87 0 0.1
-0.86 0 0.1
-0.85 0 0.1
-0.84 0 0.1
-0.83 0 0.1
-0.82 0 0.1
-0.81 0 0.1
-0.8 0 0.1
-0.79 0 0.1
-0.78 0 0.1
-0.77 0 0.1
-0.76 0 0.1
-0.75 0 0.1
-0.74 0 0.1
-0.73 0 0.1
-0.72 0 0.1
-0.71 0 0.1
-0.7 0 0.1
-0.69 0 0.1
-0.68 0 0.1
-0.67 0 0.1
-0.66 0 0.1
-0.65 0 0.1
-0.64 0 0.1
-0.63 0 0.1
-0.62 0 0.1
-0.61 0 0.1
-0.6 0 0.1
-0.59 0 0.1
-0.58 0 0.1
-0.57 0 0.1
-0.56 0 0.1
-0.55 0 0.1
-0.54 0 0.1
-0.53 0 0.1
-0.52 0 0.1
-0.51 0 0.1
-0.5 0 0.1
-0.49 0 0.1
-0.48 0 0.1
-0.47 0 0.1
-0.46 0 0.1
-0.45 0 0.1
-0.44 0 0.1
-0.43 0 0.1
-0.42 0 0.1
-0.41 0 0.1
-0.4 0 0.1
-0.39 0 0.1
-0.38 0 0.1
-0.37 0 0.1
-0.36 0 0.1
-0.35 0 0.1
-0.34 0 0.1
-0.33 0 0.1
-0.32 0 0.1
-0.31 0 0.1
-0.3 0 0.1
-0.29 0 0.1
-0.28 0 0.1
-0.27 0 0.1
-0.26 0 0.1
-0.25 0 0.1
-0.24 0 0.1
-0.23 0 0.1
-0.22 0 0.1
-0.21 0 0.1
-0.2 0 0.1
-0.19 0 0.1
-0.18 0 0.1
-0.17 0 0.1
-0.16 0 0.1
-0.15 0 0.1
-0.14 0 0.1
-0.13 0 0.1
-0.12 0 0.1
-0.11 0 0.1
-0.1 0 0.1
-0.09 0 0.1
-0.08 0 0.1
-0.07 0 0.1
-0.06 0 0.1
-0.05 0 0.1
-0.04 0 0.1
-0.03 0 0.1
-0.02 0 0.1
-0.01 0 0.1
0.00921362 0.00379763 0.1
0.0184561 0.00752451 0.1
0.0277268 0.0111804 0.1
0.0370253 0.0147652 0.1
0.0463511 0.0182786 0.1
0.0557034 0.0217203 0.1
0.0650819 0.0250903 0.1
0.074486 0.0283883 0.1
0.083915 0.0316141 0.1
0.0933685 0.0347675 0.1
0.102846 0.0378484 0.1
0.112347 0.0408565 0.1
0.12187 0.0437917 0.1
0.131416 0.0466538 0.1
0.140983 0.0494427 0.1
0.150572 0.0521581 0.1
0.160181 0.0547999 0.1
0.16981 0.0573681 0.1
0.179458 0.0598623 0.1
0.189125 0.0622825 0.1
0.198811 0.0646285 0.1
0.208514 0.0669001 0.1
0.218234 0.0690974 0.1
0.227971 0.07122 0.1
0.237724 0.073268 0.1
0.247493 0.0752411 0.1
0.257276 0.0771393 0.1
0.267073 0.0789625 0.1
0.276884 0.0807105 0.1
0.286708 0.0823832 0.1
0.296545 0.0839806 0.1
0.306394 0.0855025 0.1
0.316254 0.0869488 0.1
0.326125 0.0883196 0.1
0.336006 0.0896146 0.1
0.345896 0.0908339 0.1
0.355796 0.0919773 0.1
0.365704 0.0930447 0.1
0.375621 0.0940362 0.1
0.385544 0.0949517 0.1
0.395474 0.095791 0.1
0.40541 0.0965542 0.1
0.415352 0.0972412 0.1
0.425299 0.097852 0.1
0.43525 0.0983865 0.1
0.445205 0.0988447 0.1
0.455164 0.0992266 0.1
0.465125 0.0995321 0.1
0.475088 0.0997613 0.1
0.485052 0.0999141 0.1
0.495017 0.0999904 0.1
0.504983 0.0999904 0.1
0.514948 0.0999141 0.1
0.524912 0.0997613 0.1
0.534875 0.0995321 0.1
0.544836 0.0992266 0.1
0.554795 0.0988447 0.1
0.56475 0.0983865 0.1
0.574701 0.097852 0.1
0.584648 0.0972412 0.1
0.59459 0.0965542 0.1
0.604526 0.095791 0.1
0.614456 0.0949517 0.1
0.624379 0.0940362 0.1
0.634296 0.0930447 0.1
0.644204 0.0919773 0.1
0.654104 0.0908339 0.1
0.663994 0.0896146 0.1
0.673875 0.0883196 0.1
0.683746 0.0869488 0.1
0.693606 0.0855025 0.1
0.703455 0.0839806 0.1
0.713292 0.0823832 0.1
0.723116 0.0807105 0.1
0.732927 0.0789625 0.1
0.742724 0.0771393 0.1
0.752508 0.0752411 0.1
0.762276 0.073268 0.1
0.772029 0.07122 0.1
0.781766 0.0690974 0.1
0.791486 0.0669001 0.1
0.801189 0.0646285 0.1
0.810875 0.0622825 0.1
0.820542 0.0598623 0.1
0.83019 0.0573681 0.1
0.839819 0.0547999 0.1
0.849428 0.0521581 0.1
0.859017 0.0494427 0.1
0.868584 0.0466538 0.1
0.87813 0.0437917 0.1
0.887653 0.0408565 0.1
0.897154 0.0378484 0.1
0.906631 0.0347675 0.1
0.916085 0.0316141 0.1
0.925514 0.0283883 0.1
0.934918 0.0250903 0.1
0.944297 0.0217203 0.1
0.953649 0.0182786 0.1
0.962975 0.0147652 0.1
0.972273 0.0111804 0.1
0.981544 0.00752451 0.1
0.990786 0.00379763 0.1
1.01 0 0.1
1.02 0 0.1
1.03 0 0.1
1.04 0 0.1
1.05 0 0.1
1.06 0 0.1
1.07 0 0.1
1.08 0 0.1
1.09 0 0.1
1.1 0 0.1
1.11 0 0.1
1.12 0 0.1
1.13 0 0.1
1.14 0 0.1
1.15 0 0.1
1.16 0 0.1
1.17 0 0.1
1.18 0 0.1
1.19 0 0.1
1.2 0 0.1
1.21 0 0.1
1.22 0 0.1
1.23 0 0.1
1.24 0 0.1
1.25 0 0.1
1.26 0 0.1
1.27 0 0.1
1.28 0 0.1
1.29 0 0.1
1.3 0 0.1
1.31 0 0.1
1.32 0 0.1
1.33 0 0.1
1.34 0 0.1
1.35 0 0.1
1.36 0 0.1
1.37 0 0.1
1.38 0 0.1
1.39 0 0.1
1.4 0 0.1
1.41 0 0.1
1.42 0 0.1
1.43 0 0.1
1.44 0 0.1
1.45 0 0.1
1.46 0 0.1
1.47 0 0.1
1.48 0 0.1
1.49 0 0.1
1.5 0 0.1
1.51 0 0.1
1.52 0 0.1
1.53 0 0.1
1.54 0 0.1
1.55 0 0.1
1.56 0 0.1
1.57 0 0.1
1.58 0 0.1
1.59 0 0.1
1.6 0 0.1
1.61 0 0.1
1.62 0 0.1
1.63 0 0.1
1.64 0 0.1
1.65 0 0.1
1.66 0 0.1
1.67 0 0.1
1.68 0 0.1
1.69 0 0.1
1.7 0 0.1
1.71 0 0.1
1.72 0 0.1
1.73 0 0.1
1.74 0 0.1
1.75 0 0.1
1.76 0 0.1
1.77 0 0.1
1.78 0 0.1
1.79 0 0.1
1.8 0 0.1
1.81 0 0.1
1.82 0 0.1
1.83 0 0.1
1.84 0 0.1
1.85 0 0.1
1.86 0 0.1
1.87 0 0.1
1.88 0 0.1
[...]
CELL_DATA 7425
SCALARS rho float
LOOKUP_TABLE default
0.587046
0.805026
0.819495
0.827471
0.79937
0.819094
0.820867
0.81406
0.812902
0.738578
0.863465
0.810013
0.813821
0.827327
0.803666
0.817087
0.798706
0.813186
0.803461
0.767217
0.831227
0.822028
0.724727
0.827999
0.803866
0.702893
0.83116
0.848195
0.800153
0.807908
0.819323
0.725534
0.803607
0.651994
0.51904
0.827965
0.803499
0.814036
0.811122
0.827962
0.715874
0.703017
0.789934
0.702367
0.586327
0.748169
0.799254
0.813754
0.661118
0.719311
0.746302
0.805143
0.812339
0.799029
0.709901
0.62223
0.822858
0.800058
0.738449
0.70084
0.709309
0.807647
0.813156
0.799337
0.798762
0.817545
0.584243
0.773232
0.70485
0.807824
0.804138
0.803198
0.883383
0.8211
0.810823
0.812962
0.805039
0.800429
0.813163
0.75773
0.815911
0.807226
0.810212
0.788631
0.835869
0.801048
0.574329
0.829913
0.542333
0.848445
0.707028
0.729685
0.845159
0.803169
0.817335
0.758131
0.836001
0.787994
0.825575
0.802426
0.808031
0.73866
0.803279
0.828194
0.597128
0.81105
0.824322
0.707365
0.814925
0.799117
0.816644
0.784507
0.789753
0.812417
0.789666
0.786289
0.83121
0.803101
0.700246
0.629481
0.805038
0.777218
0.812865
0.79038
0.858905
0.838773
0.807682
0.804227
0.661113
0.50385
0.814404
0.654948
0.514927
0.867596
0.661428
0.799465
0.811085
0.723479
0.581887
0.72469
0.723153
0.809563
0.809565
0.707402
0.803107
0.779578
0.565356
0.788448
0.782534
0.827717
0.816718
0.70417
0.802857
0.744297
0.705307
0.803268
0.810414
0.830361
0.797513
0.651876
0.802491
0.703645
0.801053
0.829694
0.820399
0.802366
0.812985
0.784766
0.806263
0.800599
0.819648
0.804425
0.791115
0.79908
0.799842
0.740014
0.803646
0.758637
0.593903
0.706939
0.799631
0.792652
0.879775
0.8318
0.612707
0.822871
0.798586
0.827264
0.799825
0.813329
0.812527
0.803185
0.806929
0.704689
0.814941
0.819197
0.770058
0.797088
0.861028
0.807751
0.811795
0.811088
0.612777
0.838824
0.572905
0.53158
0.595384
0.600259
0.828095
0.879309
0.807515
0.798641
0.841347
0.812889
0.816617
0.820708
0.815133
0.637942
0.548636
0.813651
0.545369
0.592363
0.703539
0.81163
0.813993
0.812962
0.833089
0.812829
0.864108
0.710097
0.835179
0.712469
0.805155
0.803914
0.801944
0.713836
0.720315
0.61944
0.705731
0.863588
0.875282
0.806171
0.807684
0.798807
0.811489
0.715679
0.82155
0.800138
0.825641
0.794603
0.809773
0.721433
0.81273
0.823681
0.739666
0.528358
0.799817
0.736439
0.843256
0.814273
0.726642
0.81551
0.81477
0.849918
0.809438
0.803812
0.803247
0.825599
0.860728
0.805382
0.6192
0.84885
0.81193
0.805591
0.82749
0.837298
0.812913
0.821376
0.793479
0.815002
0.866509
0.849913
0.82728
0.836693
0.802653
0.817095
0.803187
0.759677
0.701121
0.580782
0.70107
0.802286
0.812812
0.815919
0.854618
0.779624
0.645683
0.827028
0.520616
0.774232
0.800928
0.646342
0.494941
0.63904
0.815128
0.813158
0.812887
0.81265
0.826663
0.774402
0.811464
0.802658
0.812825
0.840668
0.867006
0.833511
0.802713
0.706421
0.795843
0.834247
0.691511
0.798695
0.802035
0.864755
0.817035
0.59296
0.813318
0.740388
0.852212
0.731909
0.810034
0.907642
0.799816
0.795586
0.658886
0.635504
0.711842
0.780519
0.826488
0.814864
0.813618
0.882306
0.858075
0.799485
0.799118
0.826008
0.73913
0.802506
0.879362
0.801374
0.804642
0.800649
0.80256
0.812892
0.815653
0.816306
0.636084
0.82993
0.645352
0.808422
0.6392
0.802564
0.802226
0.840221
0.72857
0.81633
0.808506
0.816916
0.799456
0.802488
0.811223
0.696567
0.824448
0.812981
0.812854
0.800672
0.736798
0.559847
0.806402
0.810945
0.803183
0.812814
0.794681
0.502772
0.845957
0.81324
0.803841
0.785677
0.813185
0.804633
0.802991
0.816171
0.807499
0.822452
0.768557
0.812612
0.807757
0.56257
0.803066
0.64005
0.838723
0.636164
0.81463
0.877875
0.59299
0.818047
0.748891
0.804403
0.873319
0.533532
0.823065
0.822202
0.803489
0.825684
0.811026
0.823402
0.830587
0.824782
0.7396
0.827468
0.76166
0.81017
0.79422
0.793579
0.758532
0.805587
0.802082
0.814405
0.752138
0.80467
0.604346
0.614139
0.688875
0.812736
0.844158
0.864807
0.829831
0.79853
0.812563
0.804851
0.818466
0.68044
0.800944
0.742884
0.824015
0.814733
0.805335
0.711945
0.727162
0.533534
0.605536
0.801247
0.611313
0.792528
0.765338
0.769997
0.727135
0.762402
0.767469
0.809364
0.814862
0.81949
0.811389
0.710368
0.601983
0.838989
0.806869
0.783117
0.809775
0.802538
0.836513
0.718011
0.85525
0.763665
0.728203
0.764448
0.811443
0.544869
0.798778
0.841574
0.813252
0.813712
0.809645
0.799115
0.780233
0.835663
0.803102
0.842933
0.721037
0.707551
0.800305
0.795104
0.821964
0.708633
0.847923
0.800371
0.815987
0.798681
0.779143
0.808206
0.594536
0.677368
0.632352
0.812863
0.803774
0.826303
0.749202
0.810584
0.814729
0.820335
0.798927
0.72922
0.79682
0.814237
0.803193
0.703018
0.813519
0.818851
0.839984
0.810703
0.825283
0.862268
0.857244
0.743854
0.603334
0.837997
0.805766
0.84335
0.814157
0.822871
0.81345
0.813731
0.633233
0.805131
0.809252
0.812745
0.791859
0.81055
0.804716
0.860434
0.798613
0.812659
0.814646
0.871896
0.597555
0.813387
0.842356
0.883299
0.530342
0.81634
0.829902
0.796127
0.814734
0.794907
0.867571
0.812154
0.831302
0.812655
0.619282
0.802384
0.804139
0.690709
0.853112
0.75977
0.801792
0.813908
0.81264
0.859621
0.795336
0.833574
0.834677
0.784235
0.825142
0.842289
0.799695
0.810439
0.806907
0.805306
0.814787
0.802627
0.845188
0.76922
0.809769
0.803151
0.815173
0.72307
0.812819
0.818295
0.752555
0.813514
0.816305
0.827511
0.825066
0.800677
0.800627
0.850472
0.767939
0.825078
0.84417
0.804549
0.50548
0.812825
0.828231
0.85236
0.812583
0.803146
0.808513
0.855019
0.780072
0.802578
0.801199
0.812861
0.727017
0.80269
0.829967
0.807963
0.794957
0.793459
0.843161
0.806598
0.845289
0.802017
0.824199
0.812696
0.80421
0.841823
0.812795
0.679342
0.818722
0.80709
0.812768
0.906133
0.80078
0.815844
0.800459
0.800369
0.816143
0.800475
0.803352
0.783727
0.747326
0.806445
0.812823
0.757973
0.791352
0.822972
0.813007
0.822205
0.80629
0.825724
0.875285
0.830604
0.574617
0.708755
0.840716
0.81723
0.844123
0.8147
0.850072
0.807289
0.812362
0.79931
0.838372
0.860904
0.85276
0.731461
0.814023
0.822128
0.743991
0.81705
0.775905
0.800198
0.733014
0.816005
0.830821
0.823449
0.861761
0.814151
0.81323
0.810124
0.814582
0.835758
0.812189
0.798623
0.810222
0.737487
0.811278
0.774182
0.832801
0.812715
0.638739
0.777613
0.811099
0.799143
0.819773
0.802434
0.814615
0.817242
0.804428
0.819345
0.804157
0.805802
0.597111
0.847009
0.825084
0.826657
0.814871
0.803216
0.701791
0.806435
0.907824
0.813527
0.800988
0.81282
0.782257
0.807207
0.813223
0.821236
0.814626
0.81316
0.816181
0.702156
0.777802
0.764532
0.812593
0.80529
0.800984
0.621261
0.805667
0.802595
0.708132
0.837149
0.817143
0.802167
0.807411
0.79937
0.817195
0.813895
0.813221
0.812806
0.709634
0.831658
0.800269
0.807362
0.842759
0.817571
0.816237
0.800143
0.75364
0.82379
0.787369
0.821385
0.789395
0.805589
0.820902
0.737506
0.817355
0.650342
0.872005
0.704277
0.844972
0.800754
0.875139
0.793665
0.801657
0.82062
0.836179
0.838383
0.825428
0.819776
0.814654
0.801085
0.804171
0.808223
0.725627
0.82721
0.800076
0.719705
0.830497
0.706545
0.79996
0.86032
0.805572
0.70128
0.797829
0.814025
0.705098
0.785654
0.819333
0.831823
0.806907
0.572787
0.728526
0.812373
0.801284
0.812855
0.800636
0.737175
0.813954
0.81566
0.812423
0.775323
0.80326
0.804484
0.803528
0.560343
0.812643
0.834078
0.579659
0.815107
0.816047
0.814638
0.818307
0.814362
0.824492
0.799039
0.79511
0.771033
0.822869
0.829639
0.825079
0.834823
0.765307
0.808942
0.724301
0.772356
0.808758
0.821023
0.813221
0.800966
0.858211
0.81286
0.800287
0.809534
0.81604
0.81513
0.836592
0.814434
0.81274
0.81197
0.813757
0.800098
0.820946
0.803758
0.822781
0.813404
0.575391
0.813451
0.834424
0.857996
0.838153
0.490528
0.816753
0.804489
0.496373
0.669255
0.64299
0.834262
0.807939
0.81164
0.812735
0.803202
0.816694
0.810932
0.534426
0.686361
0.818214
0.806617
0.815558
0.803502
0.810223
0.810844
0.820189
0.799485
0.692133
0.855847
0.803148
0.814704
0.813562
0.757737
0.485462
0.832853
0.813513
0.74201
0.802699
0.806159
0.590734
0.827488
0.814726
0.827677
0.818729
0.82593
0.804723
0.719293
0.643489
0.561961
0.825271
0.808469
0.782975
0.812905
0.779749
0.817836
0.873295
0.762327
0.82156
0.813467
0.825793
0.883546
0.814383
0.811772
0.803254
0.813854
0.691632
0.828165
0.799848
0.810116
0.802196
0.78423
0.854132
0.821993
0.840455
0.821474
0.757599
0.755867
0.803266
0.818051
0.80306
0.805236
0.802575
0.775602
0.814626
0.761527
0.821096
0.661995
0.813913
0.80295
0.73577
0.823222
0.817931
0.739945
0.801153
0.757169
0.880557
0.800716
0.812771
0.762635
0.800042
0.814212
0.803942
0.589762
0.820903
0.798623
0.801298
0.814466
0.825569
0.757077
0.805479
0.841561
0.826884
0.814071
0.835799
0.701117
0.700088
0.812856
0.744115
0.822169
0.77133
0.812763
0.802509
0.810361
0.751912
0.794183
0.764279
0.809833
0.80314
0.631123
0.778981
0.799228
0.848938
0.814308
0.828607
0.526287
0.825317
0.785105
0.858709
0.800933
0.817952
0.800239
0.785744
0.798705
0.825668
0.835735
0.821727
0.817065
0.707059
0.773785
0.81531
0.805372
0.80991
0.8039
0.707031
0.79279
0.803439
0.810604
0.827125
0.851185
0.831809
0.813401
0.799387
0.804194
0.801995
0.779606
0.611518
0.800277
0.731211
0.661829
0.822759
0.798805
0.777271
0.799937
0.754117
0.785275
0.811386
0.822136
0.8033
0.815952
0.817309
0.820627
0.813325
0.808436
0.712096
0.699331
0.640829
0.829235
0.869545
0.815329
0.841311
0.847806
0.863716
0.735573
0.816538
0.862988
0.810146
0.8128
0.81615
0.732719
0.812367
0.806604
0.806143
0.517055
0.812896
0.761132
0.813091
0.81377
0.803535
0.705661
0.813132
0.610518
0.824991
0.802241
0.822206
0.855134
0.803423
0.795355
0.820881
0.811516
0.805681
0.762208
0.509584
0.820845
0.803074
0.828869
0.825715
0.802048
0.807014
0.83443
0.72075
0.500143
0.886245
0.800539
0.81563
0.804313
0.71056
0.798586
0.79996
0.815003
0.73597
0.646425
0.883232
0.714086
0.836509
0.81192
0.832846
0.842627
0.792124
0.804736
0.813532
0.852754
0.738266
0.870683
0.813953
0.562681
0.802408
0.748945
0.852881
0.760233
0.804208
0.803946
0.799588
0.80157
0.808814
0.812835
0.855478
0.805937
0.802862
0.801304
0.799962
0.812168
0.816815
0.802612
0.812412
0.849174
0.803094
0.783407
0.802229
0.839525
0.724885
0.813563
0.813762
0.636393
0.713034
0.805531
0.822974
0.803501
0.511485
0.856245
0.813149
0.832933
0.805296
0.803307
0.801322
0.786194
0.587076
0.804281
0.816041
0.835959
0.820511
0.812878
0.798108
0.74686
0.801555
0.765712
0.787512
0.799286
0.790943
0.751068
0.800799
0.811402
0.810305
0.832164
0.848994
0.553083
0.841865
0.81277
0.820832
0.801961
0.82264
0.811003
0.894599
0.800196
0.867012
0.805673
0.759707
0.862099
0.802269
0.800234
0.824112
0.660317
0.645202
0.803388
0.803845
0.705337
0.654221
0.799892
0.823801
0.812959
0.822536
0.732865
0.817143
0.812771
0.826083
0.816896
0.811929
0.81279
0.754532
0.803845
0.815618
0.811257
0.676149
0.566306
0.812828
0.649922
0.721869
0.554963
0.841359
0.800076
0.526696
0.600659
0.827479
0.908056
0.818089
0.65223
0.814094
0.786388
0.801676
0.78634
0.820591
0.81005
0.788259
0.821003
0.800954
0.587531
0.817767
0.766619
0.81587
0.701071
0.822168
0.789591
0.813885
0.799998
0.66279
0.843483
0.80651
0.806559
0.493278
0.816773
0.800339
0.852084
0.711407
0.817027
0.583595
0.718756
0.801362
0.79662
0.732619
0.71545
0.716087
0.506702
0.588948
0.799936
0.517241
0.822547
0.519839
0.757142
0.671107
0.598788
0.540342
0.745379
0.803077
0.715322
0.821243
0.800906
0.802905
0.761144
0.889662
0.798995
0.824431
0.803419
0.812716
0.705894
0.807518
0.73664
0.821857
0.886021
0.833533
0.747655
0.822737
0.770441
0.879884
0.804187
0.758616
0.850651
0.776812
0.799918
0.805235
0.758183
0.744514
0.664948
0.804975
0.803018
0.817853
0.833447
0.611392
0.807856
0.53789
0.668512
0.616036
0.818454
0.820988
0.808933
0.803967
0.615584
0.872438
0.802672
0.802942
0.863489
0.812351
0.771981
0.812088
0.80236
0.817844
0.803142
0.716978
0.803328
0.655099
0.798958
0.804044
0.801531
0.639081
0.811483
0.810264
0.725616
0.817741
0.54895
0.576565
0.804135
0.69641
0.725886
0.571969
0.723518
0.813555
0.70776
0.772939
0.716761
0.812764
0.670118
0.762058
0.806421
0.810544
0.654374
0.801935
0.895141
0.796679
0.816736
0.584929
0.693728
0.80088
0.812871
0.813944
0.851628
0.812575
0.80424
0.803716
0.803331
0.713719
0.717601
0.615511
0.771413
0.532464
0.723995
0.809854
0.814345
0.806075
0.799214
0.535128
0.809001
0.803749
0.553793
0.543088
0.746541
0.803564
0.806125
0.549173
0.798182
0.569444
0.720332
0.607659
0.813496
0.802215
0.596917
0.60818
0.867871
0.810006
0.76536
0.717759
0.621456
0.655243
0.709949
0.815953
0.759727
0.765504
0.623908
0.753811
0.809246
0.815303
0.81238
0.815409
0.865508
0.754624
0.818874
0.80332
0.851249
0.812783
0.802767
0.813007
0.722659
0.81289
0.811932
0.815124
0.811091
0.815833
0.803265
0.817867
0.810325
0.809675
0.817208
0.800104
0.816535
0.818894
0.667388
0.81855
0.868389
0.818109
0.792908
0.645822
0.85855
0.81873
0.824835
0.799493
0.811136
0.757505
0.852511
0.558824
0.726511
0.809847
0.815603
0.803865
0.803354
0.832001
0.804968
0.805168
0.815199
0.78067
0.83851
0.841907
0.815157
0.664231
0.611911
0.815702
0.81656
0.788245
0.849593
0.847224
0.810786
0.813568
0.777705
0.814022
0.817773
0.814046
0.818717
0.813034
0.81576
0.851008
0.815906
0.81444
0.817493
0.817707
0.784865
0.814057
0.803999
0.80407
0.804567
0.818509
0.811408
0.788298
0.753986
0.812598
0.806265
0.808711
0.806364
0.857742
0.803302
0.813929
0.812619
0.805147
0.558283
0.803876
0.812662
0.814954
0.810297
0.812705
0.813226
0.812947
0.810162
0.864366
0.501249
0.812735
0.841621
0.812572
0.802948
0.808389
0.814931
0.839635
0.800396
0.801156
0.812567
0.706387
0.812752
0.80817
0.807293
0.812477
0.812804
0.812948
0.813283
0.511521
0.811845
0.715615
0.885823
0.821
0.73346
0.670888
0.815294
0.803454
0.818664
0.646399
0.801633
0.813254
0.647888
0.799801
0.804079
0.815367
0.80623
0.856705
0.809835
0.606813
0.800789
0.775173
0.811197
0.889054
0.803236
0.815496
0.819273
0.832167
0.81332
0.82234
0.836296
0.634869
0.802576
0.655688
0.813671
0.81357
0.712614
0.813455
0.80476
0.713184
0.814864
0.701081
0.861041
0.784041
0.814223
0.812808
0.81335
0.667767
0.813577
0.633204
0.800157
0.792344
0.822236
0.815109
0.715912
0.766689
0.829996
0.812674
0.821256
0.821843
0.813358
0.825274
0.799451
0.551937
0.754911
0.75914
0.731485
0.837559
0.822285
0.834299
0.775962
0.802753
0.812944
0.812865
0.812869
0.774597
0.563669
0.803196
0.528245
0.808149
0.824206
0.799651
0.803749
0.812892
0.805998
0.782563
0.732143
0.813307
0.859113
0.813644
0.799242
0.736945
0.809539
0.788694
0.833678
0.503533
0.79596
0.805837
0.798823
0.688795
0.812758
0.810693
0.856972
0.568936
0.807318
0.803262
0.812743
0.612289
0.813004
0.803326
0.803394
0.803019
0.813116
0.813215
0.816035
0.812954
0.717977
0.804489
0.803193
0.812902
0.896145
0.813061
0.773929
0.841089
0.799168
0.803128
0.601218
0.812795
0.80335
0.825588
0.801949
0.866192
0.814768
0.853326
0.800288
0.820567
0.777843
0.558131
0.752624
0.794183
0.803868
0.813919
0.813724
0.555344
0.861752
0.85782
0.768401
0.757644
0.738498
0.811997
0.848337
0.812834
0.813662
0.812868
0.804262
0.726767
0.803491
0.799057
0.764221
0.824197
0.822929
0.86181
0.815574
0.81288
0.523825
0.808873
0.812839
0.800666
0.773917
0.818048
0.803105
0.812795
0.82682
0.798429
0.803546
0.801185
0.815108
0.839064
0.80232
0.799116
0.801437
0.766095
0.819791
0.566925
0.868347
0.803676
0.545576
0.803114
0.803076
0.819502
0.591196
0.60603
0.801509
0.80358
0.8008
0.860697
0.779881
0.814558
0.802926
0.865626
0.804701
0.804439
0.826264
0.815874
0.820027
0.821201
0.820249
0.867447
0.729198
0.852108
0.817118
0.653578
0.802501
0.803173
0.803625
0.821044
0.823432
0.80393
0.80104
0.800003
0.8226
0.803159
0.803592
0.799612
0.824309
0.80396
0.80197
0.806062
0.827795
0.800485
0.80148
0.824195
0.799539
0.815293
0.651174
0.826313
0.849796
0.804833
0.81949
0.803217
0.828675
0.837431
0.803388
0.821397
0.800495
0.806921
0.789531
0.802135
0.803119
0.806341
0.805863
0.804462
0.818461
0.814654
0.811214
0.831337
0.802127
0.802204
0.799854
0.788985
0.83372
0.803131
0.819218
0.815116
0.807073
0.80499
0.802942
0.838845
0.864638
0.799521
0.678863
0.80115
0.842089
0.816503
0.805068
0.804451
0.819653
0.844538
0.60113
0.828683
0.794431
0.850275
0.818644
0.811968
0.813237
0.808175
0.803943
0.812739
0.808727
0.591724
0.847926
0.794561
0.814083
0.854536
0.819192
0.763126
0.808597
0.814355
0.815373
0.802947
0.661598
0.809141
0.863107
0.802523
0.800669
0.775347
0.871181
0.800397
0.877035
0.806631
0.817074
0.820528
0.802165
0.803779
0.812499
0.815788
0.803413
0.813222
0.816646
0.881318
0.820656
0.809276
0.800081
0.828342
0.810459
0.838772
0.808764
0.806924
0.812053
0.816454
0.829846
0.813558
0.822455
0.832454
0.814098
0.699528
0.690514
0.812937
0.817653
0.80375
0.813018
0.513727
0.854827
0.799716
0.806209
0.813836
0.81338
0.803942
0.812373
0.800427
0.801167
0.807974
0.814662
0.756808
0.784587
0.822858
0.842593
0.834745
0.800207
0.805004
0.803345
0.812886
0.805661
0.799472
0.799744
0.800972
0.810845
0.797783
0.802693
0.835423
0.831246
0.729703
0.661989
0.807552
0.698385
0.79944
0.571782
0.80439
0.806894
0.803053
0.818072
0.833694
0.81382
0.812747
0.810241
0.803827
0.881487
0.81617
0.80474
0.772208
0.585527
0.810217
0.806564
0.769309
0.814313
0.813769
0.79144
0.80068
0.804014
0.623944
0.830384
0.803491
0.78142
0.779262
0.852661
0.809968
0.802826
0.802544
0.810139
0.811033
0.5184
0.801749
0.839425
0.813819
0.798544
0.588563
0.814476
0.813964
0.812834
0.833658
0.813811
0.803905
0.821805
0.805522
0.575648
0.808603
0.736424
0.798481
0.813526
0.722123
0.814824
0.845901
0.831561
0.664397
0.890875
0.78555
0.777343
0.796846
0.779494
0.808568
0.849871
0.807918
0.802843
0.813439
0.808761
0.782572
0.785889
0.813776
0.808255
0.834789
0.821186
0.835623
0.801212
0.79961
0.812932
0.856561
0.816377
0.818284
0.813234
0.60723
0.795495
0.823809
0.829283
0.865853
0.812487
0.818865
0.508428
0.80964
0.800545
0.8125
0.814657
0.847528
0.812937
0.811064
0.881466
0.764474
0.812512
0.813124
0.808923
0.80519
0.81412
0.655818
0.800476
0.849471
0.833457
0.810525
0.813464
0.813254
0.809543
0.69877
0.812399
0.800112
0.838499
0.81838
0.811524
0.831254
0.792643
0.811453
0.817718
0.808731
0.819194
0.744155
0.854644
0.818869
0.8137
0.81294
0.812587
0.815617
0.817059
0.812633
0.810687
0.84101
0.818498
0.800103
0.825228
0.82687
0.815958
0.814418
0.800315
0.801477
0.812929
0.818929
0.829349
0.812679
0.816358
0.799774
0.80986
0.812716
0.812683
0.802484
0.814557
0.813215
0.803216
0.812739
0.835584
0.800001
0.80933
0.821443
0.559791
0.814104
0.818067
0.815423
0.814906
0.821876
0.828748
0.815519
0.818739
0.701359
0.81294
0.801297
0.815512
0.818915
0.835006
0.821472
0.815473
0.829289
0.824853
0.810558
0.819153
0.819444
0.80413
0.813039
0.815499
0.819396
0.832034
0.812512
0.815593
0.802705
0.812812
0.812933
0.522293
0.627472
0.814317
0.821347
0.801687
0.82238
0.815801
0.8418
0.708044
0.813631
0.730358
0.817316
0.810211
0.813044
0.829274
0.813542
0.804805
0.812798
0.830011
0.839206
0.81268
0.719123
0.819211
0.815927
0.799875
0.80302
0.815203
0.855873
0.812529
0.813256
0.849638
0.82893
0.84321
0.573157
0.829028
0.813831
0.810793
0.817298
0.850413
0.817663
0.718329
0.799493
0.831694
0.799719
0.799683
0.80536
0.747772
0.81328
0.814236
0.72533
0.814248
0.827273
0.813201
0.813923
0.799172
0.818277
0.812863
0.823459
0.808677
0.808112
0.814869
0.705291
0.818976
0.81397
0.812848
0.639746
0.718811
0.599253
0.823208
0.529238
0.85372
0.72726
0.842732
0.812409
0.722573
0.821343
0.815779
0.742491
0.807625
0.818253
0.794389
0.81642
0.815757
0.815686
0.812864
0.807782
0.803649
0.737232
0.836047
0.820073
0.816506
0.799181
0.81537
0.801944
0.815901
0.813345
0.854515
0.817671
0.496707
0.8132
0.818689
0.818561
0.778017
0.815682
0.806703
0.818514
0.84526
0.596295
0.809044
0.799253
0.815212
0.817518
0.817588
0.812332
0.818498
0.813752
0.814476
0.80306
0.814172
0.846044
0.813824
0.791982
0.811379
0.622419
0.718748
0.812942
0.81689
0.802909
0.822206
0.73543
0.803144
0.803179
0.820107
0.619505
0.817491
0.799301
0.815306
0.864555
0.785456
0.821852
0.817874
0.822691
0.813905
0.76955
0.802409
0.81345
0.902275
0.8271
0.816321
0.832146
0.80949
0.868089
0.719411
0.685874
0.852247
0.802693
0.659338
0.850211
0.786016
0.83193