# vtk DataFile Version 1.0
unstructured grid
ascii
DATASET UNSTRUCTURED_GRID
points 7812 float
-1 0 0
-1 1 0
2 0 0
2 1 0
0 0 0
1 0 0
-1 1 0.1
-1 0 0.1
0 0 0.1
1 0 0.1
2 0 0.1
2 1 0.1
-0.99 0 0
-0.98 0 0
-0.97 0 0
-0.96 0 0
-0.95 0 0
-0.94 0 0
-0.93 0 0
-0.92 0 0
-0.91 0 0
-0.9 0 0
-0.89 0 0
-0.88 0 0
-0.87 0 0
-0.86 0 0
-0.85 0 0
-0.84 0 0
-0.83 0 0
-0.82 0 0
-0.81 0 0
-0.8 0 0
-0.79 0 0
-0.78 0 0
-0.77 0 0
-0.76 0 0
-0.75 0 0
-0.74 0 0
-0.73 0 0
-0.72 0 0
-0.71 0 0
-0.7 0 0
-0.69 0 0
-0.68 0 0
-0.67 0 0
-0.66 0 0
-0.65 0 0
-0.64 0 0
-0.63 0 0
-0.62 0 0
-0.61 0 0
-0.6 0 0
-0.59 0 0
-0.58 0 0
-0.57 0 0
-0.56 0 0
-0.55 0 0
-0.54 0 0
-0.53 0 0
-0.52 0 0
-0.51 0 0
-0.5 0 0
-0.49 0 0
-0.48 0 0
-0.47 0 0
-0.46 0 0
-0.45 0 0
-0.44 0 0
-0.43 0 0
-0.42 0 0
-0.41 0 0
-0.4 0 0
-0.39 0 0
-0.38 0 0
-0.37 0 0
-0.36 0 0
-0.35 0 0
-0.34 0 0
-0.33 0 0
-0.32 0 0
-0.31 0 0
-0.3 0 0
-0.29 0 0
-0.28 0 0
-0.27 0 0
-0.26 0 0
-0.25 0 0
-0.24 0 0
-0.23 0 0
-0.22 0 0
-0.21 0 0
-0.2 0 0
-0.19 0 0
-0.18 0 0
-0.17 0 0
-0.16 0 0
-0.15 0 0
-0.14 0 0
-0.13 0 0
-0.12 0 0
-0.11 0 0
-0.1 0 0
-0.09 0 0
-0.08 0 0
-0.07 0 0
-0.06 0 0
-0.05 0 0
-0.04 0 0
-0.03 0 0
-0.02 0 0
-0.01 0 0
1.01 0 0
1.02 0 0
1.03 0 0
1.04 0 0
1.05 0 0
1.06 0 0
1.07 0 0
1.08 0 0
1.09 0 0
1.1 0 0
1.11 0 0
1.12 0 0
1.13 0 0
1.14 0 0
1.15 0 0
1.16 0 0
1.17 0 0
1.18 0 0
1.19 0 0
1.2 0 0
1.21 0 0
1.22 0 0
1.23 0 0
1.24 0 0
1.25 0 0
1.26 0 0
1.27 0 0
1.28 0 0
1.29 0 0
1.3 0 0
1.31 0 0
1.32 0 0
1.33 0 0
1.34 0 0
1.35 0 0
1.36 0 0
1.37 0 0
1.38 0 0
1.39 0 0
1.4 0 0
1.41 0 0
1.42 0 0
1.43 0 0
1.44 0 0
1.45 0 0
1.46 0 0
1.47 0 0
1.48 0 0
1.49 0 0
1.5 0 0
1.51 0 0
1.52 0 0
1.53 0 0
1.54 0 0
1.55 0 0
1.56 0 0
1.57 0 0
1.58 0 0
1.59 0 0
1.6 0 0
1.61 0 0
1.62 0 0
1.63 0 0
1.64 0 0
1.65 0 0
1.66 0 0
1.67 0 0
1.68 0 0
1.69 0 0
1.7 0 0
1.71 0 0
1.72 0 0
1.73 0 0
1.74 0 0
1.75 0 0
1.76 0 0
1.77 0 0
1.78 0 0
1.79 0 0
1.8 0 0
1.81 0 0
1.82 0 0
1.83 0 0
1.84 0 0
1.85 0 0
1.86 0 0
1.87 0 0
1.88 0 0
1.89 0 0
1.9 0 0
1.91 0 0
1.92 0 0
1.93 0 0
1.94 0 0
1.95 0 0
1.96 0 0
1.97 0 0
1.98 0 0
1.99 0 0
2 0.010289 0
2 0.0215307 0
2 0.0338135 0
2 0.0472336 0
2 0.0618965 0
2 0.0779171 0
2 0.0954213 0
2 0.114546 0
2 0.135442 0
2 0.158274 0
2 0.183219 0
2 0.210474 0
2 0.240253 0
2 0.27279 0
2 0.308339 0
2 0.347181 0
2 0.389619 0
2 0.435987 0
2 0.486649 0
2 0.542002 0
2 0.602481 0
2 0.66856 0
2 0.740758 0
2 0.819642 0
2 0.90583 0
1.9 1 0
1.8 1 0
1.7 1 0
1.6 1 0
1.5 1 0
1.4 1 0
1.3 1 0
1.2 1 0
1.1 1 0
1 1 0
0.9 1 0
0.8 1 0
0.7 1 0
0.6 1 0
0.5 1 0
0.4 1 0
0.3 1 0
0.2 1 0
0.1 1 0
3.69793e-12 1 0
-0.1 1 0
-0.2 1 0
-0.3 1 0
-0.4 1 0
-0.5 1 0
-0.6 1 0
-0.7 1 0
-0.8 1 0
-0.9 1 0
-1 0.90583 0
-1 0.819642 0
-1 0.740758 0
-1 0.66856 0
-1 0.602481 0
-1 0.542002 0
-1 0.486649 0
-1 0.435987 0
-1 0.389619 0
-1 0.347181 0
-1 0.308339 0
-1 0.27279 0
-1 0.240253 0
-1 0.210474 0
-1 0.183219 0
-1 0.158274 0
-1 0.135442 0
-1 0.114546 0
-1 0.0954213 0
-1 0.0779171 0
-1 0.0618965 0
-1 0.0472336 0
-1 0.0338135 0
-1 0.0215307 0
-1 0.010289 0
0.00921362 0.00379763 0
0.0184561 0.00752451 0
0.0277268 0.0111804 0
0.0370253 0.0147652 0
0.0463511 0.0182786 0
0.0557034 0.0217203 0
0.0650819 0.0250903 0
0.074486 0.0283883 0
0.083915 0.0316141 0
0.0933685 0.0347675 0
0.102846 0.0378484 0
0.112347 0.0408565 0
0.12187 0.0437917 0
0.131416 0.0466538 0
0.140983 0.0494427 0
0.150572 0.0521581 0
0.160181 0.0547999 0
0.16981 0.0573681 0
0.179458 0.0598623 0
0.189125 0.0622825 0
0.198811 0.0646285 0
0.208514 0.0669001 0
0.218234 0.0690974 0
0.227971 0.07122 0
0.237724 0.073268 0
0.247493 0.0752411 0
0.257276 0.0771393 0
0.267073 0.0789625 0
0.276884 0.0807105 0
0.286708 0.0823832 0
0.296545 0.0839806 0
0.306394 0.0855025 0
0.316254 0.0869488 0
0.326125 0.0883196 0
0.336006 0.0896146 0
0.345896 0.0908339 0
0.355796 0.0919773 0
0.365704 0.0930447 0
0.375621 0.0940362 0
0.385544 0.0949517 0
0.395474 0.095791 0
0.40541 0.0965542 0
0.415352 0.0972412 0
0.425299 0.097852 0
0.43525 0.0983865 0
0.445205 0.0988447 0
0.455164 0.0992266 0
0.465125 0.0995321 0
0.475088 0.0997613 0
0.485052 0.0999141 0
0.495017 0.0999904 0
0.504983 0.0999904 0
0.514948 0.0999141 0
0.524912 0.0997613 0
0.534875 0.0995321 0
0.544836 0.0992266 0
0.554795 0.0988447 0
0.56475 0.0983865 0
0.574701 0.097852 0
0.584648 0.0972412 0
0.59459 0.0965542 0
0.604526 0.095791 0
0.614456 0.0949517 0
0.624379 0.0940362 0
0.634296 0.0930447 0
0.644204 0.0919773 0
0.654104 0.0908339 0
0.663994 0.0896146 0
0.673875 0.0883196 0
0.683746 0.0869488 0
0.693606 0.0855025 0
0.703455 0.0839806 0
0.713292 0.0823832 0
0.723116 0.0807105 0
0.732927 0.0789625 0
0.742724 0.0771393 0
0.752508 0.0752411 0
0.762276 0.073268 0
0.772029 0.07122 0
0.781766 0.0690974 0
0.791486 0.0669001 0
0.801189 0.0646285 0
0.810875 0.0622825 0
0.820542 0.0598623 0
0.83019 0.0573681 0
0.839819 0.0547999 0
0.849428 0.0521581 0
0.859017 0.0494427 0
0.868584 0.0466538 0
0.87813 0.0437917 0
0.887653 0.0408565 0
0.897154 0.0378484 0
0.906631 0.0347675 0
0.916085 0.0316141 0
0.925514 0.0283883 0
0.934918 0.0250903 0
0.944297 0.0217203 0
0.953649 0.0182786 0
0.962975 0.0147652 0
0.972273 0.0111804 0
0.981544 0.00752451 0
0.990786 0.00379763 0
-1 0.90583 0.1
-1 0.819642 0.1
-1 0.740758 0.1
-1 0.66856 0.1
-1 0.602481 0.1
-1 0.542002 0.1
-1 0.486649 0.1
-1 0.435987 0.1
-1 0.389619 0.1
-1 0.347181 0.1
-1 0.308339 0.1
-1 0.27279 0.1
-1 0.240253 0.1
-1 0.210474 0.1
-1 0.183219 0.1
-1 0.158274 0.1
-1 0.135442 0.1
-1 0.114546 0.1
-1 0.0954213 0.1
-1 0.0779171 0.1
-1 0.0618965 0.1
-1 0.0472336 0.1
-1 0.0338135 0.1
-1 0.0215307 0.1
-1 0.010289 0.1
-0.99 0 0.1
-0.98 0 0.1
-0.97 0 0.1
-0.96 0 0.1
-0.95 0 0.1
-0.94 0 0.1
-0.93 0 0.1
-0.92 0 0.1
-0.91 0 0.1
-0.9 0 0.1
-0.89 0 0.1
-0.88 0 0.1
-0.87 0 0.1
-0.86 0 0.1
-0.85 0 0.1
-0.84 0 0.1
-0.83 0 0.1
-0.82 0 0.1
-0.81 0 0.1
-0.8 0 0.1
-0.79 0 0.1
-0.78 0 0.1
-0.77 0 0.1
-0.76 0 0.1
-0.75 0 0.1
-0.74 0 0.1
-0.73 0 0.1
-0.72 0 0.1
-0.71 0 0.1
-0.7 0 0.1
-0.69 0 0.1
-0.68 0 0.1
-0.67 0 0.1
-0.66 0 0.1
-0.65 0 0.1
-0.64 0 0.1
-0.63 0 0.1
-0.62 0 0.1
-0.61 0 0.1
-0.6 0 0.1
-0.59 0 0.1
-0.58 0 0.1
-0.57 0 0.1
-0.56 0 0.1
-0.55 0 0.1
-0.54 0 0.1
-0.53 0 0.1
-0.52 0 0.1
-0.51 0 0.1
-0.5 0 0.1
-0.49 0 0.1
-0.48 0 0.1
-0.47 0 0.1
-0.46 0 0.1
-0.45 0 0.1
-0.44 0 0.1
-0.43 0 0.1
-0.42 0 0.1
-0.41 0 0.1
-0.4 0 0.1
-0.39 0 0.1
-0.38 0 0.1
-0.37 0 0.1
-0.36 0 0.1
-0.35 0 0.1
-0.34 0 0.1
-0.33 0 0.1
-0.32 0 0.1
-0.31 0 0.1
-0.3 0 0.1
-0.29 0 0.1
-0.28 0 0.1
-0.27 0 0.1
-0.26 0 0.1
-0.25 0 0.1
-0.24 0 0.1
-0.23 0 0.1
-0.22 0 0.1
-0.21 0 0.1
-0.2 0 0.1
-0.19 0 0.1
-0.18 0 0.1
-0.17 0 0.1
-0.16 0 0.1
-0.15 0 0.1
-0.14 0 0.1
-0.13 0 0.1
-0.12 0 0.1
-0.11 0 0.1
-0.1 0 0.1
-0.09 0 0.1
-0.08 0 0.1
-0.07 0 0.1
-0.06 0 0.1
-0.05 0 0.1
-0.04 0 0.1
-0.03 0 0.1
-0.02 0 0.1
-0.01 0 0.1
0.00921362 0.00379763 0.1
0.0184561 0.00752451 0.1
0.0277268 0.0111804 0.1
0.0370253 0.0147652 0.1
0.0463511 0.0182786 0.1
0.0557034 0.0217203 0.1
0.0650819 0.0250903 0.1
0.074486 0.0283883 0.1
0.083915 0.0316141 0.1
0.0933685 0.0347675 0.1
0.102846 0.0378484 0.1
0.112347 0.0408565 0.1
0.12187 0.0437917 0.1
0.131416 0.0466538 0.1
0.140983 0.0494427 0.1
0.150572 0.0521581 0.1
0.160181 0.0547999 0.1
0.16981 0.0573681 0.1
0.179458 0.0598623 0.1
0.189125 0.0622825 0.1
0.198811 0.0646285 0.1
0.208514 0.0669001 0.1
0.218234 0.0690974 0.1
0.227971 0.07122 0.1
0.237724 0.073268 0.1
0.247493 0.0752411 0.1
0.257276 0.0771393 0.1
0.267073 0.0789625 0.1
0.276884 0.0807105 0.1
0.286708 0.0823832 0.1
0.296545 0.0839806 0.1
0.306394 0.0855025 0.1
0.316254 0.0869488 0.1
0.326125 0.0883196 0.1
0.336006 0.0896146 0.1
0.345896 0.0908339 0.1
0.355796 0.0919773 0.1
0.365704 0.0930447 0.1
0.375621 0.0940362 0.1
0.385544 0.0949517 0.1
0.395474 0.095791 0.1
0.40541 0.0965542 0.1
0.415352 0.0972412 0.1
0.425299 0.097852 0.1
0.43525 0.0983865 0.1
0.445205 0.0988447 0.1
0.455164 0.0992266 0.1
0.465125 0.0995321 0.1
0.475088 0.0997613 0.1
0.485052 0.0999141 0.1
0.495017 0.0999904 0.1
0.504983 0.0999904 0.1
0.514948 0.0999141 0.1
0.524912 0.0997613 0.1
0.534875 0.0995321 0.1
0.544836 0.0992266 0.1
0.554795 0.0988447 0.1
0.56475 0.0983865 0.1
0.574701 0.097852 0.1
0.584648 0.0972412 0.1
0.59459 0.0965542 0.1
0.604526 0.095791 0.1
0.614456 0.0949517 0.1
0.624379 0.0940362 0.1
0.634296 0.0930447 0.1
0.644204 0.0919773 0.1
0.654104 0.0908339 0.1
0.663994 0.0896146 0.1
0.673875 0.0883196 0.1
0.683746 0.0869488 0.1
0.693606 0.0855025 0.1
0.703455 0.0839806 0.1
0.713292 0.0823832 0.1
0.723116 0.0807105 0.1
0.732927 0.0789625 0.1
0.742724 0.0771393 0.1
0.752508 0.0752411 0.1
0.762276 0.073268 0.1
0.772029 0.07122 0.1
0.781766 0.0690974 0.1
0.791486 0.0669001 0.1
0.801189 0.0646285 0.1
0.810875 0.0622825 0.1
0.820542 0.0598623 0.1
0.83019 0.0573681 0.1
0.839819 0.0547999 0.1
0.849428 0.0521581 0.1
0.859017 0.0494427 0.1
0.868584 0.0466538 0.1
0.87813 0.0437917 0.1
0.887653 0.0408565 0.1
0.897154 0.0378484 0.1
0.906631 0.0347675 0.1
0.916085 0.0316141 0.1
0.925514 0.0283883 0.1
0.934918 0.0250903 0.1
0.944297 0.0217203 0.1
0.953649 0.0182786 0.1
0.962975 0.0147652 0.1
0.972273 0.0111804 0.1
0.981544 0.00752451 0.1
0.990786 0.00379763 0.1
1.01 0 0.1
1.02 0 0.1
1.03 0 0.1
1.04 0 0.1
1.05 0 0.1
1.06 0 0.1
1.07 0 0.1
1.08 0 0.1
1.09 0 0.1
1.1 0 0.1
1.11 0 0.1
1.12 0 0.1
1.13 0 0.1
1.14 0 0.1
1.15 0 0.1
1.16 0 0.1
1.17 0 0.1
1.18 0 0.1
1.19 0 0.1
1.2 0 0.1
1.21 0 0.1
1.22 0 0.1
1.23 0 0.1
1.24 0 0.1
1.25 0 0.1
1.26 0 0.1
1.27 0 0.1
1.28 0 0.1
1.29 0 0.1
1.3 0 0.1
1.31 0 0.1
1.32 0 0.1
1.33 0 0.1
1.34 0 0.1
1.35 0 0.1
1.36 0 0.1
1.37 0 0.1
1.38 0 0.1
1.39 0 0.1
1.4 0 0.1
1.41 0 0.1
1.42 0 0.1
1.43 0 0.1
1.44 0 0.1
1.45 0 0.1
1.46 0 0.1
1.47 0 0.1
1.48 0 0.1
1.49 0 0.1
1.5 0 0.1
1.51 0 0.1
1.52 0 0.1
1.53 0 0.1
1.54 0 0.1
1.55 0 0.1
1.56 0 0.1
1.57 0 0.1
1.58 0 0.1
1.59 0 0.1
1.6 0 0.1
1.61 0 0.1
1.62 0 0.1
1.63 0 0.1
1.64 0 0.1
1.65 0 0.1
1.66 0 0.1
1.67 0 0.1
1.68 0 0.1
1.69 0 0.1
1.7 0 0.1
1.71 0 0.1
1.72 0 0.1
1.73 0 0.1
1.74 0 0.1
1.75 0 0.1
1.76 0 0.1
1.77 0 0.1
1.78 0 0.1
1.79 0 0.1
1.8 0 0.1
1.81 0 0.1
1.82 0 0.1
1.83 0 0.1
1.84 0 0.1
1.85 0 0.1
1.86 0 0.1
1.87 0 0.1
1.88 0 0.1
[...]
CELL_DATA 7425
SCALARS rho float
LOOKUP_TABLE default
0.587828
0.805065
0.819734
0.827672
0.799617
0.819326
0.821048
0.814346
0.813218
0.73886
0.863567
0.810096
0.814112
0.827529
0.803883
0.817342
0.798938
0.813493
0.803494
0.767379
0.83142
0.822103
0.725029
0.828203
0.8039
0.70363
0.831349
0.848557
0.800197
0.808035
0.819509
0.725261
0.80364
0.652638
0.520521
0.828169
0.803528
0.814323
0.811205
0.82815
0.716479
0.70405
0.790138
0.700973
0.587268
0.748387
0.799489
0.814046
0.663435
0.719066
0.746353
0.805182
0.812404
0.799261
0.709283
0.655242
0.823082
0.800223
0.738732
0.701238
0.710237
0.807691
0.813463
0.799556
0.798808
0.817796
0.584996
0.773465
0.703788
0.80796
0.804305
0.803217
0.883458
0.821175
0.8109
0.813277
0.805079
0.80047
0.813469
0.757856
0.816176
0.807272
0.81051
0.788843
0.836012
0.801259
0.575069
0.830093
0.543445
0.848589
0.705081
0.729978
0.845514
0.803201
0.817587
0.758548
0.836192
0.788097
0.825788
0.802662
0.808289
0.738621
0.803308
0.828383
0.597776
0.81113
0.824527
0.70787
0.815201
0.799358
0.816899
0.784648
0.789957
0.812466
0.78987
0.7864
0.831398
0.803118
0.699297
0.634641
0.805077
0.777442
0.813182
0.790476
0.859032
0.839099
0.807729
0.804419
0.661604
0.505348
0.814681
0.655595
0.51633
0.868044
0.663922
0.79971
0.81115
0.723854
0.582633
0.725316
0.723732
0.809742
0.80987
0.706762
0.803275
0.779702
0.566083
0.78873
0.782552
0.827922
0.816903
0.704749
0.803074
0.744317
0.704686
0.803299
0.810497
0.830557
0.797718
0.653146
0.802576
0.702256
0.801267
0.829892
0.820633
0.802404
0.813298
0.784979
0.806315
0.800829
0.819888
0.804667
0.791391
0.79932
0.800019
0.740521
0.803866
0.759049
0.594966
0.704152
0.799861
0.79289
0.879855
0.831976
0.629638
0.823094
0.798829
0.827537
0.800048
0.813628
0.812852
0.803219
0.806983
0.704039
0.815215
0.81943
0.77022
0.797319
0.861472
0.807807
0.811927
0.811403
0.613388
0.839154
0.573661
0.532944
0.596038
0.601952
0.8283
0.879391
0.807558
0.798686
0.841477
0.813208
0.816871
0.82094
0.815405
0.638422
0.552719
0.813945
0.546527
0.5934
0.702879
0.811895
0.814275
0.813277
0.833272
0.813156
0.864531
0.709265
0.835338
0.713363
0.80521
0.803947
0.802016
0.714243
0.720976
0.619925
0.70455
0.863706
0.875769
0.806444
0.80773
0.799048
0.811646
0.716495
0.821779
0.800383
0.825849
0.794681
0.810082
0.721307
0.813055
0.823901
0.740204
0.529347
0.800008
0.736352
0.843414
0.814551
0.726378
0.815777
0.815047
0.850037
0.809731
0.804074
0.803275
0.825812
0.860852
0.805628
0.619671
0.848992
0.812191
0.805634
0.827693
0.837444
0.813217
0.821596
0.793565
0.815277
0.866944
0.850032
0.827486
0.836871
0.80273
0.817351
0.803205
0.759807
0.701858
0.581515
0.70005
0.802526
0.813129
0.816184
0.854996
0.779751
0.646149
0.827236
0.52207
0.774458
0.801141
0.646811
0.497926
0.639512
0.815401
0.813465
0.813207
0.812942
0.826871
0.774512
0.811513
0.802693
0.813152
0.840834
0.867438
0.833692
0.802814
0.704506
0.796056
0.834392
0.69194
0.798934
0.802093
0.864863
0.817291
0.593582
0.813617
0.740921
0.852578
0.732342
0.810332
0.90769
0.80006
0.79582
0.659379
0.635992
0.711056
0.780825
0.826694
0.81514
0.813913
0.882813
0.858472
0.799728
0.799307
0.82609
0.739558
0.802578
0.879452
0.801401
0.804903
0.800878
0.802593
0.813195
0.81592
0.816566
0.636838
0.83014
0.646652
0.808577
0.639948
0.802799
0.802274
0.840361
0.729207
0.816394
0.808764
0.817171
0.799664
0.80252
0.811313
0.697704
0.824527
0.813294
0.813157
0.800704
0.736868
0.56057
0.806447
0.811256
0.80321
0.813139
0.794887
0.505809
0.846184
0.813541
0.803873
0.78589
0.813492
0.804795
0.803168
0.816434
0.807543
0.822676
0.768768
0.81279
0.80781
0.563311
0.803307
0.640522
0.838856
0.636655
0.814901
0.877968
0.59451
0.818168
0.749197
0.804444
0.873407
0.534885
0.823284
0.822428
0.803519
0.825896
0.811161
0.823623
0.830782
0.824993
0.740114
0.827674
0.76164
0.810343
0.794297
0.793792
0.758813
0.805639
0.802104
0.814651
0.7526
0.804805
0.604986
0.614756
0.689784
0.813041
0.84431
0.864924
0.830014
0.798778
0.812888
0.805
0.81868
0.680878
0.801137
0.743176
0.82417
0.814996
0.805602
0.711002
0.727537
0.534591
0.606084
0.801451
0.61184
0.792779
0.765472
0.770201
0.72682
0.762679
0.767765
0.809663
0.815138
0.81973
0.811704
0.711063
0.603733
0.839154
0.807125
0.783237
0.810043
0.802651
0.836691
0.718855
0.855384
0.763748
0.728927
0.764772
0.811713
0.545903
0.799017
0.841739
0.81343
0.814006
0.809937
0.799365
0.780542
0.835811
0.803129
0.843094
0.721309
0.70697
0.800457
0.795319
0.822189
0.709141
0.848073
0.800624
0.816248
0.798914
0.779273
0.808468
0.595163
0.677807
0.632828
0.813151
0.803955
0.826508
0.749466
0.810632
0.815007
0.820569
0.79917
0.729861
0.797086
0.814508
0.803219
0.704059
0.813816
0.819083
0.840138
0.811016
0.825497
0.86237
0.857359
0.744274
0.603941
0.838134
0.805928
0.843479
0.814442
0.823032
0.813748
0.814024
0.637896
0.805394
0.809484
0.813071
0.792061
0.810729
0.804944
0.860871
0.798859
0.812985
0.814924
0.871998
0.59817
0.813685
0.842702
0.883375
0.531359
0.816601
0.830105
0.796194
0.814796
0.79512
0.86768
0.81235
0.831495
0.812928
0.619838
0.802441
0.804179
0.691623
0.853228
0.759728
0.801863
0.814194
0.81295
0.860046
0.795404
0.833733
0.834859
0.784528
0.825295
0.842626
0.799933
0.810694
0.807158
0.805349
0.815029
0.802657
0.845336
0.769373
0.809822
0.803208
0.815359
0.723507
0.813142
0.818542
0.752816
0.813811
0.816512
0.827788
0.825278
0.800895
0.80079
0.850591
0.767883
0.825352
0.844322
0.804588
0.506956
0.81314
0.828434
0.852476
0.812849
0.803164
0.808586
0.855136
0.780085
0.802613
0.801392
0.813183
0.727752
0.802854
0.830117
0.808225
0.795032
0.793733
0.843322
0.806641
0.845415
0.802039
0.824416
0.812991
0.804247
0.841954
0.813109
0.680075
0.818966
0.807135
0.813063
0.906182
0.800927
0.816066
0.800596
0.800538
0.816406
0.800641
0.803399
0.783726
0.747429
0.806718
0.813146
0.758248
0.791621
0.823191
0.813057
0.822432
0.806417
0.825936
0.875372
0.830799
0.576257
0.709087
0.840882
0.817485
0.844272
0.814971
0.850204
0.807541
0.812544
0.799534
0.838537
0.861026
0.852898
0.731893
0.81431
0.822345
0.743822
0.817325
0.776079
0.80035
0.733408
0.816269
0.831015
0.82353
0.862211
0.814432
0.813535
0.810405
0.814855
0.835916
0.812243
0.798856
0.810271
0.737914
0.811594
0.774144
0.832972
0.812979
0.63922
0.777737
0.811331
0.799367
0.820012
0.802669
0.814888
0.817496
0.80459
0.819582
0.804193
0.806061
0.598277
0.847161
0.825295
0.826865
0.815132
0.803246
0.702153
0.806689
0.907872
0.813808
0.801241
0.813116
0.78238
0.807471
0.813507
0.821467
0.814685
0.813466
0.816444
0.700133
0.778072
0.764857
0.812903
0.805431
0.801235
0.621823
0.805923
0.802814
0.708615
0.837367
0.817397
0.802332
0.80764
0.799563
0.817444
0.814087
0.813527
0.813132
0.709963
0.831829
0.800333
0.807627
0.842993
0.817828
0.816496
0.800351
0.753748
0.823995
0.787634
0.821612
0.789493
0.805857
0.821135
0.737596
0.817578
0.651979
0.872108
0.704674
0.845128
0.801018
0.875226
0.793877
0.80177
0.820854
0.836401
0.838501
0.825624
0.820015
0.814916
0.801327
0.804229
0.808325
0.726391
0.827325
0.800116
0.719459
0.83067
0.703538
0.800209
0.860744
0.805621
0.702347
0.797908
0.814313
0.704399
0.785665
0.819571
0.831984
0.807185
0.578264
0.729237
0.812437
0.801539
0.813178
0.800844
0.737472
0.814236
0.815927
0.812744
0.775547
0.803287
0.804531
0.803791
0.561072
0.812968
0.83419
0.580795
0.81538
0.81631
0.814916
0.818554
0.814641
0.824707
0.799291
0.795171
0.771004
0.822982
0.829746
0.825187
0.835136
0.76556
0.809236
0.725053
0.772456
0.809003
0.821256
0.813523
0.801
0.858647
0.813182
0.800548
0.809832
0.816299
0.815402
0.836769
0.814715
0.813057
0.812018
0.814048
0.800356
0.821175
0.803805
0.823005
0.813703
0.576497
0.81375
0.834607
0.858417
0.838287
0.492294
0.81701
0.804689
0.497875
0.670092
0.64465
0.834428
0.808131
0.811688
0.813043
0.803217
0.816952
0.811061
0.535476
0.687244
0.818312
0.806659
0.815824
0.803534
0.810291
0.811155
0.820415
0.799676
0.693142
0.856267
0.803164
0.814765
0.813852
0.757986
0.487262
0.833041
0.813657
0.741831
0.802715
0.806414
0.592174
0.827652
0.814994
0.827881
0.818973
0.826207
0.804762
0.720128
0.643958
0.562697
0.825484
0.808736
0.782963
0.81322
0.780023
0.818086
0.873384
0.762569
0.82179
0.813748
0.826001
0.88363
0.814662
0.812073
0.803305
0.813904
0.692267
0.828368
0.800036
0.810384
0.802262
0.784329
0.854269
0.822217
0.840588
0.821704
0.757538
0.756056
0.803519
0.81829
0.803081
0.805276
0.802631
0.775892
0.8149
0.761813
0.821374
0.662444
0.814197
0.803
0.735438
0.823377
0.818145
0.740226
0.801204
0.757445
0.88108
0.800748
0.813097
0.762913
0.800296
0.814496
0.803977
0.590452
0.821067
0.798823
0.801562
0.814746
0.82577
0.757392
0.805725
0.841903
0.827164
0.814183
0.835978
0.699059
0.700454
0.813179
0.74439
0.822396
0.771559
0.813089
0.802559
0.810554
0.752179
0.794249
0.764576
0.810114
0.803157
0.631596
0.779163
0.799269
0.849304
0.81459
0.828808
0.527538
0.825398
0.785275
0.858836
0.800969
0.818085
0.800488
0.785974
0.79894
0.825865
0.835873
0.821888
0.817314
0.706544
0.774059
0.815546
0.805411
0.810226
0.803935
0.705964
0.793001
0.803584
0.810861
0.827375
0.851302
0.832001
0.813701
0.799626
0.804386
0.802161
0.779751
0.612123
0.800535
0.731708
0.662326
0.822971
0.799028
0.77726
0.800158
0.754376
0.785371
0.811713
0.822377
0.803519
0.816211
0.817514
0.820787
0.813627
0.808633
0.712421
0.699711
0.641292
0.829434
0.869649
0.815496
0.841486
0.847949
0.863817
0.736179
0.816759
0.863098
0.810374
0.813128
0.81635
0.73312
0.812633
0.806869
0.8064
0.518323
0.813214
0.76136
0.813396
0.813834
0.803566
0.705045
0.813435
0.611113
0.825148
0.80243
0.822362
0.855269
0.803457
0.795424
0.821114
0.811804
0.805796
0.762426
0.511148
0.821075
0.803119
0.829154
0.825925
0.802313
0.807058
0.83459
0.721184
0.501785
0.886321
0.800772
0.815897
0.80435
0.710083
0.798825
0.800189
0.815277
0.736562
0.646896
0.883308
0.714475
0.836686
0.812217
0.833034
0.842786
0.792396
0.804773
0.813822
0.85287
0.73855
0.870774
0.814241
0.563421
0.802658
0.748809
0.85302
0.760562
0.804244
0.803979
0.7998
0.801664
0.809107
0.813161
0.855862
0.80618
0.802882
0.801331
0.800174
0.812495
0.817073
0.802637
0.812739
0.849321
0.80311
0.783638
0.802267
0.839852
0.725636
0.813858
0.814049
0.642921
0.713424
0.805591
0.823187
0.803764
0.512904
0.856646
0.813433
0.833242
0.805336
0.803333
0.801406
0.786444
0.587658
0.804336
0.816305
0.836072
0.820746
0.813199
0.798374
0.747303
0.80161
0.766079
0.787614
0.799517
0.791025
0.751154
0.800993
0.81167
0.810599
0.83232
0.849371
0.55409
0.842029
0.813099
0.820893
0.802145
0.822717
0.811331
0.894665
0.800385
0.867461
0.805726
0.760035
0.862202
0.802309
0.800271
0.824319
0.660792
0.645685
0.803419
0.803886
0.703346
0.654689
0.799928
0.824018
0.813274
0.822761
0.733328
0.817332
0.813082
0.826294
0.81712
0.81198
0.813119
0.754797
0.80408
0.815881
0.811585
0.676559
0.567074
0.813156
0.650376
0.722179
0.55581
0.841521
0.800292
0.528248
0.601281
0.827634
0.908104
0.818336
0.652712
0.814377
0.786618
0.801866
0.78655
0.82087
0.810287
0.78836
0.821225
0.80121
0.588314
0.818016
0.766894
0.816127
0.70026
0.822393
0.78983
0.814171
0.800238
0.663252
0.843612
0.8067
0.806815
0.494974
0.81703
0.800538
0.852466
0.71104
0.817283
0.585578
0.719578
0.801547
0.796836
0.733257
0.715951
0.715472
0.508326
0.592367
0.800184
0.51885
0.822772
0.522189
0.757398
0.671959
0.601515
0.541805
0.745658
0.803096
0.714555
0.821474
0.801045
0.803057
0.761396
0.889735
0.799237
0.824646
0.803463
0.813041
0.706253
0.807746
0.736938
0.822085
0.8861
0.833699
0.747969
0.822959
0.770698
0.879963
0.804223
0.758867
0.850795
0.777059
0.799954
0.805496
0.758437
0.745036
0.667107
0.805013
0.803038
0.818092
0.83363
0.611906
0.808119
0.539087
0.668943
0.617551
0.818734
0.821219
0.809221
0.804002
0.616112
0.872527
0.802695
0.80296
0.863608
0.812679
0.772178
0.812416
0.802392
0.818094
0.803156
0.717314
0.803495
0.656376
0.799181
0.804276
0.801603
0.639541
0.811684
0.810448
0.725714
0.818003
0.549953
0.577315
0.804176
0.696791
0.726191
0.572688
0.724013
0.81385
0.706532
0.773101
0.716377
0.812934
0.670568
0.762308
0.80654
0.81082
0.655089
0.80199
0.895206
0.796759
0.816994
0.586232
0.694151
0.801141
0.813192
0.814229
0.851752
0.812883
0.804292
0.803759
0.803361
0.714132
0.717352
0.616133
0.771708
0.534203
0.723566
0.810141
0.814621
0.806318
0.799457
0.540797
0.809283
0.803783
0.554817
0.544383
0.746815
0.803597
0.806359
0.550044
0.798322
0.570248
0.721142
0.60831
0.813657
0.802393
0.59761
0.608782
0.867977
0.810143
0.765607
0.718258
0.622676
0.655701
0.70893
0.816208
0.759974
0.765467
0.624486
0.754115
0.809524
0.815572
0.812704
0.815679
0.865977
0.754959
0.819115
0.803375
0.85138
0.813111
0.802796
0.813315
0.722105
0.813142
0.812189
0.81538
0.811354
0.816086
0.803291
0.818112
0.810592
0.809948
0.817455
0.800143
0.816785
0.819137
0.667839
0.818794
0.868497
0.818355
0.792986
0.646297
0.858676
0.818974
0.82505
0.799724
0.811462
0.757474
0.852651
0.561612
0.727216
0.809898
0.815871
0.8039
0.803384
0.832192
0.805213
0.805316
0.815471
0.780884
0.838682
0.842064
0.81537
0.664685
0.614148
0.815969
0.816812
0.788529
0.849738
0.847362
0.811057
0.813823
0.777957
0.8143
0.818019
0.814326
0.818961
0.813296
0.816026
0.85115
0.816171
0.8147
0.817745
0.817955
0.784981
0.814314
0.804231
0.804333
0.804774
0.818754
0.81173
0.788529
0.753865
0.812898
0.806308
0.808999
0.806408
0.857853
0.803486
0.814205
0.812935
0.80532
0.595897
0.803916
0.81298
0.81522
0.810353
0.813025
0.813526
0.813259
0.81021
0.864467
0.502839
0.813056
0.841775
0.812887
0.803008
0.808482
0.815207
0.839804
0.800621
0.801414
0.81274
0.704144
0.813074
0.80836
0.807549
0.812783
0.813119
0.813259
0.813586
0.513066
0.811923
0.71646
0.885899
0.821219
0.733166
0.673291
0.815566
0.803678
0.818882
0.646884
0.801745
0.813558
0.64836
0.800032
0.804142
0.815646
0.80641
0.856836
0.809881
0.607413
0.800964
0.775145
0.811257
0.889128
0.803443
0.815554
0.819436
0.832309
0.813623
0.822566
0.836467
0.63538
0.8028
0.656157
0.813963
0.813865
0.712109
0.813752
0.805001
0.712825
0.81509
0.702007
0.861164
0.784235
0.814507
0.81313
0.813648
0.668393
0.813872
0.633663
0.800334
0.792433
0.822457
0.815383
0.716428
0.766696
0.830193
0.812977
0.821416
0.822071
0.813659
0.825488
0.799665
0.552734
0.75483
0.759444
0.7311
0.837734
0.82257
0.834431
0.776287
0.802782
0.81326
0.813187
0.813189
0.774771
0.564419
0.803222
0.529769
0.808352
0.824491
0.799878
0.803782
0.813165
0.806054
0.782817
0.732351
0.813609
0.859225
0.813847
0.799456
0.736763
0.809812
0.788793
0.83382
0.505417
0.796024
0.806101
0.799054
0.690325
0.813069
0.810926
0.857394
0.56965
0.807372
0.803287
0.813041
0.613537
0.813314
0.803351
0.803423
0.803047
0.813424
0.81352
0.816292
0.813269
0.717288
0.804534
0.803218
0.81322
0.896208
0.81337
0.774184
0.841314
0.799209
0.803149
0.601841
0.813116
0.803375
0.825871
0.80201
0.866304
0.814975
0.853695
0.800517
0.820799
0.777989
0.558987
0.752993
0.79443
0.804131
0.813969
0.814012
0.556193
0.861856
0.85824
0.768721
0.757719
0.738563
0.81227
0.848635
0.813153
0.813809
0.813188
0.804298
0.72671
0.803523
0.799279
0.76414
0.82441
0.823152
0.861913
0.815835
0.8132
0.527898
0.808918
0.81316
0.800848
0.774149
0.818109
0.803124
0.813096
0.827028
0.798498
0.803702
0.801324
0.815328
0.839229
0.802542
0.799325
0.801683
0.766049
0.820029
0.567708
0.868442
0.803716
0.546443
0.803306
0.803278
0.819754
0.594755
0.606676
0.801694
0.803816
0.801006
0.860802
0.780072
0.814792
0.802958
0.866088
0.804739
0.804475
0.826423
0.816109
0.820306
0.821428
0.820481
0.867543
0.729512
0.852228
0.817369
0.654061
0.802665
0.803207
0.803661
0.821275
0.823648
0.804076
0.801236
0.800213
0.822824
0.803306
0.803636
0.799834
0.824526
0.803996
0.802062
0.806104
0.827993
0.800732
0.801664
0.824471
0.799739
0.815564
0.651665
0.826523
0.849926
0.804959
0.819731
0.803262
0.828876
0.837605
0.803417
0.821625
0.800653
0.807152
0.789598
0.802218
0.80327
0.806383
0.805991
0.804672
0.818703
0.814933
0.811278
0.83153
0.802355
0.802259
0.800067
0.789018
0.833898
0.80318
0.81946
0.815389
0.807181
0.80517
0.802962
0.839007
0.86509
0.799745
0.67927
0.801279
0.842251
0.816762
0.805314
0.804487
0.819768
0.844684
0.60393
0.828979
0.794672
0.850673
0.818887
0.812045
0.813346
0.808399
0.803979
0.812827
0.8088
0.592301
0.848074
0.794696
0.81437
0.85467
0.819434
0.763371
0.808713
0.814638
0.815623
0.802995
0.662075
0.809397
0.863225
0.802721
0.800818
0.77564
0.871275
0.800535
0.877123
0.806817
0.817328
0.820762
0.802417
0.803934
0.812811
0.816053
0.803652
0.81352
0.816902
0.881402
0.820751
0.809324
0.800321
0.828522
0.810511
0.839099
0.80891
0.806968
0.812318
0.816714
0.830013
0.813846
0.822664
0.832609
0.814359
0.700371
0.691931
0.813247
0.817904
0.803999
0.813317
0.515513
0.854942
0.799908
0.80625
0.814109
0.813672
0.80399
0.812676
0.800626
0.801321
0.80817
0.814859
0.757171
0.784798
0.823079
0.842959
0.834899
0.800421
0.805241
0.803373
0.812948
0.805801
0.799693
0.799945
0.801112
0.811021
0.797855
0.802926
0.835603
0.831548
0.730299
0.68589
0.807621
0.699428
0.79968
0.574227
0.804442
0.807012
0.803262
0.81832
0.834004
0.81411
0.813065
0.810298
0.803878
0.881573
0.816433
0.80499
0.772375
0.587607
0.810265
0.806803
0.769498
0.814595
0.814061
0.791526
0.800744
0.80406
0.627549
0.830537
0.803521
0.781717
0.779408
0.852785
0.810013
0.803057
0.802793
0.81038
0.8111
0.519974
0.801879
0.839595
0.81411
0.798621
0.589514
0.814646
0.814252
0.813159
0.833843
0.814101
0.803979
0.822033
0.805783
0.576354
0.80868
0.73691
0.798535
0.813823
0.72243
0.8151
0.846263
0.83167
0.664861
0.890943
0.785663
0.777636
0.796915
0.77956
0.808722
0.850251
0.808147
0.802917
0.813738
0.809043
0.782701
0.786001
0.81406
0.808502
0.834902
0.821402
0.835741
0.801459
0.799802
0.813249
0.856692
0.816591
0.818504
0.813538
0.607798
0.795573
0.824011
0.829432
0.865966
0.812812
0.819037
0.510019
0.809927
0.800738
0.812797
0.814927
0.847667
0.813249
0.811114
0.881546
0.764729
0.812605
0.813427
0.8092
0.805241
0.814405
0.656276
0.800537
0.849616
0.833567
0.810757
0.813712
0.813557
0.809589
0.699743
0.812652
0.800351
0.838671
0.818622
0.811792
0.83142
0.792899
0.81171
0.817963
0.808991
0.819435
0.744626
0.85502
0.819112
0.813963
0.813253
0.812903
0.81587
0.817306
0.812951
0.81095
0.841167
0.818743
0.800326
0.825335
0.827057
0.816221
0.814519
0.800524
0.801605
0.813245
0.819172
0.829464
0.812999
0.816608
0.800013
0.810128
0.813037
0.812995
0.802517
0.814837
0.813516
0.803284
0.813062
0.835758
0.800054
0.809603
0.821724
0.560766
0.814387
0.818314
0.815652
0.815163
0.8221
0.828929
0.815782
0.818983
0.701735
0.813257
0.801443
0.815781
0.819172
0.835123
0.821702
0.81564
0.829488
0.825068
0.81087
0.819212
0.819724
0.804386
0.81335
0.815768
0.819515
0.832224
0.81282
0.81586
0.802736
0.813135
0.813244
0.524098
0.628447
0.814376
0.821577
0.801869
0.822593
0.816068
0.841945
0.708399
0.813926
0.730832
0.817514
0.810487
0.813354
0.829447
0.813837
0.805064
0.81312
0.830172
0.839575
0.812985
0.719455
0.819294
0.816188
0.80007
0.803041
0.815475
0.855996
0.812843
0.81356
0.849776
0.829088
0.843338
0.574741
0.829223
0.81412
0.811064
0.817552
0.85081
0.817914
0.718647
0.799712
0.8318
0.799963
0.79989
0.805474
0.748043
0.813583
0.814514
0.725824
0.814523
0.827381
0.8135
0.814201
0.799401
0.818521
0.813184
0.823739
0.808724
0.808345
0.815123
0.705922
0.819219
0.81425
0.813171
0.640514
0.718258
0.599848
0.823318
0.531528
0.854118
0.727562
0.842879
0.812715
0.723377
0.821502
0.816034
0.74277
0.807728
0.8185
0.794423
0.816673
0.816023
0.815953
0.813184
0.808064
0.803682
0.737518
0.836367
0.8203
0.81676
0.799387
0.815468
0.802201
0.816166
0.813639
0.854895
0.817918
0.49865
0.813455
0.818933
0.818807
0.778136
0.815777
0.806746
0.818605
0.845619
0.596984
0.809286
0.79949
0.815483
0.817768
0.817837
0.812642
0.818744
0.81401
0.814738
0.803089
0.814432
0.846198
0.8141
0.792024
0.811667
0.622986
0.718574
0.813258
0.817145
0.802997
0.822433
0.735483
0.80316
0.803192
0.820344
0.655235
0.817744
0.79954
0.815577
0.865006
0.785561
0.82208
0.818124
0.822971
0.814194
0.769719
0.802459
0.813744
0.902329
0.827214
0.816582
0.832256
0.809795
0.868565
0.71909
0.696862
0.852564
0.802717
0.681871
0.850517
0.786118
0.832045
0.725786
0.813786