# vtk DataFile Version 1.0
unstructured grid
ascii
DATASET UNSTRUCTURED_GRID
points 7812 float
-1 0 0
-1 1 0
2 0 0
2 1 0
0 0 0
1 0 0
-1 1 0.1
-1 0 0.1
0 0 0.1
1 0 0.1
2 0 0.1
2 1 0.1
-0.99 0 0
-0.98 0 0
-0.97 0 0
-0.96 0 0
-0.95 0 0
-0.94 0 0
-0.93 0 0
-0.92 0 0
-0.91 0 0
-0.9 0 0
-0.89 0 0
-0.88 0 0
-0.87 0 0
-0.86 0 0
-0.85 0 0
-0.84 0 0
-0.83 0 0
-0.82 0 0
-0.81 0 0
-0.8 0 0
-0.79 0 0
-0.78 0 0
-0.77 0 0
-0.76 0 0
-0.75 0 0
-0.74 0 0
-0.73 0 0
-0.72 0 0
-0.71 0 0
-0.7 0 0
-0.69 0 0
-0.68 0 0
-0.67 0 0
-0.66 0 0
-0.65 0 0
-0.64 0 0
-0.63 0 0
-0.62 0 0
-0.61 0 0
-0.6 0 0
-0.59 0 0
-0.58 0 0
-0.57 0 0
-0.56 0 0
-0.55 0 0
-0.54 0 0
-0.53 0 0
-0.52 0 0
-0.51 0 0
-0.5 0 0
-0.49 0 0
-0.48 0 0
-0.47 0 0
-0.46 0 0
-0.45 0 0
-0.44 0 0
-0.43 0 0
-0.42 0 0
-0.41 0 0
-0.4 0 0
-0.39 0 0
-0.38 0 0
-0.37 0 0
-0.36 0 0
-0.35 0 0
-0.34 0 0
-0.33 0 0
-0.32 0 0
-0.31 0 0
-0.3 0 0
-0.29 0 0
-0.28 0 0
-0.27 0 0
-0.26 0 0
-0.25 0 0
-0.24 0 0
-0.23 0 0
-0.22 0 0
-0.21 0 0
-0.2 0 0
-0.19 0 0
-0.18 0 0
-0.17 0 0
-0.16 0 0
-0.15 0 0
-0.14 0 0
-0.13 0 0
-0.12 0 0
-0.11 0 0
-0.1 0 0
-0.09 0 0
-0.08 0 0
-0.07 0 0
-0.06 0 0
-0.05 0 0
-0.04 0 0
-0.03 0 0
-0.02 0 0
-0.01 0 0
1.01 0 0
1.02 0 0
1.03 0 0
1.04 0 0
1.05 0 0
1.06 0 0
1.07 0 0
1.08 0 0
1.09 0 0
1.1 0 0
1.11 0 0
1.12 0 0
1.13 0 0
1.14 0 0
1.15 0 0
1.16 0 0
1.17 0 0
1.18 0 0
1.19 0 0
1.2 0 0
1.21 0 0
1.22 0 0
1.23 0 0
1.24 0 0
1.25 0 0
1.26 0 0
1.27 0 0
1.28 0 0
1.29 0 0
1.3 0 0
1.31 0 0
1.32 0 0
1.33 0 0
1.34 0 0
1.35 0 0
1.36 0 0
1.37 0 0
1.38 0 0
1.39 0 0
1.4 0 0
1.41 0 0
1.42 0 0
1.43 0 0
1.44 0 0
1.45 0 0
1.46 0 0
1.47 0 0
1.48 0 0
1.49 0 0
1.5 0 0
1.51 0 0
1.52 0 0
1.53 0 0
1.54 0 0
1.55 0 0
1.56 0 0
1.57 0 0
1.58 0 0
1.59 0 0
1.6 0 0
1.61 0 0
1.62 0 0
1.63 0 0
1.64 0 0
1.65 0 0
1.66 0 0
1.67 0 0
1.68 0 0
1.69 0 0
1.7 0 0
1.71 0 0
1.72 0 0
1.73 0 0
1.74 0 0
1.75 0 0
1.76 0 0
1.77 0 0
1.78 0 0
1.79 0 0
1.8 0 0
1.81 0 0
1.82 0 0
1.83 0 0
1.84 0 0
1.85 0 0
1.86 0 0
1.87 0 0
1.88 0 0
1.89 0 0
1.9 0 0
1.91 0 0
1.92 0 0
1.93 0 0
1.94 0 0
1.95 0 0
1.96 0 0
1.97 0 0
1.98 0 0
1.99 0 0
2 0.010289 0
2 0.0215307 0
2 0.0338135 0
2 0.0472336 0
2 0.0618965 0
2 0.0779171 0
2 0.0954213 0
2 0.114546 0
2 0.135442 0
2 0.158274 0
2 0.183219 0
2 0.210474 0
2 0.240253 0
2 0.27279 0
2 0.308339 0
2 0.347181 0
2 0.389619 0
2 0.435987 0
2 0.486649 0
2 0.542002 0
2 0.602481 0
2 0.66856 0
2 0.740758 0
2 0.819642 0
2 0.90583 0
1.9 1 0
1.8 1 0
1.7 1 0
1.6 1 0
1.5 1 0
1.4 1 0
1.3 1 0
1.2 1 0
1.1 1 0
1 1 0
0.9 1 0
0.8 1 0
0.7 1 0
0.6 1 0
0.5 1 0
0.4 1 0
0.3 1 0
0.2 1 0
0.1 1 0
3.69793e-12 1 0
-0.1 1 0
-0.2 1 0
-0.3 1 0
-0.4 1 0
-0.5 1 0
-0.6 1 0
-0.7 1 0
-0.8 1 0
-0.9 1 0
-1 0.90583 0
-1 0.819642 0
-1 0.740758 0
-1 0.66856 0
-1 0.602481 0
-1 0.542002 0
-1 0.486649 0
-1 0.435987 0
-1 0.389619 0
-1 0.347181 0
-1 0.308339 0
-1 0.27279 0
-1 0.240253 0
-1 0.210474 0
-1 0.183219 0
-1 0.158274 0
-1 0.135442 0
-1 0.114546 0
-1 0.0954213 0
-1 0.0779171 0
-1 0.0618965 0
-1 0.0472336 0
-1 0.0338135 0
-1 0.0215307 0
-1 0.010289 0
0.00921362 0.00379763 0
0.0184561 0.00752451 0
0.0277268 0.0111804 0
0.0370253 0.0147652 0
0.0463511 0.0182786 0
0.0557034 0.0217203 0
0.0650819 0.0250903 0
0.074486 0.0283883 0
0.083915 0.0316141 0
0.0933685 0.0347675 0
0.102846 0.0378484 0
0.112347 0.0408565 0
0.12187 0.0437917 0
0.131416 0.0466538 0
0.140983 0.0494427 0
0.150572 0.0521581 0
0.160181 0.0547999 0
0.16981 0.0573681 0
0.179458 0.0598623 0
0.189125 0.0622825 0
0.198811 0.0646285 0
0.208514 0.0669001 0
0.218234 0.0690974 0
0.227971 0.07122 0
0.237724 0.073268 0
0.247493 0.0752411 0
0.257276 0.0771393 0
0.267073 0.0789625 0
0.276884 0.0807105 0
0.286708 0.0823832 0
0.296545 0.0839806 0
0.306394 0.0855025 0
0.316254 0.0869488 0
0.326125 0.0883196 0
0.336006 0.0896146 0
0.345896 0.0908339 0
0.355796 0.0919773 0
0.365704 0.0930447 0
0.375621 0.0940362 0
0.385544 0.0949517 0
0.395474 0.095791 0
0.40541 0.0965542 0
0.415352 0.0972412 0
0.425299 0.097852 0
0.43525 0.0983865 0
0.445205 0.0988447 0
0.455164 0.0992266 0
0.465125 0.0995321 0
0.475088 0.0997613 0
0.485052 0.0999141 0
0.495017 0.0999904 0
0.504983 0.0999904 0
0.514948 0.0999141 0
0.524912 0.0997613 0
0.534875 0.0995321 0
0.544836 0.0992266 0
0.554795 0.0988447 0
0.56475 0.0983865 0
0.574701 0.097852 0
0.584648 0.0972412 0
0.59459 0.0965542 0
0.604526 0.095791 0
0.614456 0.0949517 0
0.624379 0.0940362 0
0.634296 0.0930447 0
0.644204 0.0919773 0
0.654104 0.0908339 0
0.663994 0.0896146 0
0.673875 0.0883196 0
0.683746 0.0869488 0
0.693606 0.0855025 0
0.703455 0.0839806 0
0.713292 0.0823832 0
0.723116 0.0807105 0
0.732927 0.0789625 0
0.742724 0.0771393 0
0.752508 0.0752411 0
0.762276 0.073268 0
0.772029 0.07122 0
0.781766 0.0690974 0
0.791486 0.0669001 0
0.801189 0.0646285 0
0.810875 0.0622825 0
0.820542 0.0598623 0
0.83019 0.0573681 0
0.839819 0.0547999 0
0.849428 0.0521581 0
0.859017 0.0494427 0
0.868584 0.0466538 0
0.87813 0.0437917 0
0.887653 0.0408565 0
0.897154 0.0378484 0
0.906631 0.0347675 0
0.916085 0.0316141 0
0.925514 0.0283883 0
0.934918 0.0250903 0
0.944297 0.0217203 0
0.953649 0.0182786 0
0.962975 0.0147652 0
0.972273 0.0111804 0
0.981544 0.00752451 0
0.990786 0.00379763 0
-1 0.90583 0.1
-1 0.819642 0.1
-1 0.740758 0.1
-1 0.66856 0.1
-1 0.602481 0.1
-1 0.542002 0.1
-1 0.486649 0.1
-1 0.435987 0.1
-1 0.389619 0.1
-1 0.347181 0.1
-1 0.308339 0.1
-1 0.27279 0.1
-1 0.240253 0.1
-1 0.210474 0.1
-1 0.183219 0.1
-1 0.158274 0.1
-1 0.135442 0.1
-1 0.114546 0.1
-1 0.0954213 0.1
-1 0.0779171 0.1
-1 0.0618965 0.1
-1 0.0472336 0.1
-1 0.0338135 0.1
-1 0.0215307 0.1
-1 0.010289 0.1
-0.99 0 0.1
-0.98 0 0.1
-0.97 0 0.1
-0.96 0 0.1
-0.95 0 0.1
-0.94 0 0.1
-0.93 0 0.1
-0.92 0 0.1
-0.91 0 0.1
-0.9 0 0.1
-0.89 0 0.1
-0.88 0 0.1
-0.87 0 0.1
-0.86 0 0.1
-0.85 0 0.1
-0.84 0 0.1
-0.83 0 0.1
-0.82 0 0.1
-0.81 0 0.1
-0.8 0 0.1
-0.79 0 0.1
-0.78 0 0.1
-0.77 0 0.1
-0.76 0 0.1
-0.75 0 0.1
-0.74 0 0.1
-0.73 0 0.1
-0.72 0 0.1
-0.71 0 0.1
-0.7 0 0.1
-0.69 0 0.1
-0.68 0 0.1
-0.67 0 0.1
-0.66 0 0.1
-0.65 0 0.1
-0.64 0 0.1
-0.63 0 0.1
-0.62 0 0.1
-0.61 0 0.1
-0.6 0 0.1
-0.59 0 0.1
-0.58 0 0.1
-0.57 0 0.1
-0.56 0 0.1
-0.55 0 0.1
-0.54 0 0.1
-0.53 0 0.1
-0.52 0 0.1
-0.51 0 0.1
-0.5 0 0.1
-0.49 0 0.1
-0.48 0 0.1
-0.47 0 0.1
-0.46 0 0.1
-0.45 0 0.1
-0.44 0 0.1
-0.43 0 0.1
-0.42 0 0.1
-0.41 0 0.1
-0.4 0 0.1
-0.39 0 0.1
-0.38 0 0.1
-0.37 0 0.1
-0.36 0 0.1
-0.35 0 0.1
-0.34 0 0.1
-0.33 0 0.1
-0.32 0 0.1
-0.31 0 0.1
-0.3 0 0.1
-0.29 0 0.1
-0.28 0 0.1
-0.27 0 0.1
-0.26 0 0.1
-0.25 0 0.1
-0.24 0 0.1
-0.23 0 0.1
-0.22 0 0.1
-0.21 0 0.1
-0.2 0 0.1
-0.19 0 0.1
-0.18 0 0.1
-0.17 0 0.1
-0.16 0 0.1
-0.15 0 0.1
-0.14 0 0.1
-0.13 0 0.1
-0.12 0 0.1
-0.11 0 0.1
-0.1 0 0.1
-0.09 0 0.1
-0.08 0 0.1
-0.07 0 0.1
-0.06 0 0.1
-0.05 0 0.1
-0.04 0 0.1
-0.03 0 0.1
-0.02 0 0.1
-0.01 0 0.1
0.00921362 0.00379763 0.1
0.0184561 0.00752451 0.1
0.0277268 0.0111804 0.1
0.0370253 0.0147652 0.1
0.0463511 0.0182786 0.1
0.0557034 0.0217203 0.1
0.0650819 0.0250903 0.1
0.074486 0.0283883 0.1
0.083915 0.0316141 0.1
0.0933685 0.0347675 0.1
0.102846 0.0378484 0.1
0.112347 0.0408565 0.1
0.12187 0.0437917 0.1
0.131416 0.0466538 0.1
0.140983 0.0494427 0.1
0.150572 0.0521581 0.1
0.160181 0.0547999 0.1
0.16981 0.0573681 0.1
0.179458 0.0598623 0.1
0.189125 0.0622825 0.1
0.198811 0.0646285 0.1
0.208514 0.0669001 0.1
0.218234 0.0690974 0.1
0.227971 0.07122 0.1
0.237724 0.073268 0.1
0.247493 0.0752411 0.1
0.257276 0.0771393 0.1
0.267073 0.0789625 0.1
0.276884 0.0807105 0.1
0.286708 0.0823832 0.1
0.296545 0.0839806 0.1
0.306394 0.0855025 0.1
0.316254 0.0869488 0.1
0.326125 0.0883196 0.1
0.336006 0.0896146 0.1
0.345896 0.0908339 0.1
0.355796 0.0919773 0.1
0.365704 0.0930447 0.1
0.375621 0.0940362 0.1
0.385544 0.0949517 0.1
0.395474 0.095791 0.1
0.40541 0.0965542 0.1
0.415352 0.0972412 0.1
0.425299 0.097852 0.1
0.43525 0.0983865 0.1
0.445205 0.0988447 0.1
0.455164 0.0992266 0.1
0.465125 0.0995321 0.1
0.475088 0.0997613 0.1
0.485052 0.0999141 0.1
0.495017 0.0999904 0.1
0.504983 0.0999904 0.1
0.514948 0.0999141 0.1
0.524912 0.0997613 0.1
0.534875 0.0995321 0.1
0.544836 0.0992266 0.1
0.554795 0.0988447 0.1
0.56475 0.0983865 0.1
0.574701 0.097852 0.1
0.584648 0.0972412 0.1
0.59459 0.0965542 0.1
0.604526 0.095791 0.1
0.614456 0.0949517 0.1
0.624379 0.0940362 0.1
0.634296 0.0930447 0.1
0.644204 0.0919773 0.1
0.654104 0.0908339 0.1
0.663994 0.0896146 0.1
0.673875 0.0883196 0.1
0.683746 0.0869488 0.1
0.693606 0.0855025 0.1
0.703455 0.0839806 0.1
0.713292 0.0823832 0.1
0.723116 0.0807105 0.1
0.732927 0.0789625 0.1
0.742724 0.0771393 0.1
0.752508 0.0752411 0.1
0.762276 0.073268 0.1
0.772029 0.07122 0.1
0.781766 0.0690974 0.1
0.791486 0.0669001 0.1
0.801189 0.0646285 0.1
0.810875 0.0622825 0.1
0.820542 0.0598623 0.1
0.83019 0.0573681 0.1
0.839819 0.0547999 0.1
0.849428 0.0521581 0.1
0.859017 0.0494427 0.1
0.868584 0.0466538 0.1
0.87813 0.0437917 0.1
0.887653 0.0408565 0.1
0.897154 0.0378484 0.1
0.906631 0.0347675 0.1
0.916085 0.0316141 0.1
0.925514 0.0283883 0.1
0.934918 0.0250903 0.1
0.944297 0.0217203 0.1
0.953649 0.0182786 0.1
0.962975 0.0147652 0.1
0.972273 0.0111804 0.1
0.981544 0.00752451 0.1
0.990786 0.00379763 0.1
1.01 0 0.1
1.02 0 0.1
1.03 0 0.1
1.04 0 0.1
1.05 0 0.1
1.06 0 0.1
1.07 0 0.1
1.08 0 0.1
1.09 0 0.1
1.1 0 0.1
1.11 0 0.1
1.12 0 0.1
1.13 0 0.1
1.14 0 0.1
1.15 0 0.1
1.16 0 0.1
1.17 0 0.1
1.18 0 0.1
1.19 0 0.1
1.2 0 0.1
1.21 0 0.1
1.22 0 0.1
1.23 0 0.1
1.24 0 0.1
1.25 0 0.1
1.26 0 0.1
1.27 0 0.1
1.28 0 0.1
1.29 0 0.1
1.3 0 0.1
1.31 0 0.1
1.32 0 0.1
1.33 0 0.1
1.34 0 0.1
1.35 0 0.1
1.36 0 0.1
1.37 0 0.1
1.38 0 0.1
1.39 0 0.1
1.4 0 0.1
1.41 0 0.1
1.42 0 0.1
1.43 0 0.1
1.44 0 0.1
1.45 0 0.1
1.46 0 0.1
1.47 0 0.1
1.48 0 0.1
1.49 0 0.1
1.5 0 0.1
1.51 0 0.1
1.52 0 0.1
1.53 0 0.1
1.54 0 0.1
1.55 0 0.1
1.56 0 0.1
1.57 0 0.1
1.58 0 0.1
1.59 0 0.1
1.6 0 0.1
1.61 0 0.1
1.62 0 0.1
1.63 0 0.1
1.64 0 0.1
1.65 0 0.1
1.66 0 0.1
1.67 0 0.1
1.68 0 0.1
1.69 0 0.1
1.7 0 0.1
1.71 0 0.1
1.72 0 0.1
1.73 0 0.1
1.74 0 0.1
1.75 0 0.1
1.76 0 0.1
1.77 0 0.1
1.78 0 0.1
1.79 0 0.1
1.8 0 0.1
1.81 0 0.1
1.82 0 0.1
1.83 0 0.1
1.84 0 0.1
1.85 0 0.1
1.86 0 0.1
1.87 0 0.1
1.88 0 0.1
[...]
CELL_DATA 7425
SCALARS rho float
LOOKUP_TABLE default
0.750827
0.822127
0.859513
0.863488
0.811424
0.858436
0.857614
0.860776
0.866139
0.805587
0.887046
0.832892
0.861431
0.863356
0.824137
0.85896
0.803961
0.864135
0.814614
0.818561
0.86612
0.845535
0.797311
0.864084
0.817995
0.809829
0.865767
0.868065
0.822344
0.830395
0.856689
0.79191
0.815318
0.781692
0.747983
0.864064
0.817578
0.860902
0.834206
0.863133
0.813345
0.803168
0.837844
0.765904
0.762329
0.811048
0.844677
0.861574
0.788323
0.783035
0.800163
0.823149
0.839766
0.806827
0.776509
0.754652
0.861094
0.804769
0.805595
0.791888
0.813392
0.82989
0.864304
0.80691
0.821344
0.858882
0.749321
0.828043
0.755533
0.830234
0.823787
0.808655
0.900702
0.844777
0.840391
0.866038
0.822539
0.821414
0.86411
0.807369
0.85913
0.829289
0.859163
0.827063
0.867393
0.815704
0.739772
0.864276
0.750095
0.87709
0.769115
0.800212
0.865805
0.812027
0.85883
0.829551
0.856873
0.823634
0.862637
0.822106
0.850737
0.795353
0.81689
0.863333
0.749666
0.834281
0.861046
0.804972
0.859712
0.8091
0.858414
0.824186
0.827685
0.836748
0.837756
0.823025
0.865784
0.80758
0.768073
0.777895
0.823305
0.830171
0.866463
0.826673
0.884609
0.859829
0.828818
0.847267
0.776869
0.741195
0.859463
0.782988
0.745777
0.882203
0.787227
0.81195
0.838851
0.806363
0.742037
0.80829
0.816232
0.833439
0.86017
0.774208
0.820863
0.820964
0.735883
0.839356
0.823126
0.863923
0.855056
0.769947
0.8222
0.798654
0.773231
0.819061
0.833369
0.865566
0.843614
0.793463
0.813237
0.766466
0.816029
0.865164
0.859774
0.80597
0.865517
0.834875
0.831561
0.81535
0.859577
0.826711
0.84048
0.808765
0.804597
0.814513
0.824349
0.829678
0.769045
0.764474
0.810474
0.841395
0.898159
0.865526
0.767423
0.8611
0.805498
0.850633
0.810679
0.862711
0.868321
0.812614
0.832409
0.772988
0.859598
0.858595
0.819683
0.843605
0.876227
0.828897
0.835685
0.864259
0.75465
0.859901
0.737837
0.750713
0.748099
0.777792
0.850931
0.897891
0.828796
0.821262
0.871545
0.867071
0.858286
0.85993
0.8594
0.754681
0.769169
0.861963
0.75175
0.767053
0.771158
0.854838
0.859968
0.86605
0.866994
0.869067
0.879096
0.77684
0.85604
0.814759
0.831525
0.817692
0.807686
0.80264
0.806121
0.748917
0.772027
0.887807
0.887694
0.850463
0.829082
0.844509
0.835668
0.807502
0.860429
0.815412
0.86237
0.825846
0.861454
0.784558
0.868535
0.861541
0.815964
0.738034
0.806162
0.793574
0.861984
0.859535
0.792985
0.858976
0.859866
0.877003
0.857194
0.827006
0.812105
0.862654
0.885898
0.828438
0.747872
0.877313
0.837783
0.824063
0.86356
0.868427
0.863387
0.859497
0.828005
0.859644
0.880852
0.87759
0.850267
0.86968
0.813515
0.858968
0.809516
0.808726
0.808951
0.741151
0.767708
0.846301
0.866287
0.859125
0.871903
0.823134
0.763732
0.863522
0.74958
0.827571
0.815403
0.764768
0.754203
0.756344
0.859558
0.864232
0.867051
0.860294
0.86328
0.817623
0.835829
0.821207
0.86917
0.872243
0.881807
0.867233
0.815699
0.767299
0.842768
0.86619
0.788244
0.805622
0.806574
0.887857
0.858993
0.740797
0.862675
0.816242
0.870078
0.815796
0.858917
0.918634
0.813614
0.831513
0.775598
0.76087
0.778076
0.836454
0.862979
0.859657
0.862074
0.892872
0.873695
0.811755
0.843392
0.848984
0.819652
0.833077
0.898691
0.816806
0.828098
0.815569
0.806915
0.863103
0.859206
0.858868
0.778678
0.852276
0.791268
0.839717
0.780032
0.84638
0.80656
0.859883
0.820167
0.842825
0.851173
0.858808
0.806088
0.806116
0.840666
0.807737
0.84786
0.865491
0.863093
0.818236
0.802633
0.735184
0.828051
0.86321
0.811409
0.868511
0.831016
0.754721
0.864182
0.862938
0.817769
0.835681
0.864083
0.824687
0.8207
0.859045
0.829127
0.860745
0.819099
0.852327
0.82908
0.739808
0.823899
0.757293
0.86936
0.761754
0.858681
0.897678
0.77481
0.842204
0.817962
0.825267
0.89384
0.752676
0.860944
0.860734
0.818666
0.862686
0.834899
0.861362
0.865698
0.861828
0.814853
0.863748
0.809945
0.834028
0.824753
0.841301
0.82233
0.824125
0.813768
0.855452
0.827969
0.823937
0.752753
0.756462
0.805537
0.863488
0.874153
0.888718
0.864309
0.806002
0.868164
0.824922
0.856832
0.780413
0.813686
0.809877
0.860009
0.857691
0.829621
0.77845
0.808866
0.743479
0.744058
0.81622
0.746552
0.841374
0.811996
0.819174
0.792315
0.824768
0.829399
0.858346
0.859787
0.859493
0.864306
0.812478
0.779404
0.870748
0.849644
0.824116
0.835088
0.815472
0.869551
0.814146
0.882107
0.810841
0.816543
0.829102
0.855214
0.748418
0.80608
0.872891
0.837683
0.861794
0.857375
0.810785
0.836358
0.86724
0.810904
0.873792
0.796934
0.774729
0.804715
0.842277
0.860421
0.806041
0.877108
0.817183
0.858564
0.804174
0.82279
0.832948
0.741866
0.778209
0.756765
0.859955
0.846302
0.86271
0.812237
0.834505
0.859935
0.859706
0.808134
0.820681
0.842944
0.839739
0.810865
0.808809
0.862297
0.858226
0.859657
0.863311
0.862459
0.886036
0.882262
0.821978
0.745739
0.86898
0.827235
0.873115
0.860632
0.846537
0.862686
0.861723
0.779548
0.829448
0.850572
0.868803
0.839313
0.851232
0.826753
0.876427
0.806244
0.868826
0.85988
0.893472
0.744294
0.86253
0.862493
0.900614
0.73924
0.858881
0.852311
0.824927
0.841872
0.842197
0.890342
0.852114
0.866173
0.838219
0.755258
0.809414
0.81879
0.806693
0.879773
0.810514
0.832484
0.860618
0.864472
0.875516
0.823954
0.866136
0.868311
0.837803
0.8484
0.862185
0.812123
0.835379
0.830873
0.823362
0.855442
0.807131
0.874705
0.814618
0.839492
0.814823
0.853938
0.810714
0.867984
0.859145
0.814648
0.862282
0.854944
0.850923
0.862118
0.814701
0.808721
0.87796
0.814218
0.849266
0.874126
0.824717
0.743053
0.865891
0.864234
0.879138
0.85594
0.809
0.839535
0.88056
0.821406
0.821034
0.814846
0.867797
0.816243
0.819176
0.852172
0.833378
0.825435
0.841465
0.87392
0.827763
0.87399
0.814276
0.861827
0.860933
0.818719
0.872044
0.865799
0.798599
0.859268
0.829085
0.860995
0.917413
0.80779
0.855083
0.804188
0.807721
0.858973
0.808405
0.814801
0.824085
0.800763
0.850659
0.868159
0.821359
0.840632
0.860857
0.83719
0.860733
0.827363
0.862715
0.895397
0.8657
0.770788
0.788993
0.872282
0.858945
0.873885
0.858776
0.877572
0.831397
0.85236
0.807556
0.870234
0.885895
0.880322
0.815339
0.861002
0.859986
0.799838
0.842246
0.818593
0.804184
0.814178
0.858989
0.865864
0.846989
0.877506
0.859819
0.863791
0.85567
0.859034
0.867765
0.835783
0.803697
0.834149
0.818599
0.864691
0.817897
0.866067
0.837917
0.755702
0.822257
0.83579
0.806191
0.859657
0.822016
0.859078
0.858955
0.824201
0.859069
0.821667
0.829733
0.771608
0.876509
0.86214
0.863274
0.840001
0.818785
0.788206
0.831832
0.918737
0.859354
0.819339
0.861338
0.823544
0.831856
0.859379
0.860267
0.838529
0.864135
0.859054
0.758926
0.834206
0.829269
0.864428
0.825775
0.819127
0.756798
0.829422
0.821703
0.804626
0.858509
0.858845
0.81712
0.831035
0.803249
0.858315
0.85329
0.863896
0.868644
0.789453
0.865252
0.828717
0.832038
0.861974
0.842419
0.85858
0.81071
0.804695
0.860616
0.839204
0.860139
0.82595
0.829977
0.860134
0.803369
0.856398
0.79357
0.89357
0.794348
0.875073
0.845243
0.894755
0.830339
0.810196
0.86001
0.857811
0.858224
0.861522
0.859648
0.857419
0.845518
0.831391
0.830332
0.817136
0.851575
0.820731
0.783277
0.864356
0.762515
0.815097
0.87602
0.823952
0.803623
0.831152
0.860993
0.772175
0.825427
0.859146
0.864868
0.851764
0.772293
0.81571
0.839262
0.820523
0.868021
0.813677
0.807602
0.859905
0.859214
0.867316
0.828248
0.812648
0.820352
0.826591
0.736332
0.868449
0.85505
0.763023
0.859533
0.859085
0.859871
0.859153
0.859907
0.861853
0.810646
0.82156
0.817223
0.84629
0.851695
0.848086
0.858506
0.818085
0.856751
0.819505
0.816228
0.833154
0.86018
0.863208
0.819141
0.874411
0.867796
0.844937
0.858506
0.858373
0.85941
0.869567
0.860211
0.866189
0.835544
0.861487
0.816971
0.859874
0.817183
0.861065
0.862887
0.761252
0.86269
0.868159
0.873976
0.858568
0.745797
0.858845
0.84771
0.740048
0.795826
0.791906
0.866972
0.849604
0.835561
0.864013
0.808026
0.85892
0.834597
0.744513
0.804623
0.842068
0.826859
0.858856
0.814956
0.832869
0.862869
0.858915
0.803585
0.807523
0.873343
0.80823
0.838411
0.861009
0.816829
0.74481
0.867131
0.837696
0.798414
0.810622
0.831522
0.772493
0.851941
0.858458
0.863902
0.859273
0.849939
0.821408
0.814655
0.762348
0.738498
0.862452
0.833645
0.823267
0.866104
0.835517
0.85906
0.893811
0.819627
0.860433
0.859189
0.862501
0.901634
0.859761
0.861366
0.828262
0.837979
0.801594
0.864192
0.806332
0.835834
0.809161
0.825013
0.881347
0.860377
0.870777
0.860369
0.808906
0.81398
0.82509
0.85808
0.808229
0.824459
0.829031
0.833837
0.859253
0.817694
0.845708
0.76688
0.860276
0.827887
0.795025
0.859288
0.856413
0.806726
0.834242
0.820924
0.8914
0.818498
0.868914
0.824991
0.816026
0.860477
0.819899
0.745333
0.844891
0.843959
0.845662
0.860108
0.861859
0.816896
0.828671
0.861884
0.850538
0.838065
0.869065
0.75741
0.787133
0.868027
0.809651
0.860737
0.825525
0.868724
0.809283
0.851126
0.815178
0.821874
0.827466
0.855407
0.806977
0.755458
0.820793
0.820334
0.867569
0.860358
0.864476
0.747655
0.848284
0.824572
0.884438
0.819974
0.842057
0.816344
0.837043
0.804825
0.86174
0.867303
0.845563
0.858194
0.774571
0.832004
0.855487
0.824228
0.863319
0.82174
0.773155
0.840695
0.820831
0.835641
0.852224
0.878209
0.866496
0.86288
0.810489
0.824542
0.816619
0.821415
0.75316
0.844938
0.818017
0.778103
0.8602
0.803252
0.820629
0.811119
0.815618
0.825649
0.867656
0.849093
0.846971
0.858278
0.855681
0.857588
0.863264
0.849854
0.790338
0.788578
0.759661
0.864852
0.891619
0.854062
0.86056
0.876495
0.887178
0.816453
0.855621
0.886576
0.851078
0.869455
0.854717
0.814289
0.855786
0.831087
0.83
0.74101
0.866799
0.817079
0.863685
0.840257
0.814825
0.773247
0.863441
0.751197
0.848203
0.819087
0.858564
0.881987
0.814465
0.824069
0.860088
0.858569
0.825802
0.817428
0.745634
0.859773
0.825953
0.852352
0.862563
0.846231
0.827651
0.866787
0.809046
0.748507
0.903105
0.845519
0.859256
0.82343
0.777158
0.804562
0.812132
0.859634
0.823186
0.760649
0.900858
0.800833
0.869502
0.860893
0.867123
0.873383
0.841005
0.82128
0.860996
0.879596
0.806141
0.891727
0.861042
0.741785
0.822879
0.805014
0.880435
0.826927
0.82263
0.81979
0.807583
0.807545
0.856587
0.868758
0.871853
0.829257
0.805447
0.81627
0.810047
0.868514
0.858976
0.805126
0.868864
0.877984
0.805885
0.835584
0.804814
0.860194
0.819787
0.862158
0.86047
0.776903
0.800274
0.832724
0.860407
0.826898
0.743678
0.873041
0.859276
0.855241
0.823207
0.812463
0.804157
0.838225
0.740258
0.830588
0.859081
0.856748
0.859967
0.867438
0.843659
0.816205
0.834573
0.831615
0.825813
0.808278
0.821456
0.803608
0.813253
0.842118
0.858369
0.864933
0.867368
0.747784
0.873113
0.869533
0.844497
0.817711
0.846178
0.867739
0.909278
0.84435
0.881223
0.830928
0.826532
0.885985
0.822997
0.81966
0.861004
0.768841
0.7591
0.813778
0.817081
0.757878
0.765394
0.819085
0.861387
0.866142
0.860913
0.808425
0.855211
0.86465
0.862935
0.856022
0.835853
0.869571
0.817171
0.825295
0.8585
0.86799
0.772562
0.745882
0.869622
0.763772
0.796102
0.741813
0.872523
0.811341
0.753121
0.746324
0.861692
0.918914
0.858952
0.763673
0.860132
0.837541
0.817005
0.825392
0.845505
0.851287
0.826375
0.859389
0.845401
0.752354
0.858873
0.827412
0.85799
0.769473
0.860598
0.839772
0.860578
0.813829
0.770627
0.872598
0.848863
0.830516
0.742596
0.858867
0.810975
0.869874
0.777785
0.858915
0.774636
0.817253
0.815124
0.843324
0.822306
0.809412
0.781981
0.748713
0.777254
0.814683
0.750791
0.860924
0.759752
0.817892
0.797253
0.780112
0.755897
0.811692
0.810795
0.781877
0.860274
0.808057
0.819459
0.820696
0.905767
0.808307
0.861795
0.815167
0.868547
0.791057
0.831268
0.807359
0.86057
0.903304
0.866388
0.817722
0.860804
0.828643
0.898276
0.819103
0.818031
0.878982
0.832319
0.819147
0.828968
0.818499
0.825876
0.790142
0.822438
0.812179
0.857888
0.867297
0.745818
0.832586
0.750731
0.769881
0.781558
0.843505
0.860001
0.855679
0.821272
0.749926
0.893066
0.804926
0.8052
0.887731
0.86907
0.819081
0.868741
0.804708
0.85905
0.805587
0.796884
0.821402
0.795013
0.804816
0.847345
0.804072
0.757309
0.851845
0.850898
0.797585
0.842675
0.748295
0.742082
0.825247
0.786309
0.799026
0.742215
0.813669
0.86208
0.773721
0.820626
0.78209
0.852428
0.773554
0.821252
0.827649
0.855226
0.785506
0.805178
0.909714
0.830351
0.85898
0.769651
0.789577
0.845381
0.867596
0.860315
0.878364
0.863857
0.829601
0.825914
0.813392
0.803042
0.782377
0.757954
0.83169
0.758333
0.787401
0.856474
0.859143
0.829497
0.810067
0.764213
0.854776
0.820272
0.750359
0.753914
0.811476
0.820561
0.848558
0.743846
0.83315
0.750045
0.817866
0.756379
0.842995
0.818078
0.753144
0.749813
0.890334
0.833521
0.82363
0.81071
0.781373
0.767099
0.777041
0.857816
0.818644
0.813593
0.760005
0.821082
0.8542
0.859042
0.867845
0.859346
0.879457
0.823916
0.858969
0.829902
0.878464
0.869414
0.80818
0.864303
0.787218
0.854649
0.854248
0.857163
0.854045
0.857458
0.812984
0.858447
0.853886
0.853913
0.858105
0.820812
0.85778
0.859235
0.771438
0.85908
0.890965
0.858878
0.823386
0.765686
0.884236
0.859271
0.862191
0.809889
0.867368
0.807683
0.880194
0.769705
0.820297
0.834234
0.859183
0.821838
0.813828
0.866602
0.83788
0.825526
0.859481
0.83132
0.870826
0.872608
0.854341
0.772436
0.783111
0.859091
0.858049
0.839273
0.878215
0.875722
0.836137
0.855538
0.833139
0.859203
0.858576
0.859586
0.859228
0.838263
0.859146
0.879114
0.859116
0.856915
0.859003
0.858712
0.820822
0.856279
0.825545
0.827315
0.825914
0.859196
0.866432
0.838763
0.805886
0.86214
0.826717
0.855431
0.826403
0.882472
0.822119
0.858757
0.866027
0.826285
0.752049
0.817471
0.866558
0.8402
0.833278
0.867017
0.862642
0.8653
0.833322
0.887156
0.745269
0.867406
0.872236
0.865498
0.813744
0.830646
0.859715
0.871537
0.814061
0.820246
0.852561
0.759699
0.867779
0.83165
0.831574
0.863222
0.86576
0.864999
0.863455
0.747453
0.841751
0.809719
0.902762
0.859174
0.793255
0.783572
0.859417
0.836693
0.843181
0.760401
0.81045
0.863632
0.762025
0.811696
0.819418
0.840829
0.848273
0.883033
0.833279
0.748206
0.811236
0.818595
0.8372
0.905304
0.847028
0.840817
0.843468
0.865318
0.863279
0.860834
0.868871
0.762501
0.84666
0.766922
0.861679
0.861882
0.778774
0.862122
0.847729
0.779113
0.854579
0.7945
0.885994
0.824099
0.860587
0.867706
0.862382
0.788913
0.862201
0.754202
0.807049
0.828131
0.860415
0.859583
0.79816
0.813299
0.865311
0.862834
0.858107
0.860535
0.863074
0.862436
0.807146
0.739678
0.808533
0.817331
0.792799
0.870213
0.846938
0.856095
0.834922
0.817954
0.866261
0.867574
0.867326
0.819869
0.743523
0.81564
0.75489
0.849861
0.848469
0.810155
0.820087
0.838529
0.832208
0.836283
0.802397
0.863272
0.883523
0.853193
0.805452
0.798001
0.840903
0.822915
0.866505
0.751552
0.823415
0.849301
0.805223
0.780588
0.864655
0.851574
0.873459
0.739967
0.828184
0.81339
0.861829
0.779
0.864977
0.812811
0.813354
0.81732
0.864387
0.863849
0.858125
0.866051
0.783478
0.820206
0.811393
0.866888
0.910239
0.864669
0.830882
0.86105
0.820229
0.808766
0.747791
0.867406
0.815
0.849504
0.835435
0.889525
0.853959
0.870389
0.813868
0.859734
0.822059
0.746004
0.824591
0.842307
0.847572
0.838348
0.860752
0.743606
0.88568
0.873842
0.831174
0.812568
0.79529
0.83757
0.866375
0.867082
0.838014
0.867082
0.821538
0.78817
0.820317
0.805215
0.812005
0.861537
0.861116
0.885601
0.858272
0.867341
0.762532
0.831755
0.867391
0.811007
0.828465
0.842835
0.810377
0.862492
0.863376
0.828056
0.821683
0.810074
0.854492
0.870827
0.821024
0.803427
0.820016
0.814601
0.859593
0.747656
0.890129
0.816306
0.73957
0.82183
0.846782
0.844126
0.778974
0.754665
0.815594
0.824807
0.814136
0.884399
0.821236
0.854679
0.819433
0.880056
0.82177
0.820409
0.861064
0.855816
0.84483
0.859893
0.859458
0.88919
0.803626
0.87857
0.858409
0.765046
0.818641
0.820808
0.822204
0.860134
0.861063
0.822482
0.814408
0.810246
0.860928
0.820221
0.815944
0.809368
0.861869
0.817777
0.810473
0.826834
0.863598
0.816801
0.815777
0.848575
0.805485
0.859411
0.763146
0.863054
0.877299
0.824252
0.859547
0.814048
0.864496
0.870085
0.813672
0.860178
0.807077
0.830445
0.827971
0.810784
0.819991
0.826321
0.826707
0.825671
0.858757
0.859971
0.834393
0.866165
0.820747
0.807614
0.809641
0.827028
0.867248
0.813678
0.859384
0.85948
0.828626
0.825993
0.806757
0.870479
0.879163
0.809006
0.774548
0.808824
0.873147
0.858823
0.827959
0.820021
0.84362
0.874049
0.781811
0.852064
0.842274
0.869238
0.858979
0.83541
0.837244
0.832119
0.817361
0.836424
0.830887
0.743847
0.877043
0.8307
0.860861
0.881503
0.859421
0.821166
0.831356
0.860384
0.856737
0.835602
0.770167
0.833915
0.887339
0.846308
0.807326
0.833795
0.892059
0.803731
0.896409
0.84869
0.858746
0.85993
0.822446
0.822211
0.864941
0.858989
0.824584
0.862295
0.841617
0.899691
0.847366
0.833098
0.814229
0.863022
0.835384
0.859617
0.831995
0.827869
0.837287
0.859003
0.863698
0.860652
0.85982
0.854088
0.839294
0.809571
0.782071
0.864681
0.859011
0.825814
0.862301
0.755156
0.88029
0.805713
0.826543
0.85825
0.861274
0.817899
0.862535
0.811401
0.811281
0.83136
0.853693
0.826669
0.834156
0.860935
0.86364
0.855806
0.811774
0.84778
0.814171
0.839169
0.826389
0.807988
0.807185
0.808538
0.851281
0.828343
0.822602
0.86877
0.853985
0.811068
0.760457
0.837183
0.809422
0.810857
0.773459
0.820054
0.828323
0.822493
0.859089
0.855834
0.861394
0.866606
0.832987
0.829215
0.900049
0.859044
0.827603
0.820199
0.7765
0.833081
0.830073
0.819545
0.860255
0.861611
0.823618
0.829175
0.818324
0.784499
0.863644
0.815303
0.836824
0.821074
0.879164
0.83306
0.822837
0.823116
0.841288
0.834044
0.752373
0.812991
0.871456
0.861483
0.830953
0.76438
0.838962
0.860929
0.868588
0.867618
0.861286
0.819264
0.860559
0.838117
0.747704
0.830578
0.820399
0.833093
0.86236
0.798237
0.8598
0.86511
0.853906
0.772246
0.906254
0.824509
0.834855
0.831717
0.822833
0.831688
0.868026
0.831793
0.814416
0.862703
0.854549
0.822291
0.822545
0.860089
0.832593
0.855961
0.859166
0.85645
0.845636
0.834273
0.866493
0.882922
0.855187
0.842797
0.863675
0.74699
0.82746
0.860525
0.863276
0.889272
0.86802
0.843067
0.750324
0.856295
0.811625
0.86139
0.840148
0.876002
0.865307
0.835472
0.899448
0.818129
0.836082
0.86326
0.853891
0.830609
0.860592
0.76896
0.828141
0.878127
0.854694
0.8352
0.854779
0.863483
0.832956
0.793282
0.854223
0.814365
0.870818
0.858665
0.836818
0.864675
0.841498
0.853836
0.858302
0.833496
0.859355
0.824122
0.871177
0.859206
0.838902
0.865582
0.866005
0.857255
0.85796
0.866525
0.853688
0.871905
0.859027
0.812342
0.84832
0.862227
0.841035
0.838456
0.811989
0.811013
0.866285
0.859336
0.851607
0.867006
0.857613
0.81259
0.853454
0.867405
0.865064
0.819796
0.860112
0.862934
0.834953
0.867781
0.868485
0.833427
0.853588
0.846072
0.750266
0.860123
0.858832
0.855121
0.856957
0.86027
0.86338
0.858424
0.859272
0.78976
0.866362
0.811527
0.859267
0.843612
0.855905
0.860361
0.854349
0.864894
0.862202
0.862832
0.843381
0.844325
0.847449
0.865232
0.859258
0.843303
0.866624
0.863801
0.859171
0.807907
0.868012
0.864997
0.755777
0.780289
0.839869
0.860337
0.816283
0.859882
0.859166
0.860973
0.792331
0.86187
0.807275
0.855565
0.854911
0.864913
0.863482
0.862088
0.828335
0.867713
0.863654
0.861263
0.863408
0.798229
0.846358
0.858498
0.807415
0.807495
0.859486
0.881722
0.865477
0.863633
0.877607
0.862845
0.872936
0.768988
0.864411
0.861072
0.854813
0.858992
0.869001
0.859031
0.794715
0.808134
0.853349
0.813252
0.807784
0.825196
0.812144
0.863458
0.859436
0.814629
0.859035
0.849954
0.862626
0.859109
0.807406
0.858826
0.867577
0.847667
0.831915
0.849755
0.856617
0.76775
0.859337
0.859505
0.868069
0.781363
0.783618
0.742614
0.846661
0.760978
0.870914
0.799846
0.861602
0.863163
0.817725
0.858228
0.85766
0.808627
0.829569
0.859161
0.830622
0.857921
0.859141
0.859074
0.867335
0.853427
0.815672
0.805787
0.85766
0.858949
0.8582
0.80356
0.839324
0.822466
0.85911
0.861618
0.871269
0.858478
0.751403
0.855201
0.859198
0.859235
0.822439
0.839712
0.827967
0.84242
0.864605
0.751921
0.833495
0.809287
0.859285
0.858738
0.858605
0.864341
0.859181
0.856006
0.857264
0.817528
0.856676
0.875898
0.858644
0.829108
0.858476
0.758483
0.78293
0.866262
0.858777
0.815617
0.860757
0.793572
0.808749
0.807224
0.859798
0.756416
0.859
0.809951
0.859419
0.879112
0.825396
0.86057
0.859062
0.847035
0.86111
0.819444
0.808593
0.861804
0.914537
0.849743
0.859028
0.854293
0.860133
0.881899
0.783685
0.762959
0.869064
0.814788
0.758519
0.867713