# vtk DataFile Version 1.0
unstructured grid
ascii
DATASET UNSTRUCTURED_GRID
points 7812 float
-1 0 0
-1 1 0
2 0 0
2 1 0
0 0 0
1 0 0
-1 1 0.1
-1 0 0.1
0 0 0.1
1 0 0.1
2 0 0.1
2 1 0.1
-0.99 0 0
-0.98 0 0
-0.97 0 0
-0.96 0 0
-0.95 0 0
-0.94 0 0
-0.93 0 0
-0.92 0 0
-0.91 0 0
-0.9 0 0
-0.89 0 0
-0.88 0 0
-0.87 0 0
-0.86 0 0
-0.85 0 0
-0.84 0 0
-0.83 0 0
-0.82 0 0
-0.81 0 0
-0.8 0 0
-0.79 0 0
-0.78 0 0
-0.77 0 0
-0.76 0 0
-0.75 0 0
-0.74 0 0
-0.73 0 0
-0.72 0 0
-0.71 0 0
-0.7 0 0
-0.69 0 0
-0.68 0 0
-0.67 0 0
-0.66 0 0
-0.65 0 0
-0.64 0 0
-0.63 0 0
-0.62 0 0
-0.61 0 0
-0.6 0 0
-0.59 0 0
-0.58 0 0
-0.57 0 0
-0.56 0 0
-0.55 0 0
-0.54 0 0
-0.53 0 0
-0.52 0 0
-0.51 0 0
-0.5 0 0
-0.49 0 0
-0.48 0 0
-0.47 0 0
-0.46 0 0
-0.45 0 0
-0.44 0 0
-0.43 0 0
-0.42 0 0
-0.41 0 0
-0.4 0 0
-0.39 0 0
-0.38 0 0
-0.37 0 0
-0.36 0 0
-0.35 0 0
-0.34 0 0
-0.33 0 0
-0.32 0 0
-0.31 0 0
-0.3 0 0
-0.29 0 0
-0.28 0 0
-0.27 0 0
-0.26 0 0
-0.25 0 0
-0.24 0 0
-0.23 0 0
-0.22 0 0
-0.21 0 0
-0.2 0 0
-0.19 0 0
-0.18 0 0
-0.17 0 0
-0.16 0 0
-0.15 0 0
-0.14 0 0
-0.13 0 0
-0.12 0 0
-0.11 0 0
-0.1 0 0
-0.09 0 0
-0.08 0 0
-0.07 0 0
-0.06 0 0
-0.05 0 0
-0.04 0 0
-0.03 0 0
-0.02 0 0
-0.01 0 0
1.01 0 0
1.02 0 0
1.03 0 0
1.04 0 0
1.05 0 0
1.06 0 0
1.07 0 0
1.08 0 0
1.09 0 0
1.1 0 0
1.11 0 0
1.12 0 0
1.13 0 0
1.14 0 0
1.15 0 0
1.16 0 0
1.17 0 0
1.18 0 0
1.19 0 0
1.2 0 0
1.21 0 0
1.22 0 0
1.23 0 0
1.24 0 0
1.25 0 0
1.26 0 0
1.27 0 0
1.28 0 0
1.29 0 0
1.3 0 0
1.31 0 0
1.32 0 0
1.33 0 0
1.34 0 0
1.35 0 0
1.36 0 0
1.37 0 0
1.38 0 0
1.39 0 0
1.4 0 0
1.41 0 0
1.42 0 0
1.43 0 0
1.44 0 0
1.45 0 0
1.46 0 0
1.47 0 0
1.48 0 0
1.49 0 0
1.5 0 0
1.51 0 0
1.52 0 0
1.53 0 0
1.54 0 0
1.55 0 0
1.56 0 0
1.57 0 0
1.58 0 0
1.59 0 0
1.6 0 0
1.61 0 0
1.62 0 0
1.63 0 0
1.64 0 0
1.65 0 0
1.66 0 0
1.67 0 0
1.68 0 0
1.69 0 0
1.7 0 0
1.71 0 0
1.72 0 0
1.73 0 0
1.74 0 0
1.75 0 0
1.76 0 0
1.77 0 0
1.78 0 0
1.79 0 0
1.8 0 0
1.81 0 0
1.82 0 0
1.83 0 0
1.84 0 0
1.85 0 0
1.86 0 0
1.87 0 0
1.88 0 0
1.89 0 0
1.9 0 0
1.91 0 0
1.92 0 0
1.93 0 0
1.94 0 0
1.95 0 0
1.96 0 0
1.97 0 0
1.98 0 0
1.99 0 0
2 0.010289 0
2 0.0215307 0
2 0.0338135 0
2 0.0472336 0
2 0.0618965 0
2 0.0779171 0
2 0.0954213 0
2 0.114546 0
2 0.135442 0
2 0.158274 0
2 0.183219 0
2 0.210474 0
2 0.240253 0
2 0.27279 0
2 0.308339 0
2 0.347181 0
2 0.389619 0
2 0.435987 0
2 0.486649 0
2 0.542002 0
2 0.602481 0
2 0.66856 0
2 0.740758 0
2 0.819642 0
2 0.90583 0
1.9 1 0
1.8 1 0
1.7 1 0
1.6 1 0
1.5 1 0
1.4 1 0
1.3 1 0
1.2 1 0
1.1 1 0
1 1 0
0.9 1 0
0.8 1 0
0.7 1 0
0.6 1 0
0.5 1 0
0.4 1 0
0.3 1 0
0.2 1 0
0.1 1 0
3.69793e-12 1 0
-0.1 1 0
-0.2 1 0
-0.3 1 0
-0.4 1 0
-0.5 1 0
-0.6 1 0
-0.7 1 0
-0.8 1 0
-0.9 1 0
-1 0.90583 0
-1 0.819642 0
-1 0.740758 0
-1 0.66856 0
-1 0.602481 0
-1 0.542002 0
-1 0.486649 0
-1 0.435987 0
-1 0.389619 0
-1 0.347181 0
-1 0.308339 0
-1 0.27279 0
-1 0.240253 0
-1 0.210474 0
-1 0.183219 0
-1 0.158274 0
-1 0.135442 0
-1 0.114546 0
-1 0.0954213 0
-1 0.0779171 0
-1 0.0618965 0
-1 0.0472336 0
-1 0.0338135 0
-1 0.0215307 0
-1 0.010289 0
0.00921362 0.00379763 0
0.0184561 0.00752451 0
0.0277268 0.0111804 0
0.0370253 0.0147652 0
0.0463511 0.0182786 0
0.0557034 0.0217203 0
0.0650819 0.0250903 0
0.074486 0.0283883 0
0.083915 0.0316141 0
0.0933685 0.0347675 0
0.102846 0.0378484 0
0.112347 0.0408565 0
0.12187 0.0437917 0
0.131416 0.0466538 0
0.140983 0.0494427 0
0.150572 0.0521581 0
0.160181 0.0547999 0
0.16981 0.0573681 0
0.179458 0.0598623 0
0.189125 0.0622825 0
0.198811 0.0646285 0
0.208514 0.0669001 0
0.218234 0.0690974 0
0.227971 0.07122 0
0.237724 0.073268 0
0.247493 0.0752411 0
0.257276 0.0771393 0
0.267073 0.0789625 0
0.276884 0.0807105 0
0.286708 0.0823832 0
0.296545 0.0839806 0
0.306394 0.0855025 0
0.316254 0.0869488 0
0.326125 0.0883196 0
0.336006 0.0896146 0
0.345896 0.0908339 0
0.355796 0.0919773 0
0.365704 0.0930447 0
0.375621 0.0940362 0
0.385544 0.0949517 0
0.395474 0.095791 0
0.40541 0.0965542 0
0.415352 0.0972412 0
0.425299 0.097852 0
0.43525 0.0983865 0
0.445205 0.0988447 0
0.455164 0.0992266 0
0.465125 0.0995321 0
0.475088 0.0997613 0
0.485052 0.0999141 0
0.495017 0.0999904 0
0.504983 0.0999904 0
0.514948 0.0999141 0
0.524912 0.0997613 0
0.534875 0.0995321 0
0.544836 0.0992266 0
0.554795 0.0988447 0
0.56475 0.0983865 0
0.574701 0.097852 0
0.584648 0.0972412 0
0.59459 0.0965542 0
0.604526 0.095791 0
0.614456 0.0949517 0
0.624379 0.0940362 0
0.634296 0.0930447 0
0.644204 0.0919773 0
0.654104 0.0908339 0
0.663994 0.0896146 0
0.673875 0.0883196 0
0.683746 0.0869488 0
0.693606 0.0855025 0
0.703455 0.0839806 0
0.713292 0.0823832 0
0.723116 0.0807105 0
0.732927 0.0789625 0
0.742724 0.0771393 0
0.752508 0.0752411 0
0.762276 0.073268 0
0.772029 0.07122 0
0.781766 0.0690974 0
0.791486 0.0669001 0
0.801189 0.0646285 0
0.810875 0.0622825 0
0.820542 0.0598623 0
0.83019 0.0573681 0
0.839819 0.0547999 0
0.849428 0.0521581 0
0.859017 0.0494427 0
0.868584 0.0466538 0
0.87813 0.0437917 0
0.887653 0.0408565 0
0.897154 0.0378484 0
0.906631 0.0347675 0
0.916085 0.0316141 0
0.925514 0.0283883 0
0.934918 0.0250903 0
0.944297 0.0217203 0
0.953649 0.0182786 0
0.962975 0.0147652 0
0.972273 0.0111804 0
0.981544 0.00752451 0
0.990786 0.00379763 0
-1 0.90583 0.1
-1 0.819642 0.1
-1 0.740758 0.1
-1 0.66856 0.1
-1 0.602481 0.1
-1 0.542002 0.1
-1 0.486649 0.1
-1 0.435987 0.1
-1 0.389619 0.1
-1 0.347181 0.1
-1 0.308339 0.1
-1 0.27279 0.1
-1 0.240253 0.1
-1 0.210474 0.1
-1 0.183219 0.1
-1 0.158274 0.1
-1 0.135442 0.1
-1 0.114546 0.1
-1 0.0954213 0.1
-1 0.0779171 0.1
-1 0.0618965 0.1
-1 0.0472336 0.1
-1 0.0338135 0.1
-1 0.0215307 0.1
-1 0.010289 0.1
-0.99 0 0.1
-0.98 0 0.1
-0.97 0 0.1
-0.96 0 0.1
-0.95 0 0.1
-0.94 0 0.1
-0.93 0 0.1
-0.92 0 0.1
-0.91 0 0.1
-0.9 0 0.1
-0.89 0 0.1
-0.88 0 0.1
-0.87 0 0.1
-0.86 0 0.1
-0.85 0 0.1
-0.84 0 0.1
-0.83 0 0.1
-0.82 0 0.1
-0.81 0 0.1
-0.8 0 0.1
-0.79 0 0.1
-0.78 0 0.1
-0.77 0 0.1
-0.76 0 0.1
-0.75 0 0.1
-0.74 0 0.1
-0.73 0 0.1
-0.72 0 0.1
-0.71 0 0.1
-0.7 0 0.1
-0.69 0 0.1
-0.68 0 0.1
-0.67 0 0.1
-0.66 0 0.1
-0.65 0 0.1
-0.64 0 0.1
-0.63 0 0.1
-0.62 0 0.1
-0.61 0 0.1
-0.6 0 0.1
-0.59 0 0.1
-0.58 0 0.1
-0.57 0 0.1
-0.56 0 0.1
-0.55 0 0.1
-0.54 0 0.1
-0.53 0 0.1
-0.52 0 0.1
-0.51 0 0.1
-0.5 0 0.1
-0.49 0 0.1
-0.48 0 0.1
-0.47 0 0.1
-0.46 0 0.1
-0.45 0 0.1
-0.44 0 0.1
-0.43 0 0.1
-0.42 0 0.1
-0.41 0 0.1
-0.4 0 0.1
-0.39 0 0.1
-0.38 0 0.1
-0.37 0 0.1
-0.36 0 0.1
-0.35 0 0.1
-0.34 0 0.1
-0.33 0 0.1
-0.32 0 0.1
-0.31 0 0.1
-0.3 0 0.1
-0.29 0 0.1
-0.28 0 0.1
-0.27 0 0.1
-0.26 0 0.1
-0.25 0 0.1
-0.24 0 0.1
-0.23 0 0.1
-0.22 0 0.1
-0.21 0 0.1
-0.2 0 0.1
-0.19 0 0.1
-0.18 0 0.1
-0.17 0 0.1
-0.16 0 0.1
-0.15 0 0.1
-0.14 0 0.1
-0.13 0 0.1
-0.12 0 0.1
-0.11 0 0.1
-0.1 0 0.1
-0.09 0 0.1
-0.08 0 0.1
-0.07 0 0.1
-0.06 0 0.1
-0.05 0 0.1
-0.04 0 0.1
-0.03 0 0.1
-0.02 0 0.1
-0.01 0 0.1
0.00921362 0.00379763 0.1
0.0184561 0.00752451 0.1
0.0277268 0.0111804 0.1
0.0370253 0.0147652 0.1
0.0463511 0.0182786 0.1
0.0557034 0.0217203 0.1
0.0650819 0.0250903 0.1
0.074486 0.0283883 0.1
0.083915 0.0316141 0.1
0.0933685 0.0347675 0.1
0.102846 0.0378484 0.1
0.112347 0.0408565 0.1
0.12187 0.0437917 0.1
0.131416 0.0466538 0.1
0.140983 0.0494427 0.1
0.150572 0.0521581 0.1
0.160181 0.0547999 0.1
0.16981 0.0573681 0.1
0.179458 0.0598623 0.1
0.189125 0.0622825 0.1
0.198811 0.0646285 0.1
0.208514 0.0669001 0.1
0.218234 0.0690974 0.1
0.227971 0.07122 0.1
0.237724 0.073268 0.1
0.247493 0.0752411 0.1
0.257276 0.0771393 0.1
0.267073 0.0789625 0.1
0.276884 0.0807105 0.1
0.286708 0.0823832 0.1
0.296545 0.0839806 0.1
0.306394 0.0855025 0.1
0.316254 0.0869488 0.1
0.326125 0.0883196 0.1
0.336006 0.0896146 0.1
0.345896 0.0908339 0.1
0.355796 0.0919773 0.1
0.365704 0.0930447 0.1
0.375621 0.0940362 0.1
0.385544 0.0949517 0.1
0.395474 0.095791 0.1
0.40541 0.0965542 0.1
0.415352 0.0972412 0.1
0.425299 0.097852 0.1
0.43525 0.0983865 0.1
0.445205 0.0988447 0.1
0.455164 0.0992266 0.1
0.465125 0.0995321 0.1
0.475088 0.0997613 0.1
0.485052 0.0999141 0.1
0.495017 0.0999904 0.1
0.504983 0.0999904 0.1
0.514948 0.0999141 0.1
0.524912 0.0997613 0.1
0.534875 0.0995321 0.1
0.544836 0.0992266 0.1
0.554795 0.0988447 0.1
0.56475 0.0983865 0.1
0.574701 0.097852 0.1
0.584648 0.0972412 0.1
0.59459 0.0965542 0.1
0.604526 0.095791 0.1
0.614456 0.0949517 0.1
0.624379 0.0940362 0.1
0.634296 0.0930447 0.1
0.644204 0.0919773 0.1
0.654104 0.0908339 0.1
0.663994 0.0896146 0.1
0.673875 0.0883196 0.1
0.683746 0.0869488 0.1
0.693606 0.0855025 0.1
0.703455 0.0839806 0.1
0.713292 0.0823832 0.1
0.723116 0.0807105 0.1
0.732927 0.0789625 0.1
0.742724 0.0771393 0.1
0.752508 0.0752411 0.1
0.762276 0.073268 0.1
0.772029 0.07122 0.1
0.781766 0.0690974 0.1
0.791486 0.0669001 0.1
0.801189 0.0646285 0.1
0.810875 0.0622825 0.1
0.820542 0.0598623 0.1
0.83019 0.0573681 0.1
0.839819 0.0547999 0.1
0.849428 0.0521581 0.1
0.859017 0.0494427 0.1
0.868584 0.0466538 0.1
0.87813 0.0437917 0.1
0.887653 0.0408565 0.1
0.897154 0.0378484 0.1
0.906631 0.0347675 0.1
0.916085 0.0316141 0.1
0.925514 0.0283883 0.1
0.934918 0.0250903 0.1
0.944297 0.0217203 0.1
0.953649 0.0182786 0.1
0.962975 0.0147652 0.1
0.972273 0.0111804 0.1
0.981544 0.00752451 0.1
0.990786 0.00379763 0.1
1.01 0 0.1
1.02 0 0.1
1.03 0 0.1
1.04 0 0.1
1.05 0 0.1
1.06 0 0.1
1.07 0 0.1
1.08 0 0.1
1.09 0 0.1
1.1 0 0.1
1.11 0 0.1
1.12 0 0.1
1.13 0 0.1
1.14 0 0.1
1.15 0 0.1
1.16 0 0.1
1.17 0 0.1
1.18 0 0.1
1.19 0 0.1
1.2 0 0.1
1.21 0 0.1
1.22 0 0.1
1.23 0 0.1
1.24 0 0.1
1.25 0 0.1
1.26 0 0.1
1.27 0 0.1
1.28 0 0.1
1.29 0 0.1
1.3 0 0.1
1.31 0 0.1
1.32 0 0.1
1.33 0 0.1
1.34 0 0.1
1.35 0 0.1
1.36 0 0.1
1.37 0 0.1
1.38 0 0.1
1.39 0 0.1
1.4 0 0.1
1.41 0 0.1
1.42 0 0.1
1.43 0 0.1
1.44 0 0.1
1.45 0 0.1
1.46 0 0.1
1.47 0 0.1
1.48 0 0.1
1.49 0 0.1
1.5 0 0.1
1.51 0 0.1
1.52 0 0.1
1.53 0 0.1
1.54 0 0.1
1.55 0 0.1
1.56 0 0.1
1.57 0 0.1
1.58 0 0.1
1.59 0 0.1
1.6 0 0.1
1.61 0 0.1
1.62 0 0.1
1.63 0 0.1
1.64 0 0.1
1.65 0 0.1
1.66 0 0.1
1.67 0 0.1
1.68 0 0.1
1.69 0 0.1
1.7 0 0.1
1.71 0 0.1
1.72 0 0.1
1.73 0 0.1
1.74 0 0.1
1.75 0 0.1
1.76 0 0.1
1.77 0 0.1
1.78 0 0.1
1.79 0 0.1
1.8 0 0.1
1.81 0 0.1
1.82 0 0.1
1.83 0 0.1
1.84 0 0.1
1.85 0 0.1
1.86 0 0.1
1.87 0 0.1
1.88 0 0.1
[...]
CELL_DATA 7425
SCALARS rho float
LOOKUP_TABLE default
0.587055
0.805027
0.819497
0.827473
0.799373
0.819096
0.820869
0.814063
0.812905
0.738581
0.863466
0.810014
0.813824
0.827329
0.803668
0.81709
0.798709
0.81319
0.803461
0.767218
0.831229
0.822029
0.72473
0.828001
0.803867
0.7029
0.831162
0.848198
0.800154
0.80791
0.819325
0.725531
0.803607
0.652001
0.519056
0.827967
0.8035
0.814039
0.811123
0.827964
0.71588
0.703028
0.789936
0.702353
0.586337
0.748172
0.799257
0.813757
0.661143
0.719308
0.746303
0.805143
0.812339
0.799032
0.709895
0.622598
0.822861
0.800059
0.738452
0.700845
0.709318
0.807647
0.813159
0.799339
0.798762
0.817548
0.584251
0.773235
0.704842
0.807826
0.80414
0.803199
0.883384
0.821101
0.810824
0.812965
0.805039
0.80043
0.813166
0.757731
0.815914
0.807227
0.810215
0.788633
0.83587
0.80105
0.574337
0.829915
0.542344
0.848446
0.707007
0.729688
0.845163
0.80317
0.817337
0.758135
0.836003
0.787995
0.825577
0.802428
0.808034
0.73866
0.80328
0.828196
0.597134
0.811051
0.824324
0.70737
0.814928
0.799119
0.816647
0.784509
0.789756
0.812418
0.789668
0.78629
0.831211
0.803101
0.700236
0.629538
0.805038
0.77722
0.812869
0.790381
0.858907
0.838776
0.807683
0.804229
0.661119
0.503865
0.814407
0.654955
0.514942
0.867601
0.661456
0.799467
0.811085
0.723483
0.581894
0.724696
0.723159
0.809565
0.809568
0.707396
0.803109
0.779579
0.565364
0.788451
0.782534
0.827719
0.81672
0.704172
0.802859
0.744297
0.705301
0.803268
0.810415
0.830363
0.797515
0.651889
0.802492
0.703631
0.801055
0.829696
0.820402
0.802367
0.812988
0.784768
0.806263
0.800602
0.819651
0.804427
0.791118
0.799082
0.799844
0.740019
0.803649
0.758641
0.593914
0.70691
0.799634
0.792654
0.879776
0.831802
0.61291
0.822873
0.798589
0.827267
0.799828
0.813332
0.81253
0.803186
0.80693
0.704682
0.814944
0.8192
0.77006
0.797091
0.861032
0.807752
0.811797
0.811091
0.612784
0.838827
0.572913
0.531594
0.595391
0.600276
0.828097
0.87931
0.807515
0.798641
0.841348
0.812892
0.81662
0.82071
0.815136
0.637947
0.548678
0.813654
0.545382
0.592374
0.703532
0.811633
0.813995
0.812965
0.833091
0.812832
0.864113
0.710089
0.83518
0.712478
0.805155
0.803914
0.801945
0.71384
0.720322
0.619445
0.705718
0.863589
0.875287
0.806174
0.807684
0.798809
0.81149
0.715687
0.821552
0.80014
0.825643
0.794604
0.809776
0.721432
0.812733
0.823683
0.739672
0.528368
0.799819
0.736438
0.843258
0.814276
0.726639
0.815513
0.814773
0.84992
0.809441
0.803815
0.803247
0.825601
0.860729
0.805385
0.619205
0.848852
0.811932
0.805592
0.827493
0.837299
0.812916
0.821379
0.79348
0.815005
0.866513
0.849914
0.827282
0.836695
0.802654
0.817098
0.803187
0.759679
0.701129
0.58079
0.70106
0.802288
0.812815
0.815921
0.854622
0.779625
0.645688
0.827031
0.520631
0.774235
0.80093
0.646347
0.49497
0.639044
0.815131
0.813162
0.812891
0.812653
0.826665
0.774403
0.811464
0.802658
0.812828
0.84067
0.86701
0.833513
0.802714
0.706401
0.795845
0.834248
0.691516
0.798698
0.802035
0.864756
0.817038
0.592966
0.813321
0.740394
0.852216
0.731913
0.810037
0.907643
0.799819
0.795588
0.658892
0.635509
0.711834
0.780522
0.82649
0.814867
0.813621
0.882311
0.85808
0.799487
0.79912
0.826009
0.739135
0.802507
0.879363
0.801374
0.804645
0.800652
0.802561
0.812895
0.815656
0.816309
0.636092
0.829932
0.645366
0.808424
0.639208
0.802567
0.802226
0.840222
0.728577
0.816331
0.808509
0.816918
0.799458
0.802489
0.811224
0.696579
0.824449
0.812984
0.812857
0.800672
0.736799
0.559855
0.806403
0.810948
0.803183
0.812817
0.794683
0.502801
0.845959
0.813243
0.803841
0.785679
0.813189
0.804635
0.802993
0.816174
0.8075
0.822455
0.768559
0.812614
0.807758
0.562578
0.803068
0.640055
0.838724
0.636169
0.814633
0.877876
0.593006
0.818049
0.748894
0.804404
0.87332
0.533547
0.823067
0.822204
0.803489
0.825686
0.811028
0.823404
0.830589
0.824784
0.739605
0.827471
0.76166
0.810172
0.794221
0.793581
0.758535
0.805588
0.802082
0.814408
0.752143
0.804671
0.604353
0.614145
0.688885
0.812739
0.84416
0.864808
0.829833
0.798533
0.812567
0.804853
0.818468
0.680444
0.800946
0.742887
0.824016
0.814735
0.805338
0.711935
0.727166
0.533545
0.605542
0.801249
0.611318
0.792531
0.765339
0.769999
0.727132
0.762405
0.767472
0.809367
0.814865
0.819493
0.811393
0.710375
0.602002
0.838991
0.806872
0.783118
0.809777
0.80254
0.836515
0.718021
0.855252
0.763666
0.72821
0.764452
0.811446
0.54488
0.79878
0.841576
0.813254
0.813716
0.809648
0.799117
0.780237
0.835665
0.803102
0.842934
0.721039
0.707545
0.800307
0.795106
0.821966
0.708638
0.847925
0.800373
0.81599
0.798684
0.779145
0.808209
0.594543
0.677372
0.632357
0.812866
0.803776
0.826306
0.749204
0.810585
0.814732
0.820338
0.79893
0.729227
0.796823
0.81424
0.803194
0.70303
0.813522
0.818853
0.839985
0.810707
0.825286
0.862269
0.857246
0.743859
0.603341
0.837999
0.805768
0.843352
0.81416
0.822873
0.813453
0.813734
0.633285
0.805134
0.809254
0.812748
0.791861
0.810552
0.804719
0.860439
0.798616
0.812662
0.814649
0.871897
0.597562
0.81339
0.84236
0.8833
0.530352
0.816343
0.829904
0.796127
0.814735
0.79491
0.867572
0.812156
0.831304
0.812658
0.619288
0.802385
0.80414
0.690718
0.853114
0.75977
0.801793
0.813911
0.812643
0.859626
0.795337
0.833576
0.834679
0.784238
0.825144
0.842293
0.799697
0.810442
0.80691
0.805307
0.81479
0.802627
0.845189
0.769221
0.809769
0.803151
0.815175
0.723075
0.812822
0.818297
0.752557
0.813518
0.816307
0.827514
0.825068
0.80068
0.800629
0.850473
0.767939
0.825081
0.844172
0.804549
0.505495
0.812829
0.828233
0.852361
0.812586
0.803146
0.808514
0.85502
0.780073
0.802578
0.801201
0.812865
0.727025
0.802692
0.829969
0.807966
0.794957
0.793462
0.843163
0.806599
0.845291
0.802017
0.824201
0.812699
0.804211
0.841825
0.812798
0.67935
0.818724
0.807091
0.812771
0.906134
0.800781
0.815846
0.80046
0.800371
0.816146
0.800477
0.803353
0.783727
0.747328
0.806448
0.812826
0.757975
0.791355
0.822974
0.813007
0.822208
0.806291
0.825726
0.875286
0.830606
0.574634
0.708759
0.840717
0.817233
0.844125
0.814703
0.850074
0.807291
0.812364
0.799312
0.838374
0.860905
0.852761
0.731466
0.814026
0.82213
0.74399
0.817053
0.775907
0.800199
0.733018
0.816008
0.830823
0.82345
0.861766
0.814154
0.813233
0.810127
0.814585
0.835759
0.81219
0.798625
0.810223
0.737492
0.811281
0.774181
0.832803
0.812718
0.638744
0.777615
0.811101
0.799145
0.819776
0.802437
0.814617
0.817245
0.80443
0.819348
0.804157
0.805805
0.597123
0.847011
0.825086
0.826659
0.814874
0.803216
0.701795
0.806438
0.907825
0.81353
0.800991
0.812823
0.782259
0.80721
0.813226
0.821238
0.814626
0.813163
0.816184
0.702136
0.777805
0.764535
0.812596
0.805292
0.800987
0.621267
0.80567
0.802597
0.708137
0.837151
0.817146
0.802169
0.807414
0.799372
0.817198
0.813897
0.813225
0.81281
0.709638
0.83166
0.80027
0.807364
0.842761
0.817574
0.81624
0.800145
0.753642
0.823793
0.787372
0.821387
0.789396
0.805591
0.820904
0.737507
0.817357
0.65036
0.872007
0.704281
0.844974
0.800757
0.87514
0.793668
0.801658
0.820623
0.836182
0.838384
0.82543
0.819779
0.814657
0.801087
0.804171
0.808225
0.725635
0.827211
0.800076
0.719703
0.830499
0.706513
0.799963
0.860325
0.805572
0.701291
0.79783
0.814028
0.705091
0.785654
0.819336
0.831825
0.80691
0.572845
0.728533
0.812374
0.801286
0.812859
0.800638
0.737179
0.813957
0.815663
0.812426
0.775326
0.80326
0.804484
0.803531
0.56035
0.812646
0.834079
0.579671
0.81511
0.816049
0.814641
0.81831
0.814364
0.824494
0.799041
0.795111
0.771033
0.822871
0.82964
0.82508
0.834826
0.76531
0.808946
0.724309
0.772356
0.808761
0.821026
0.813224
0.800966
0.858216
0.812863
0.800289
0.809537
0.816043
0.815133
0.836594
0.814437
0.812744
0.811971
0.81376
0.800101
0.820948
0.803759
0.822784
0.813407
0.575402
0.813454
0.834426
0.858
0.838155
0.490546
0.816756
0.804491
0.496388
0.669264
0.643007
0.834264
0.807941
0.811641
0.812738
0.803202
0.816697
0.810933
0.534437
0.686371
0.818215
0.806617
0.815561
0.803502
0.810224
0.810847
0.820192
0.799487
0.692143
0.855851
0.803148
0.814705
0.813565
0.75774
0.48548
0.832855
0.813515
0.742008
0.802699
0.806162
0.590749
0.82749
0.814729
0.827679
0.818731
0.825933
0.804723
0.719302
0.643494
0.561969
0.825273
0.808472
0.782975
0.812908
0.779752
0.817839
0.873296
0.76233
0.821562
0.813469
0.825795
0.883547
0.814386
0.811776
0.803255
0.813855
0.691638
0.828167
0.79985
0.810119
0.802196
0.784231
0.854134
0.821995
0.840457
0.821477
0.757599
0.755869
0.803269
0.818053
0.80306
0.805236
0.802576
0.775605
0.814629
0.76153
0.821099
0.662
0.813915
0.802951
0.735766
0.823224
0.817933
0.739948
0.801154
0.757172
0.880562
0.800716
0.812774
0.762638
0.800045
0.814215
0.803943
0.589769
0.820905
0.798625
0.801301
0.814469
0.825571
0.757081
0.805481
0.841565
0.826887
0.814073
0.835801
0.701097
0.700092
0.812859
0.744118
0.822171
0.771332
0.812766
0.80251
0.810363
0.751915
0.794183
0.764283
0.809836
0.80314
0.631128
0.778983
0.799228
0.848942
0.814311
0.828609
0.5263
0.825318
0.785106
0.85871
0.800934
0.817954
0.800242
0.785746
0.798707
0.82567
0.835736
0.821729
0.817068
0.707054
0.773788
0.815312
0.805372
0.809914
0.803901
0.70702
0.792792
0.80344
0.810607
0.827128
0.851187
0.831812
0.813404
0.79939
0.804196
0.801997
0.779608
0.611524
0.80028
0.731216
0.661834
0.822761
0.798807
0.777271
0.799939
0.75412
0.785276
0.81139
0.822138
0.803302
0.815955
0.817311
0.820629
0.813328
0.808438
0.7121
0.699335
0.640834
0.829237
0.869546
0.815331
0.841313
0.847808
0.863717
0.735579
0.81654
0.862989
0.810148
0.812804
0.816152
0.732723
0.81237
0.806607
0.806146
0.517069
0.812899
0.761134
0.813094
0.813771
0.803535
0.705654
0.813135
0.610524
0.824993
0.802243
0.822208
0.855136
0.803423
0.795356
0.820884
0.811519
0.805682
0.76221
0.5096
0.820848
0.803075
0.828872
0.825717
0.802051
0.807014
0.834432
0.720755
0.50016
0.886246
0.800541
0.815632
0.804313
0.710555
0.798588
0.799963
0.815006
0.735976
0.64643
0.883233
0.71409
0.836511
0.811923
0.832848
0.842628
0.792127
0.804736
0.813535
0.852755
0.738269
0.870684
0.813956
0.562689
0.802411
0.748944
0.852883
0.760237
0.804209
0.803946
0.799591
0.801572
0.808817
0.812838
0.855482
0.805939
0.802863
0.801305
0.799964
0.812171
0.816818
0.802613
0.812415
0.849175
0.803095
0.783409
0.80223
0.839528
0.724893
0.813566
0.813765
0.636466
0.713038
0.805531
0.822977
0.803504
0.511499
0.856249
0.813152
0.832937
0.805296
0.803308
0.801323
0.786197
0.587082
0.804281
0.816044
0.83596
0.820514
0.812881
0.798111
0.746864
0.801555
0.765715
0.787513
0.799289
0.790944
0.751069
0.800801
0.811404
0.810308
0.832166
0.848998
0.553094
0.841867
0.812773
0.820833
0.801963
0.822641
0.811006
0.8946
0.800198
0.867017
0.805674
0.75971
0.8621
0.802269
0.800235
0.824114
0.660322
0.645207
0.803388
0.803846
0.705316
0.654226
0.799892
0.823804
0.812962
0.822538
0.73287
0.817145
0.812775
0.826085
0.816899
0.811929
0.812794
0.754535
0.803848
0.815621
0.81126
0.676153
0.566314
0.812831
0.649927
0.721872
0.554972
0.841361
0.800079
0.526713
0.600666
0.827481
0.908056
0.818092
0.652235
0.814097
0.786391
0.801678
0.786342
0.820594
0.810052
0.78826
0.821005
0.800956
0.58754
0.81777
0.766622
0.815873
0.701062
0.822171
0.789594
0.813888
0.800001
0.662795
0.843484
0.806512
0.806562
0.493295
0.816776
0.800341
0.852088
0.711403
0.81703
0.583616
0.718765
0.801364
0.796622
0.732626
0.715455
0.716081
0.506719
0.588984
0.799938
0.517258
0.82255
0.519862
0.757144
0.671116
0.598817
0.540358
0.745382
0.803077
0.715314
0.821245
0.800907
0.802906
0.761147
0.889663
0.798998
0.824433
0.80342
0.812719
0.705898
0.80752
0.736643
0.821859
0.886021
0.833535
0.747659
0.82274
0.770444
0.879884
0.804187
0.758619
0.850653
0.776815
0.799918
0.805237
0.758186
0.744519
0.664972
0.804975
0.803018
0.817856
0.833449
0.611397
0.807858
0.537902
0.668517
0.616052
0.818457
0.820991
0.808936
0.803967
0.61559
0.872439
0.802673
0.802942
0.863491
0.812354
0.771983
0.812091
0.80236
0.817847
0.803142
0.716982
0.80333
0.655112
0.79896
0.804047
0.801532
0.639086
0.811485
0.810266
0.725617
0.817744
0.548961
0.576573
0.804136
0.696414
0.725889
0.571977
0.723523
0.813558
0.707747
0.77294
0.716757
0.812766
0.670122
0.762061
0.806422
0.810547
0.654382
0.801935
0.895141
0.79668
0.816739
0.584942
0.693733
0.800882
0.812874
0.813947
0.85163
0.812578
0.804241
0.803717
0.803331
0.713723
0.717599
0.615518
0.771416
0.532482
0.72399
0.809857
0.814348
0.806078
0.799216
0.535187
0.809004
0.803749
0.553804
0.543102
0.746544
0.803564
0.806127
0.549182
0.798184
0.569452
0.72034
0.607665
0.813498
0.802217
0.596924
0.608187
0.867872
0.810007
0.765362
0.717764
0.621469
0.655247
0.709938
0.815955
0.759729
0.765504
0.623914
0.753814
0.809249
0.815306
0.812383
0.815412
0.865513
0.754627
0.818877
0.80332
0.85125
0.812786
0.802767
0.81301
0.722653
0.812892
0.811934
0.815127
0.811094
0.815836
0.803265
0.81787
0.810328
0.809678
0.81721
0.800104
0.816537
0.818897
0.667393
0.818552
0.86839
0.818111
0.792909
0.645827
0.858551
0.818732
0.824837
0.799495
0.811139
0.757505
0.852513
0.558852
0.726519
0.809848
0.815606
0.803865
0.803354
0.832003
0.804971
0.805169
0.815201
0.780672
0.838512
0.841909
0.815159
0.664235
0.611935
0.815705
0.816563
0.788248
0.849594
0.847225
0.810789
0.813571
0.777708
0.814025
0.817776
0.814049
0.818719
0.813036
0.815763
0.851009
0.815908
0.814443
0.817495
0.817709
0.784866
0.81406
0.804001
0.804072
0.804569
0.818511
0.811411
0.788301
0.753985
0.812601
0.806266
0.808714
0.806365
0.857743
0.803304
0.813932
0.812622
0.805149
0.558672
0.803877
0.812665
0.814957
0.810298
0.812708
0.813229
0.81295
0.810163
0.864367
0.501266
0.812738
0.841622
0.812575
0.802949
0.80839
0.814934
0.839637
0.800398
0.801159
0.812569
0.706363
0.812755
0.808172
0.807296
0.81248
0.812808
0.812952
0.813286
0.511537
0.811846
0.715624
0.885824
0.821002
0.733457
0.670915
0.815297
0.803456
0.818667
0.646404
0.801634
0.813257
0.647893
0.799803
0.80408
0.81537
0.806232
0.856707
0.809835
0.606819
0.800791
0.775173
0.811198
0.889055
0.803238
0.815496
0.819275
0.832168
0.813324
0.822343
0.836298
0.634874
0.802578
0.655693
0.813674
0.813574
0.712609
0.813458
0.804762
0.71318
0.814866
0.701091
0.861043
0.784043
0.814226
0.812812
0.813353
0.667773
0.81358
0.633209
0.800159
0.792345
0.822238
0.815112
0.715917
0.766689
0.829998
0.812678
0.821258
0.821845
0.813361
0.825277
0.799453
0.551946
0.75491
0.759143
0.731481
0.837561
0.822288
0.8343
0.775965
0.802753
0.812947
0.812869
0.812872
0.774598
0.563677
0.803196
0.528261
0.808152
0.824209
0.799653
0.803749
0.812895
0.805998
0.782566
0.732145
0.81331
0.859114
0.813647
0.799244
0.736943
0.809542
0.788695
0.83368
0.503552
0.795961
0.80584
0.798825
0.688812
0.812762
0.810695
0.856977
0.568943
0.807318
0.803262
0.812746
0.612302
0.813007
0.803327
0.803394
0.803019
0.813119
0.813218
0.816038
0.812957
0.71797
0.804489
0.803194
0.812905
0.896146
0.813064
0.773932
0.841091
0.799169
0.803128
0.601225
0.812798
0.80335
0.825591
0.80195
0.866193
0.81477
0.85333
0.80029
0.82057
0.777844
0.55814
0.752628
0.794186
0.803871
0.81392
0.813727
0.555353
0.861753
0.857824
0.768404
0.757645
0.738498
0.812
0.848341
0.812837
0.813664
0.812871
0.804262
0.726767
0.803491
0.799059
0.76422
0.824199
0.822932
0.861811
0.815576
0.812883
0.523866
0.808873
0.812842
0.800668
0.77392
0.818049
0.803105
0.812798
0.826822
0.79843
0.803548
0.801187
0.81511
0.839065
0.802322
0.799118
0.801439
0.766094
0.819794
0.566933
0.868348
0.803677
0.545585
0.803116
0.803078
0.819504
0.591233
0.606037
0.801511
0.803582
0.800802
0.860698
0.779884
0.81456
0.802927
0.865631
0.804701
0.804439
0.826266
0.815877
0.82003
0.821204
0.820252
0.867448
0.729201
0.852109
0.817121
0.653583
0.802502
0.803174
0.803626
0.821046
0.823434
0.803931
0.801043
0.800005
0.822603
0.80316
0.803593
0.799614
0.824312
0.803961
0.801971
0.806062
0.827797
0.800488
0.801482
0.824198
0.799541
0.815296
0.651179
0.826316
0.849797
0.804835
0.819493
0.803217
0.828677
0.837433
0.803388
0.821399
0.800496
0.806923
0.789532
0.802136
0.80312
0.806342
0.805864
0.804464
0.818463
0.814657
0.811214
0.831339
0.802129
0.802205
0.799856
0.788985
0.833722
0.803131
0.819221
0.815119
0.807074
0.804992
0.802942
0.838847
0.864643
0.799523
0.678867
0.801151
0.84209
0.816506
0.805071
0.804451
0.819654
0.84454
0.60116
0.828687
0.794434
0.850279
0.818647
0.811969
0.813238
0.808177
0.803943
0.81274
0.808728
0.59173
0.847927
0.794563
0.814086
0.854537
0.819195
0.763128
0.808598
0.814358
0.815375
0.802947
0.661603
0.809143
0.863108
0.802525
0.80067
0.77535
0.871182
0.800399
0.877036
0.806633
0.817076
0.82053
0.802168
0.80378
0.812502
0.815791
0.803415
0.813225
0.816649
0.881319
0.820657
0.809277
0.800084
0.828344
0.810459
0.838776
0.808765
0.806925
0.812056
0.816457
0.829848
0.813561
0.822457
0.832456
0.8141
0.699537
0.69053
0.81294
0.817655
0.803753
0.813022
0.513746
0.854829
0.799718
0.806209
0.813839
0.813383
0.803943
0.812376
0.800429
0.801169
0.807976
0.814664
0.756812
0.78459
0.82286
0.842597
0.834747
0.800209
0.805007
0.803345
0.812886
0.805663
0.799474
0.799746
0.800974
0.810847
0.797784
0.802695
0.835425
0.831249
0.729709
0.66225
0.807553
0.698396
0.799442
0.571807
0.80439
0.806895
0.803055
0.818074
0.833697
0.813823
0.81275
0.810242
0.803827
0.881488
0.816173
0.804742
0.77221
0.585548
0.810217
0.806566
0.769311
0.814316
0.813772
0.791441
0.800681
0.804014
0.623983
0.830385
0.803491
0.781424
0.779264
0.852662
0.809968
0.802829
0.802547
0.810142
0.811033
0.518416
0.80175
0.839427
0.813822
0.798545
0.588573
0.814478
0.813967
0.812838
0.83366
0.813814
0.803906
0.821807
0.805525
0.575656
0.808604
0.736429
0.798482
0.813529
0.722126
0.814826
0.845905
0.831562
0.664402
0.890875
0.785551
0.777346
0.796847
0.779495
0.80857
0.849875
0.807921
0.802844
0.813442
0.808763
0.782574
0.78589
0.813779
0.808258
0.834791
0.821188
0.835625
0.801214
0.799612
0.812935
0.856562
0.816379
0.818287
0.813237
0.607236
0.795496
0.823811
0.829285
0.865854
0.812491
0.818867
0.508445
0.809643
0.800547
0.812503
0.81466
0.847529
0.81294
0.811064
0.881467
0.764477
0.812513
0.813127
0.808926
0.80519
0.814123
0.655823
0.800477
0.849472
0.833458
0.810527
0.813467
0.813257
0.809543
0.69878
0.812401
0.800114
0.838501
0.818382
0.811527
0.831255
0.792646
0.811455
0.817721
0.808734
0.819197
0.74416
0.854648
0.818872
0.813703
0.812943
0.81259
0.81562
0.817061
0.812636
0.81069
0.841012
0.818501
0.800106
0.825229
0.826872
0.815961
0.814419
0.800317
0.801478
0.812932
0.818931
0.82935
0.812682
0.81636
0.799777
0.809863
0.812719
0.812686
0.802484
0.81456
0.813218
0.803217
0.812742
0.835586
0.800002
0.809333
0.821446
0.559801
0.814107
0.81807
0.815425
0.814909
0.821878
0.82875
0.815521
0.818742
0.701363
0.812944
0.801299
0.815514
0.818917
0.835007
0.821475
0.815475
0.829291
0.824855
0.810561
0.819153
0.819447
0.804133
0.813042
0.815502
0.819397
0.832036
0.812515
0.815596
0.802705
0.812815
0.812936
0.522312
0.627482
0.814317
0.821349
0.801689
0.822383
0.815804
0.841802
0.708048
0.813635
0.730363
0.817318
0.810214
0.813047
0.829276
0.813545
0.804808
0.812801
0.830012
0.83921
0.812683
0.719126
0.819212
0.81593
0.799877
0.80302
0.815206
0.855874
0.812532
0.813259
0.84964
0.828931
0.843211
0.573174
0.82903
0.813834
0.810796
0.817301
0.850417
0.817666
0.718332
0.799495
0.831695
0.799721
0.799685
0.805361
0.747775
0.813283
0.814239
0.725336
0.814251
0.827274
0.813204
0.813926
0.799174
0.81828
0.812866
0.823462
0.808678
0.808114
0.814872
0.705293
0.818979
0.813973
0.812851
0.639754
0.718806
0.599259
0.823209
0.52926
0.853724
0.727263
0.842734
0.812412
0.722581
0.821344
0.815782
0.742494
0.807627
0.818256
0.794389
0.816423
0.81576
0.815689
0.812867
0.807785
0.80365
0.737235
0.836051
0.820075
0.816509
0.799183
0.815371
0.801947
0.815903
0.813348
0.85452
0.817674
0.496727
0.813202
0.818691
0.818564
0.778018
0.815683
0.806703
0.818515
0.845264
0.596302
0.809046
0.799256
0.815215
0.817521
0.817591
0.812335
0.818501
0.813755
0.814478
0.803061
0.814175
0.846046
0.813827
0.791982
0.811382
0.622424
0.718746
0.812945
0.816893
0.80291
0.822209
0.735431
0.803144
0.80318
0.820109
0.619887
0.817494
0.799303
0.815309
0.86456
0.785457
0.821854
0.817876
0.822694
0.813908
0.769552
0.80241
0.813453
0.902276
0.827102
0.816323
0.832147
0.809493
0.868094
0.719408
0.685997
0.85225
0.802693
0.659589
0.850215