# vtk DataFile Version 1.0
unstructured grid
ascii
DATASET UNSTRUCTURED_GRID
points 7812 float
-1 0 0
-1 1 0
2 0 0
2 1 0
0 0 0
1 0 0
-1 1 0.1
-1 0 0.1
0 0 0.1
1 0 0.1
2 0 0.1
2 1 0.1
-0.99 0 0
-0.98 0 0
-0.97 0 0
-0.96 0 0
-0.95 0 0
-0.94 0 0
-0.93 0 0
-0.92 0 0
-0.91 0 0
-0.9 0 0
-0.89 0 0
-0.88 0 0
-0.87 0 0
-0.86 0 0
-0.85 0 0
-0.84 0 0
-0.83 0 0
-0.82 0 0
-0.81 0 0
-0.8 0 0
-0.79 0 0
-0.78 0 0
-0.77 0 0
-0.76 0 0
-0.75 0 0
-0.74 0 0
-0.73 0 0
-0.72 0 0
-0.71 0 0
-0.7 0 0
-0.69 0 0
-0.68 0 0
-0.67 0 0
-0.66 0 0
-0.65 0 0
-0.64 0 0
-0.63 0 0
-0.62 0 0
-0.61 0 0
-0.6 0 0
-0.59 0 0
-0.58 0 0
-0.57 0 0
-0.56 0 0
-0.55 0 0
-0.54 0 0
-0.53 0 0
-0.52 0 0
-0.51 0 0
-0.5 0 0
-0.49 0 0
-0.48 0 0
-0.47 0 0
-0.46 0 0
-0.45 0 0
-0.44 0 0
-0.43 0 0
-0.42 0 0
-0.41 0 0
-0.4 0 0
-0.39 0 0
-0.38 0 0
-0.37 0 0
-0.36 0 0
-0.35 0 0
-0.34 0 0
-0.33 0 0
-0.32 0 0
-0.31 0 0
-0.3 0 0
-0.29 0 0
-0.28 0 0
-0.27 0 0
-0.26 0 0
-0.25 0 0
-0.24 0 0
-0.23 0 0
-0.22 0 0
-0.21 0 0
-0.2 0 0
-0.19 0 0
-0.18 0 0
-0.17 0 0
-0.16 0 0
-0.15 0 0
-0.14 0 0
-0.13 0 0
-0.12 0 0
-0.11 0 0
-0.1 0 0
-0.09 0 0
-0.08 0 0
-0.07 0 0
-0.06 0 0
-0.05 0 0
-0.04 0 0
-0.03 0 0
-0.02 0 0
-0.01 0 0
1.01 0 0
1.02 0 0
1.03 0 0
1.04 0 0
1.05 0 0
1.06 0 0
1.07 0 0
1.08 0 0
1.09 0 0
1.1 0 0
1.11 0 0
1.12 0 0
1.13 0 0
1.14 0 0
1.15 0 0
1.16 0 0
1.17 0 0
1.18 0 0
1.19 0 0
1.2 0 0
1.21 0 0
1.22 0 0
1.23 0 0
1.24 0 0
1.25 0 0
1.26 0 0
1.27 0 0
1.28 0 0
1.29 0 0
1.3 0 0
1.31 0 0
1.32 0 0
1.33 0 0
1.34 0 0
1.35 0 0
1.36 0 0
1.37 0 0
1.38 0 0
1.39 0 0
1.4 0 0
1.41 0 0
1.42 0 0
1.43 0 0
1.44 0 0
1.45 0 0
1.46 0 0
1.47 0 0
1.48 0 0
1.49 0 0
1.5 0 0
1.51 0 0
1.52 0 0
1.53 0 0
1.54 0 0
1.55 0 0
1.56 0 0
1.57 0 0
1.58 0 0
1.59 0 0
1.6 0 0
1.61 0 0
1.62 0 0
1.63 0 0
1.64 0 0
1.65 0 0
1.66 0 0
1.67 0 0
1.68 0 0
1.69 0 0
1.7 0 0
1.71 0 0
1.72 0 0
1.73 0 0
1.74 0 0
1.75 0 0
1.76 0 0
1.77 0 0
1.78 0 0
1.79 0 0
1.8 0 0
1.81 0 0
1.82 0 0
1.83 0 0
1.84 0 0
1.85 0 0
1.86 0 0
1.87 0 0
1.88 0 0
1.89 0 0
1.9 0 0
1.91 0 0
1.92 0 0
1.93 0 0
1.94 0 0
1.95 0 0
1.96 0 0
1.97 0 0
1.98 0 0
1.99 0 0
2 0.010289 0
2 0.0215307 0
2 0.0338135 0
2 0.0472336 0
2 0.0618965 0
2 0.0779171 0
2 0.0954213 0
2 0.114546 0
2 0.135442 0
2 0.158274 0
2 0.183219 0
2 0.210474 0
2 0.240253 0
2 0.27279 0
2 0.308339 0
2 0.347181 0
2 0.389619 0
2 0.435987 0
2 0.486649 0
2 0.542002 0
2 0.602481 0
2 0.66856 0
2 0.740758 0
2 0.819642 0
2 0.90583 0
1.9 1 0
1.8 1 0
1.7 1 0
1.6 1 0
1.5 1 0
1.4 1 0
1.3 1 0
1.2 1 0
1.1 1 0
1 1 0
0.9 1 0
0.8 1 0
0.7 1 0
0.6 1 0
0.5 1 0
0.4 1 0
0.3 1 0
0.2 1 0
0.1 1 0
3.69793e-12 1 0
-0.1 1 0
-0.2 1 0
-0.3 1 0
-0.4 1 0
-0.5 1 0
-0.6 1 0
-0.7 1 0
-0.8 1 0
-0.9 1 0
-1 0.90583 0
-1 0.819642 0
-1 0.740758 0
-1 0.66856 0
-1 0.602481 0
-1 0.542002 0
-1 0.486649 0
-1 0.435987 0
-1 0.389619 0
-1 0.347181 0
-1 0.308339 0
-1 0.27279 0
-1 0.240253 0
-1 0.210474 0
-1 0.183219 0
-1 0.158274 0
-1 0.135442 0
-1 0.114546 0
-1 0.0954213 0
-1 0.0779171 0
-1 0.0618965 0
-1 0.0472336 0
-1 0.0338135 0
-1 0.0215307 0
-1 0.010289 0
0.00921362 0.00379763 0
0.0184561 0.00752451 0
0.0277268 0.0111804 0
0.0370253 0.0147652 0
0.0463511 0.0182786 0
0.0557034 0.0217203 0
0.0650819 0.0250903 0
0.074486 0.0283883 0
0.083915 0.0316141 0
0.0933685 0.0347675 0
0.102846 0.0378484 0
0.112347 0.0408565 0
0.12187 0.0437917 0
0.131416 0.0466538 0
0.140983 0.0494427 0
0.150572 0.0521581 0
0.160181 0.0547999 0
0.16981 0.0573681 0
0.179458 0.0598623 0
0.189125 0.0622825 0
0.198811 0.0646285 0
0.208514 0.0669001 0
0.218234 0.0690974 0
0.227971 0.07122 0
0.237724 0.073268 0
0.247493 0.0752411 0
0.257276 0.0771393 0
0.267073 0.0789625 0
0.276884 0.0807105 0
0.286708 0.0823832 0
0.296545 0.0839806 0
0.306394 0.0855025 0
0.316254 0.0869488 0
0.326125 0.0883196 0
0.336006 0.0896146 0
0.345896 0.0908339 0
0.355796 0.0919773 0
0.365704 0.0930447 0
0.375621 0.0940362 0
0.385544 0.0949517 0
0.395474 0.095791 0
0.40541 0.0965542 0
0.415352 0.0972412 0
0.425299 0.097852 0
0.43525 0.0983865 0
0.445205 0.0988447 0
0.455164 0.0992266 0
0.465125 0.0995321 0
0.475088 0.0997613 0
0.485052 0.0999141 0
0.495017 0.0999904 0
0.504983 0.0999904 0
0.514948 0.0999141 0
0.524912 0.0997613 0
0.534875 0.0995321 0
0.544836 0.0992266 0
0.554795 0.0988447 0
0.56475 0.0983865 0
0.574701 0.097852 0
0.584648 0.0972412 0
0.59459 0.0965542 0
0.604526 0.095791 0
0.614456 0.0949517 0
0.624379 0.0940362 0
0.634296 0.0930447 0
0.644204 0.0919773 0
0.654104 0.0908339 0
0.663994 0.0896146 0
0.673875 0.0883196 0
0.683746 0.0869488 0
0.693606 0.0855025 0
0.703455 0.0839806 0
0.713292 0.0823832 0
0.723116 0.0807105 0
0.732927 0.0789625 0
0.742724 0.0771393 0
0.752508 0.0752411 0
0.762276 0.073268 0
0.772029 0.07122 0
0.781766 0.0690974 0
0.791486 0.0669001 0
0.801189 0.0646285 0
0.810875 0.0622825 0
0.820542 0.0598623 0
0.83019 0.0573681 0
0.839819 0.0547999 0
0.849428 0.0521581 0
0.859017 0.0494427 0
0.868584 0.0466538 0
0.87813 0.0437917 0
0.887653 0.0408565 0
0.897154 0.0378484 0
0.906631 0.0347675 0
0.916085 0.0316141 0
0.925514 0.0283883 0
0.934918 0.0250903 0
0.944297 0.0217203 0
0.953649 0.0182786 0
0.962975 0.0147652 0
0.972273 0.0111804 0
0.981544 0.00752451 0
0.990786 0.00379763 0
-1 0.90583 0.1
-1 0.819642 0.1
-1 0.740758 0.1
-1 0.66856 0.1
-1 0.602481 0.1
-1 0.542002 0.1
-1 0.486649 0.1
-1 0.435987 0.1
-1 0.389619 0.1
-1 0.347181 0.1
-1 0.308339 0.1
-1 0.27279 0.1
-1 0.240253 0.1
-1 0.210474 0.1
-1 0.183219 0.1
-1 0.158274 0.1
-1 0.135442 0.1
-1 0.114546 0.1
-1 0.0954213 0.1
-1 0.0779171 0.1
-1 0.0618965 0.1
-1 0.0472336 0.1
-1 0.0338135 0.1
-1 0.0215307 0.1
-1 0.010289 0.1
-0.99 0 0.1
-0.98 0 0.1
-0.97 0 0.1
-0.96 0 0.1
-0.95 0 0.1
-0.94 0 0.1
-0.93 0 0.1
-0.92 0 0.1
-0.91 0 0.1
-0.9 0 0.1
-0.89 0 0.1
-0.88 0 0.1
-0.87 0 0.1
-0.86 0 0.1
-0.85 0 0.1
-0.84 0 0.1
-0.83 0 0.1
-0.82 0 0.1
-0.81 0 0.1
-0.8 0 0.1
-0.79 0 0.1
-0.78 0 0.1
-0.77 0 0.1
-0.76 0 0.1
-0.75 0 0.1
-0.74 0 0.1
-0.73 0 0.1
-0.72 0 0.1
-0.71 0 0.1
-0.7 0 0.1
-0.69 0 0.1
-0.68 0 0.1
-0.67 0 0.1
-0.66 0 0.1
-0.65 0 0.1
-0.64 0 0.1
-0.63 0 0.1
-0.62 0 0.1
-0.61 0 0.1
-0.6 0 0.1
-0.59 0 0.1
-0.58 0 0.1
-0.57 0 0.1
-0.56 0 0.1
-0.55 0 0.1
-0.54 0 0.1
-0.53 0 0.1
-0.52 0 0.1
-0.51 0 0.1
-0.5 0 0.1
-0.49 0 0.1
-0.48 0 0.1
-0.47 0 0.1
-0.46 0 0.1
-0.45 0 0.1
-0.44 0 0.1
-0.43 0 0.1
-0.42 0 0.1
-0.41 0 0.1
-0.4 0 0.1
-0.39 0 0.1
-0.38 0 0.1
-0.37 0 0.1
-0.36 0 0.1
-0.35 0 0.1
-0.34 0 0.1
-0.33 0 0.1
-0.32 0 0.1
-0.31 0 0.1
-0.3 0 0.1
-0.29 0 0.1
-0.28 0 0.1
-0.27 0 0.1
-0.26 0 0.1
-0.25 0 0.1
-0.24 0 0.1
-0.23 0 0.1
-0.22 0 0.1
-0.21 0 0.1
-0.2 0 0.1
-0.19 0 0.1
-0.18 0 0.1
-0.17 0 0.1
-0.16 0 0.1
-0.15 0 0.1
-0.14 0 0.1
-0.13 0 0.1
-0.12 0 0.1
-0.11 0 0.1
-0.1 0 0.1
-0.09 0 0.1
-0.08 0 0.1
-0.07 0 0.1
-0.06 0 0.1
-0.05 0 0.1
-0.04 0 0.1
-0.03 0 0.1
-0.02 0 0.1
-0.01 0 0.1
0.00921362 0.00379763 0.1
0.0184561 0.00752451 0.1
0.0277268 0.0111804 0.1
0.0370253 0.0147652 0.1
0.0463511 0.0182786 0.1
0.0557034 0.0217203 0.1
0.0650819 0.0250903 0.1
0.074486 0.0283883 0.1
0.083915 0.0316141 0.1
0.0933685 0.0347675 0.1
0.102846 0.0378484 0.1
0.112347 0.0408565 0.1
0.12187 0.0437917 0.1
0.131416 0.0466538 0.1
0.140983 0.0494427 0.1
0.150572 0.0521581 0.1
0.160181 0.0547999 0.1
0.16981 0.0573681 0.1
0.179458 0.0598623 0.1
0.189125 0.0622825 0.1
0.198811 0.0646285 0.1
0.208514 0.0669001 0.1
0.218234 0.0690974 0.1
0.227971 0.07122 0.1
0.237724 0.073268 0.1
0.247493 0.0752411 0.1
0.257276 0.0771393 0.1
0.267073 0.0789625 0.1
0.276884 0.0807105 0.1
0.286708 0.0823832 0.1
0.296545 0.0839806 0.1
0.306394 0.0855025 0.1
0.316254 0.0869488 0.1
0.326125 0.0883196 0.1
0.336006 0.0896146 0.1
0.345896 0.0908339 0.1
0.355796 0.0919773 0.1
0.365704 0.0930447 0.1
0.375621 0.0940362 0.1
0.385544 0.0949517 0.1
0.395474 0.095791 0.1
0.40541 0.0965542 0.1
0.415352 0.0972412 0.1
0.425299 0.097852 0.1
0.43525 0.0983865 0.1
0.445205 0.0988447 0.1
0.455164 0.0992266 0.1
0.465125 0.0995321 0.1
0.475088 0.0997613 0.1
0.485052 0.0999141 0.1
0.495017 0.0999904 0.1
0.504983 0.0999904 0.1
0.514948 0.0999141 0.1
0.524912 0.0997613 0.1
0.534875 0.0995321 0.1
0.544836 0.0992266 0.1
0.554795 0.0988447 0.1
0.56475 0.0983865 0.1
0.574701 0.097852 0.1
0.584648 0.0972412 0.1
0.59459 0.0965542 0.1
0.604526 0.095791 0.1
0.614456 0.0949517 0.1
0.624379 0.0940362 0.1
0.634296 0.0930447 0.1
0.644204 0.0919773 0.1
0.654104 0.0908339 0.1
0.663994 0.0896146 0.1
0.673875 0.0883196 0.1
0.683746 0.0869488 0.1
0.693606 0.0855025 0.1
0.703455 0.0839806 0.1
0.713292 0.0823832 0.1
0.723116 0.0807105 0.1
0.732927 0.0789625 0.1
0.742724 0.0771393 0.1
0.752508 0.0752411 0.1
0.762276 0.073268 0.1
0.772029 0.07122 0.1
0.781766 0.0690974 0.1
0.791486 0.0669001 0.1
0.801189 0.0646285 0.1
0.810875 0.0622825 0.1
0.820542 0.0598623 0.1
0.83019 0.0573681 0.1
0.839819 0.0547999 0.1
0.849428 0.0521581 0.1
0.859017 0.0494427 0.1
0.868584 0.0466538 0.1
0.87813 0.0437917 0.1
0.887653 0.0408565 0.1
0.897154 0.0378484 0.1
0.906631 0.0347675 0.1
0.916085 0.0316141 0.1
0.925514 0.0283883 0.1
0.934918 0.0250903 0.1
0.944297 0.0217203 0.1
0.953649 0.0182786 0.1
0.962975 0.0147652 0.1
0.972273 0.0111804 0.1
0.981544 0.00752451 0.1
0.990786 0.00379763 0.1
1.01 0 0.1
1.02 0 0.1
1.03 0 0.1
1.04 0 0.1
1.05 0 0.1
1.06 0 0.1
1.07 0 0.1
1.08 0 0.1
1.09 0 0.1
1.1 0 0.1
1.11 0 0.1
1.12 0 0.1
1.13 0 0.1
1.14 0 0.1
1.15 0 0.1
1.16 0 0.1
1.17 0 0.1
1.18 0 0.1
1.19 0 0.1
1.2 0 0.1
1.21 0 0.1
1.22 0 0.1
1.23 0 0.1
1.24 0 0.1
1.25 0 0.1
1.26 0 0.1
1.27 0 0.1
1.28 0 0.1
1.29 0 0.1
1.3 0 0.1
1.31 0 0.1
1.32 0 0.1
1.33 0 0.1
1.34 0 0.1
1.35 0 0.1
1.36 0 0.1
1.37 0 0.1
1.38 0 0.1
1.39 0 0.1
1.4 0 0.1
1.41 0 0.1
1.42 0 0.1
1.43 0 0.1
1.44 0 0.1
1.45 0 0.1
1.46 0 0.1
1.47 0 0.1
1.48 0 0.1
1.49 0 0.1
1.5 0 0.1
1.51 0 0.1
1.52 0 0.1
1.53 0 0.1
1.54 0 0.1
1.55 0 0.1
1.56 0 0.1
1.57 0 0.1
1.58 0 0.1
1.59 0 0.1
1.6 0 0.1
1.61 0 0.1
1.62 0 0.1
1.63 0 0.1
1.64 0 0.1
1.65 0 0.1
1.66 0 0.1
1.67 0 0.1
1.68 0 0.1
1.69 0 0.1
1.7 0 0.1
1.71 0 0.1
1.72 0 0.1
1.73 0 0.1
1.74 0 0.1
1.75 0 0.1
1.76 0 0.1
1.77 0 0.1
1.78 0 0.1
1.79 0 0.1
1.8 0 0.1
1.81 0 0.1
1.82 0 0.1
1.83 0 0.1
1.84 0 0.1
1.85 0 0.1
1.86 0 0.1
1.87 0 0.1
1.88 0 0.1
[...]
CELL_DATA 7425
SCALARS rho float
LOOKUP_TABLE default
0.587063
0.805027
0.8195
0.827475
0.799376
0.819099
0.820871
0.814066
0.812909
0.738584
0.863467
0.810015
0.813827
0.827331
0.803671
0.817092
0.798711
0.813193
0.803461
0.76722
0.831232
0.82203
0.724734
0.828003
0.803867
0.702909
0.831165
0.848202
0.800154
0.807911
0.819327
0.725528
0.803608
0.652008
0.519072
0.82797
0.8035
0.814043
0.811124
0.827966
0.715887
0.70304
0.789938
0.702338
0.586348
0.748174
0.799259
0.813761
0.66117
0.719305
0.746304
0.805143
0.81234
0.799034
0.709888
0.622992
0.822863
0.800061
0.738455
0.700849
0.709329
0.807648
0.813162
0.799341
0.798763
0.817551
0.584259
0.773238
0.704832
0.807828
0.804142
0.803199
0.883385
0.821102
0.810825
0.812968
0.80504
0.80043
0.813169
0.757733
0.815917
0.807227
0.810218
0.788636
0.835872
0.801052
0.574345
0.829917
0.542357
0.848448
0.706984
0.729691
0.845167
0.80317
0.81734
0.75814
0.836005
0.787996
0.82558
0.802431
0.808036
0.738659
0.80328
0.828198
0.597142
0.811052
0.824326
0.707376
0.814931
0.799122
0.81665
0.78451
0.789758
0.812418
0.78967
0.786292
0.831214
0.803101
0.700225
0.629599
0.805039
0.777223
0.812872
0.790383
0.858908
0.83878
0.807683
0.804231
0.661124
0.503882
0.81441
0.654962
0.514957
0.867606
0.661485
0.79947
0.811086
0.723487
0.581903
0.724703
0.723165
0.809567
0.809571
0.707389
0.803111
0.779581
0.565372
0.788454
0.782534
0.827722
0.816722
0.704175
0.802862
0.744297
0.705293
0.803268
0.810416
0.830366
0.797517
0.651903
0.802493
0.703616
0.801058
0.829698
0.820404
0.802367
0.812991
0.784771
0.806264
0.800605
0.819654
0.80443
0.791121
0.799085
0.799846
0.740025
0.803651
0.758646
0.593926
0.706878
0.799636
0.792657
0.879777
0.831804
0.613125
0.822876
0.798591
0.82727
0.79983
0.813335
0.812534
0.803186
0.80693
0.704675
0.814947
0.819202
0.770062
0.797093
0.861038
0.807752
0.811798
0.811094
0.612791
0.838831
0.572921
0.531609
0.595399
0.600295
0.828099
0.879311
0.807516
0.798642
0.84135
0.812896
0.816623
0.820713
0.815139
0.637952
0.548722
0.813657
0.545394
0.592386
0.703524
0.811636
0.813999
0.812969
0.833093
0.812836
0.864117
0.71008
0.835182
0.712488
0.805156
0.803914
0.801946
0.713845
0.72033
0.61945
0.705704
0.86359
0.875292
0.806177
0.807685
0.798812
0.811492
0.715697
0.821555
0.800143
0.825646
0.794605
0.80978
0.72143
0.812736
0.823686
0.739678
0.528379
0.799822
0.736437
0.84326
0.814279
0.726636
0.815515
0.814776
0.849921
0.809444
0.803818
0.803248
0.825604
0.860731
0.805388
0.61921
0.848853
0.811935
0.805592
0.827495
0.837301
0.81292
0.821381
0.793481
0.815008
0.866518
0.849915
0.827285
0.836697
0.802655
0.817101
0.803187
0.75968
0.701137
0.580798
0.701048
0.802291
0.812819
0.815924
0.854626
0.779626
0.645693
0.827033
0.520647
0.774237
0.800932
0.646352
0.495
0.63905
0.815134
0.813165
0.812894
0.812657
0.826667
0.774404
0.811465
0.802658
0.812832
0.840672
0.867015
0.833515
0.802715
0.706379
0.795848
0.83425
0.691521
0.7987
0.802036
0.864757
0.817041
0.592973
0.813324
0.7404
0.85222
0.731918
0.810041
0.907643
0.799821
0.795591
0.658897
0.635515
0.711825
0.780526
0.826492
0.81487
0.813624
0.882317
0.858084
0.79949
0.799122
0.82601
0.73914
0.802508
0.879364
0.801374
0.804648
0.800654
0.802561
0.812898
0.815659
0.816311
0.6361
0.829935
0.645381
0.808426
0.639217
0.802569
0.802227
0.840224
0.728584
0.816331
0.808512
0.816921
0.799461
0.802489
0.811225
0.696592
0.82445
0.812988
0.81286
0.800673
0.7368
0.559863
0.806403
0.810951
0.803184
0.812821
0.794685
0.502832
0.845962
0.813246
0.803841
0.785681
0.813192
0.804637
0.802995
0.816177
0.8075
0.822457
0.768561
0.812616
0.807758
0.562586
0.803071
0.64006
0.838726
0.636175
0.814636
0.877877
0.593023
0.81805
0.748897
0.804404
0.873321
0.533562
0.82307
0.822206
0.80349
0.825689
0.811029
0.823406
0.830591
0.824787
0.739611
0.827473
0.76166
0.810174
0.794222
0.793583
0.758538
0.805588
0.802082
0.81441
0.752148
0.804673
0.60436
0.614152
0.688895
0.812742
0.844161
0.86481
0.829835
0.798536
0.81257
0.804854
0.81847
0.680449
0.800948
0.74289
0.824018
0.814738
0.805341
0.711924
0.72717
0.533557
0.605548
0.801251
0.611324
0.792534
0.765341
0.770002
0.727128
0.762408
0.767476
0.809371
0.814868
0.819495
0.811396
0.710383
0.602021
0.838993
0.806875
0.78312
0.80978
0.802541
0.836517
0.71803
0.855253
0.763667
0.728219
0.764456
0.811449
0.544892
0.798783
0.841578
0.813256
0.813719
0.809651
0.79912
0.78024
0.835666
0.803103
0.842936
0.721043
0.707539
0.800309
0.795109
0.821969
0.708644
0.847927
0.800376
0.815993
0.798687
0.779146
0.808212
0.59455
0.677377
0.632362
0.812869
0.803778
0.826308
0.749207
0.810585
0.814735
0.82034
0.798932
0.729234
0.796826
0.814243
0.803194
0.703041
0.813526
0.818856
0.839987
0.81071
0.825288
0.86227
0.857247
0.743863
0.603347
0.838
0.80577
0.843353
0.814163
0.822875
0.813456
0.813737
0.63334
0.805137
0.809257
0.812752
0.791863
0.810554
0.804721
0.860444
0.798619
0.812666
0.814652
0.871898
0.597568
0.813393
0.842364
0.883301
0.530364
0.816346
0.829907
0.796128
0.814736
0.794912
0.867574
0.812159
0.831307
0.812661
0.619294
0.802386
0.80414
0.690729
0.853115
0.75977
0.801794
0.813914
0.812646
0.859631
0.795338
0.833578
0.834681
0.784241
0.825145
0.842297
0.7997
0.810445
0.806912
0.805307
0.814792
0.802627
0.845191
0.769223
0.80977
0.803152
0.815177
0.72308
0.812826
0.8183
0.75256
0.813521
0.81631
0.827518
0.825071
0.800682
0.800631
0.850474
0.767938
0.825084
0.844173
0.80455
0.505511
0.812832
0.828235
0.852363
0.812589
0.803147
0.808515
0.855022
0.780073
0.802579
0.801203
0.812868
0.727033
0.802694
0.829971
0.807968
0.794958
0.793465
0.843165
0.806599
0.845292
0.802017
0.824203
0.812703
0.804211
0.841826
0.812801
0.679358
0.818727
0.807091
0.812775
0.906135
0.800783
0.815849
0.800462
0.800373
0.816149
0.800479
0.803353
0.783727
0.747329
0.806451
0.81283
0.757979
0.791358
0.822977
0.813008
0.82221
0.806293
0.825729
0.875287
0.830608
0.574652
0.708762
0.840719
0.817236
0.844126
0.814706
0.850075
0.807294
0.812366
0.799315
0.838375
0.860906
0.852763
0.731471
0.814029
0.822133
0.743988
0.817056
0.775909
0.800201
0.733023
0.816011
0.830825
0.823451
0.861771
0.814157
0.813236
0.81013
0.814588
0.835761
0.812191
0.798628
0.810223
0.737497
0.811285
0.774181
0.832805
0.812721
0.638749
0.777616
0.811104
0.799148
0.819778
0.802439
0.81462
0.817248
0.804432
0.81935
0.804158
0.805808
0.597136
0.847012
0.825088
0.826661
0.814877
0.803217
0.701799
0.806441
0.907825
0.813533
0.800994
0.812827
0.78226
0.807213
0.813229
0.821241
0.814627
0.813166
0.816186
0.702115
0.777808
0.764539
0.8126
0.805294
0.80099
0.621273
0.805673
0.8026
0.708142
0.837154
0.817149
0.802171
0.807416
0.799374
0.8172
0.813899
0.813228
0.812813
0.709641
0.831661
0.800271
0.807367
0.842764
0.817577
0.816243
0.800148
0.753643
0.823795
0.787375
0.821389
0.789397
0.805594
0.820907
0.737508
0.817359
0.650378
0.872008
0.704285
0.844976
0.80076
0.875141
0.79367
0.80166
0.820625
0.836184
0.838385
0.825432
0.819781
0.81466
0.80109
0.804172
0.808226
0.725644
0.827213
0.800077
0.7197
0.830501
0.70648
0.799965
0.860329
0.805573
0.701303
0.797831
0.814031
0.705083
0.785654
0.819338
0.831827
0.806913
0.572907
0.728541
0.812374
0.801289
0.812862
0.80064
0.737182
0.81396
0.815666
0.812429
0.775328
0.803261
0.804485
0.803533
0.560359
0.81265
0.834081
0.579683
0.815113
0.816052
0.814644
0.818313
0.814367
0.824497
0.799044
0.795111
0.771033
0.822872
0.829641
0.825081
0.83483
0.765313
0.808949
0.724317
0.772358
0.808764
0.821028
0.813227
0.800967
0.858221
0.812867
0.800292
0.80954
0.816046
0.815136
0.836596
0.81444
0.812747
0.811971
0.813763
0.800104
0.820951
0.803759
0.822786
0.81341
0.575414
0.813457
0.834428
0.858005
0.838156
0.490566
0.816759
0.804493
0.496405
0.669274
0.643026
0.834266
0.807943
0.811641
0.812742
0.803202
0.816699
0.810935
0.534449
0.686381
0.818217
0.806618
0.815564
0.803503
0.810225
0.810851
0.820194
0.79949
0.692155
0.855856
0.803148
0.814705
0.813568
0.757743
0.4855
0.832857
0.813517
0.742006
0.802699
0.806165
0.590765
0.827492
0.814731
0.827681
0.818734
0.825936
0.804723
0.719311
0.643499
0.561977
0.825275
0.808475
0.782975
0.812911
0.779755
0.817842
0.873297
0.762333
0.821565
0.813473
0.825797
0.883548
0.814389
0.811779
0.803255
0.813855
0.691646
0.828169
0.799852
0.810122
0.802197
0.784232
0.854135
0.821998
0.840458
0.821479
0.757598
0.755871
0.803271
0.818056
0.803061
0.805237
0.802577
0.775608
0.814632
0.761533
0.821102
0.662005
0.813919
0.802951
0.735763
0.823226
0.817935
0.739951
0.801155
0.757175
0.880568
0.800717
0.812777
0.762641
0.800048
0.814218
0.803943
0.589777
0.820907
0.798627
0.801304
0.814472
0.825573
0.757084
0.805484
0.841569
0.82689
0.814074
0.835803
0.701076
0.700096
0.812863
0.744121
0.822174
0.771335
0.81277
0.80251
0.810365
0.751918
0.794184
0.764286
0.809839
0.803141
0.631133
0.778986
0.799229
0.848946
0.814314
0.828611
0.526314
0.825319
0.785108
0.858712
0.800934
0.817955
0.800245
0.785749
0.79871
0.825673
0.835738
0.821731
0.81707
0.707048
0.773791
0.815315
0.805372
0.809917
0.803901
0.707008
0.792795
0.803442
0.81061
0.827131
0.851188
0.831814
0.813407
0.799392
0.804198
0.801999
0.779609
0.611531
0.800283
0.731221
0.661839
0.822764
0.79881
0.777271
0.799941
0.754123
0.785278
0.811393
0.822141
0.803304
0.815958
0.817313
0.820631
0.813331
0.80844
0.712103
0.699339
0.640839
0.829239
0.869547
0.815333
0.841315
0.847809
0.863718
0.735586
0.816543
0.862991
0.810151
0.812807
0.816155
0.732728
0.812373
0.80661
0.806149
0.517083
0.812903
0.761137
0.813098
0.813771
0.803536
0.705648
0.813138
0.610531
0.824995
0.802245
0.82221
0.855137
0.803424
0.795357
0.820886
0.811522
0.805683
0.762213
0.509617
0.82085
0.803075
0.828875
0.825719
0.802054
0.807015
0.834434
0.72076
0.500178
0.886247
0.800544
0.815635
0.804314
0.71055
0.798591
0.799965
0.815009
0.735983
0.646435
0.883234
0.714095
0.836513
0.811926
0.83285
0.84263
0.79213
0.804737
0.813538
0.852757
0.738272
0.870685
0.813959
0.562698
0.802414
0.748942
0.852884
0.76024
0.804209
0.803947
0.799593
0.801573
0.808821
0.812842
0.855487
0.805942
0.802863
0.801305
0.799967
0.812175
0.816821
0.802613
0.812419
0.849177
0.803095
0.783412
0.80223
0.839532
0.724902
0.813569
0.813768
0.636544
0.713042
0.805532
0.822979
0.803507
0.511515
0.856254
0.813155
0.83294
0.805297
0.803308
0.801324
0.786199
0.587089
0.804282
0.816047
0.835962
0.820516
0.812885
0.798114
0.746869
0.801556
0.76572
0.787514
0.799291
0.790945
0.75107
0.800803
0.811408
0.810311
0.832168
0.849003
0.553105
0.841869
0.812777
0.820833
0.801965
0.822642
0.81101
0.894601
0.8002
0.867022
0.805674
0.759714
0.862101
0.80227
0.800235
0.824116
0.660327
0.645212
0.803389
0.803846
0.705294
0.654231
0.799892
0.823806
0.812966
0.822541
0.732875
0.817147
0.812778
0.826088
0.816901
0.81193
0.812797
0.754538
0.80385
0.815624
0.811264
0.676158
0.566322
0.812835
0.649932
0.721876
0.554982
0.841362
0.800081
0.52673
0.600673
0.827483
0.908057
0.818095
0.652241
0.8141
0.786393
0.80168
0.786345
0.820597
0.810055
0.788262
0.821007
0.800959
0.587548
0.817773
0.766625
0.815876
0.701053
0.822173
0.789597
0.813891
0.800004
0.6628
0.843485
0.806514
0.806565
0.493314
0.816779
0.800344
0.852092
0.711399
0.817033
0.583638
0.718775
0.801366
0.796624
0.732633
0.715461
0.716074
0.506737
0.589023
0.799941
0.517276
0.822552
0.519886
0.757147
0.671126
0.598847
0.540374
0.745385
0.803077
0.715305
0.821248
0.800909
0.802908
0.76115
0.889664
0.799001
0.824436
0.80342
0.812722
0.705902
0.807523
0.736647
0.821862
0.886022
0.833537
0.747662
0.822742
0.770447
0.879885
0.804188
0.758622
0.850654
0.776817
0.799919
0.80524
0.758188
0.744525
0.664997
0.804976
0.803018
0.817858
0.833451
0.611403
0.807861
0.537916
0.668521
0.616069
0.81846
0.820993
0.808939
0.803968
0.615595
0.87244
0.802673
0.802942
0.863492
0.812358
0.771985
0.812095
0.80236
0.81785
0.803142
0.716985
0.803332
0.655127
0.798963
0.804049
0.801532
0.639091
0.811487
0.810268
0.725618
0.817747
0.548972
0.576582
0.804136
0.696418
0.725892
0.571985
0.723529
0.813561
0.707733
0.772942
0.716753
0.812768
0.670128
0.762063
0.806424
0.81055
0.65439
0.801936
0.895142
0.796681
0.816742
0.584957
0.693738
0.800885
0.812878
0.81395
0.851631
0.812581
0.804241
0.803717
0.803331
0.713728
0.717596
0.615525
0.771419
0.532501
0.723986
0.80986
0.814351
0.806081
0.799219
0.53525
0.809007
0.803749
0.553815
0.543116
0.746547
0.803565
0.80613
0.549192
0.798185
0.569461
0.72035
0.607673
0.8135
0.802219
0.596932
0.608193
0.867873
0.810009
0.765365
0.71777
0.621482
0.655253
0.709927
0.815958
0.759732
0.765503
0.62392
0.753817
0.809252
0.815309
0.812387
0.815415
0.865518
0.754631
0.81888
0.803321
0.851252
0.81279
0.802768
0.813014
0.722647
0.812895
0.811937
0.81513
0.811097
0.815838
0.803265
0.817873
0.810331
0.809681
0.817213
0.800104
0.81654
0.818899
0.667398
0.818555
0.868391
0.818114
0.79291
0.645832
0.858553
0.818735
0.82484
0.799498
0.811143
0.757505
0.852514
0.558883
0.726527
0.809848
0.815609
0.803865
0.803354
0.832005
0.804974
0.805171
0.815204
0.780675
0.838514
0.841911
0.815161
0.66424
0.61196
0.815708
0.816565
0.788251
0.849596
0.847227
0.810792
0.813574
0.777711
0.814028
0.817778
0.814052
0.818722
0.813039
0.815765
0.851011
0.815911
0.814446
0.817498
0.817712
0.784868
0.814063
0.804004
0.804075
0.804572
0.818514
0.811415
0.788303
0.753983
0.812605
0.806266
0.808717
0.806365
0.857744
0.803307
0.813935
0.812625
0.805151
0.559088
0.803877
0.812669
0.81496
0.810298
0.812712
0.813233
0.812953
0.810163
0.864368
0.501283
0.812742
0.841624
0.812579
0.802949
0.808392
0.814937
0.839639
0.800401
0.801162
0.812571
0.706339
0.812759
0.808174
0.807299
0.812484
0.812811
0.812955
0.813289
0.511554
0.811847
0.715634
0.885825
0.821005
0.733453
0.670943
0.8153
0.803459
0.818669
0.64641
0.801635
0.813261
0.647898
0.799806
0.80408
0.815373
0.806234
0.856708
0.809836
0.606826
0.800793
0.775173
0.811199
0.889056
0.80324
0.815497
0.819277
0.83217
0.813327
0.822345
0.8363
0.63488
0.802581
0.655698
0.813677
0.813577
0.712604
0.813462
0.804765
0.713176
0.814868
0.701102
0.861044
0.784045
0.814229
0.812815
0.813356
0.66778
0.813583
0.633214
0.800161
0.792346
0.82224
0.815115
0.715923
0.766689
0.830001
0.812681
0.821259
0.821848
0.813365
0.825279
0.799456
0.551954
0.754909
0.759147
0.731477
0.837563
0.822291
0.834302
0.775969
0.802753
0.812951
0.812872
0.812876
0.7746
0.563685
0.803196
0.528278
0.808154
0.824212
0.799656
0.80375
0.812898
0.805999
0.782569
0.732147
0.813313
0.859115
0.813649
0.799246
0.736941
0.809545
0.788696
0.833681
0.503573
0.795962
0.805843
0.798828
0.68883
0.812765
0.810698
0.856982
0.568951
0.807319
0.803263
0.812749
0.612316
0.81301
0.803327
0.803395
0.803019
0.813123
0.813221
0.81604
0.812961
0.717962
0.80449
0.803194
0.812909
0.896147
0.813068
0.773935
0.841094
0.799169
0.803128
0.601232
0.812802
0.803351
0.825594
0.80195
0.866194
0.814772
0.853334
0.800293
0.820572
0.777846
0.558149
0.752632
0.794188
0.803874
0.81392
0.81373
0.555362
0.861755
0.857829
0.768408
0.757646
0.738499
0.812003
0.848344
0.81284
0.813665
0.812875
0.804263
0.726766
0.803491
0.799062
0.764219
0.824201
0.822934
0.861813
0.815579
0.812886
0.523909
0.808874
0.812846
0.80067
0.773922
0.81805
0.803105
0.812801
0.826825
0.798431
0.80355
0.801189
0.815113
0.839067
0.802325
0.799121
0.801442
0.766094
0.819797
0.566942
0.868349
0.803677
0.545595
0.803119
0.80308
0.819507
0.591273
0.606044
0.801514
0.803585
0.800805
0.860699
0.779886
0.814563
0.802927
0.865636
0.804702
0.80444
0.826267
0.815879
0.820034
0.821206
0.820254
0.867449
0.729205
0.852111
0.817124
0.653588
0.802504
0.803174
0.803626
0.821049
0.823437
0.803933
0.801045
0.800008
0.822605
0.803162
0.803593
0.799617
0.824314
0.803961
0.801972
0.806063
0.827799
0.800491
0.801484
0.824201
0.799543
0.815299
0.651184
0.826318
0.849799
0.804836
0.819496
0.803218
0.828679
0.837435
0.803389
0.821402
0.800498
0.806926
0.789532
0.802137
0.803122
0.806342
0.805866
0.804467
0.818466
0.81466
0.811215
0.831342
0.802132
0.802205
0.799859
0.788986
0.833724
0.803132
0.819224
0.815122
0.807075
0.804994
0.802943
0.838848
0.864648
0.799526
0.678871
0.801153
0.842092
0.816508
0.805074
0.804451
0.819656
0.844541
0.601191
0.82869
0.794437
0.850283
0.81865
0.81197
0.813239
0.80818
0.803943
0.812741
0.808729
0.591736
0.847929
0.794564
0.814089
0.854539
0.819197
0.763131
0.808599
0.814361
0.815378
0.802948
0.661608
0.809146
0.86311
0.802527
0.800672
0.775354
0.871183
0.800401
0.877037
0.806635
0.817079
0.820533
0.80217
0.803782
0.812505
0.815794
0.803418
0.813228
0.816652
0.88132
0.820659
0.809277
0.800086
0.828346
0.81046
0.83878
0.808767
0.806925
0.812059
0.81646
0.82985
0.813564
0.822459
0.832458
0.814103
0.699546
0.690546
0.812944
0.817658
0.803756
0.813025
0.513766
0.85483
0.79972
0.806209
0.813842
0.813386
0.803943
0.81238
0.800432
0.801171
0.807978
0.814666
0.756816
0.784592
0.822863
0.842601
0.834749
0.800212
0.805009
0.803345
0.812887
0.805664
0.799477
0.799748
0.800976
0.810849
0.797785
0.802698
0.835427
0.831253
0.729716
0.66253
0.807554
0.698408
0.799445
0.571834
0.804391
0.806897
0.803057
0.818077
0.833701
0.813826
0.812754
0.810242
0.803828
0.881489
0.816176
0.804745
0.772212
0.585572
0.810218
0.806569
0.769313
0.814319
0.813775
0.791442
0.800682
0.804015
0.624025
0.830387
0.803491
0.781427
0.779265
0.852664
0.809969
0.802832
0.80255
0.810144
0.811034
0.518434
0.801752
0.839429
0.813825
0.798546
0.588584
0.81448
0.81397
0.812841
0.833662
0.813817
0.803906
0.82181
0.805528
0.575664
0.808605
0.736435
0.798482
0.813532
0.722129
0.814829
0.84591
0.831563
0.664407
0.890876
0.785552
0.777349
0.796848
0.779496
0.808572
0.84988
0.807924
0.802845
0.813445
0.808767
0.782575
0.785891
0.813782
0.80826
0.834792
0.82119
0.835626
0.801217
0.799614
0.812938
0.856564
0.816382
0.818289
0.813241
0.607242
0.795496
0.823813
0.829286
0.865855
0.812494
0.818869
0.508462
0.809646
0.800549
0.812506
0.814663
0.847531
0.812944
0.811065
0.881467
0.764479
0.812514
0.81313
0.808929
0.805191
0.814126
0.655828
0.800477
0.849474
0.833459
0.81053
0.813469
0.813261
0.809544
0.698792
0.812404
0.800117
0.838503
0.818385
0.81153
0.831257
0.792649
0.811458
0.817724
0.808737
0.819199
0.744165
0.854653
0.818874
0.813706
0.812947
0.812594
0.815622
0.817064
0.81264
0.810693
0.841013
0.818504
0.800108
0.825231
0.826874
0.815964
0.81442
0.80032
0.80148
0.812936
0.818934
0.829351
0.812686
0.816363
0.799779
0.809866
0.812722
0.81269
0.802485
0.814563
0.813221
0.803218
0.812746
0.835588
0.800002
0.809336
0.821449
0.559812
0.81411
0.818073
0.815428
0.814912
0.821881
0.828752
0.815524
0.818744
0.701367
0.812947
0.8013
0.815517
0.81892
0.835009
0.821477
0.815477
0.829293
0.824857
0.810565
0.819154
0.81945
0.804136
0.813045
0.815505
0.819399
0.832038
0.812519
0.815599
0.802705
0.812819
0.81294
0.522332
0.627493
0.814318
0.821352
0.801691
0.822385
0.815807
0.841804
0.708052
0.813638
0.730368
0.81732
0.810217
0.81305
0.829278
0.813548
0.804811
0.812805
0.830014
0.839214
0.812686
0.71913
0.819213
0.815933
0.79988
0.803021
0.815209
0.855875
0.812535
0.813262
0.849641
0.828933
0.843213
0.573191
0.829032
0.813837
0.810799
0.817304
0.850422
0.817669
0.718336
0.799498
0.831696
0.799724
0.799687
0.805362
0.747778
0.813287
0.814242
0.725341
0.814254
0.827276
0.813207
0.813929
0.799177
0.818282
0.81287
0.823465
0.808678
0.808117
0.814875
0.705296
0.818982
0.813976
0.812854
0.639763
0.718799
0.599266
0.82321
0.529283
0.853728
0.727266
0.842735
0.812416
0.722591
0.821346
0.815785
0.742497
0.807628
0.818258
0.794389
0.816426
0.815762
0.815692
0.812871
0.807788
0.80365
0.737238
0.836055
0.820078
0.816512
0.799186
0.815372
0.80195
0.815906
0.813351
0.854524
0.817677
0.496749
0.813205
0.818694
0.818567
0.77802
0.815684
0.806704
0.818516
0.845268
0.59631
0.809049
0.799258
0.815218
0.817523
0.817594
0.812338
0.818504
0.813758
0.814481
0.803061
0.814178
0.846047
0.81383
0.791983
0.811385
0.622431
0.718744
0.812949
0.816895
0.802911
0.822211
0.735431
0.803145
0.80318
0.820112
0.620295
0.817497
0.799306
0.815312
0.864565
0.785458
0.821857
0.817879
0.822697
0.813911
0.769554
0.802411
0.813456
0.902277
0.827103
0.816326
0.832149
0.809496
0.868099
0.719405
0.686129
0.852254
0.802693
0.659858
0.850218
0.786018
0.831932