# vtk DataFile Version 1.0
unstructured grid
ascii
DATASET UNSTRUCTURED_GRID
points 7812 float
-1 0 0
-1 1 0
2 0 0
2 1 0
0 0 0
1 0 0
-1 1 0.1
-1 0 0.1
0 0 0.1
1 0 0.1
2 0 0.1
2 1 0.1
-0.99 0 0
-0.98 0 0
-0.97 0 0
-0.96 0 0
-0.95 0 0
-0.94 0 0
-0.93 0 0
-0.92 0 0
-0.91 0 0
-0.9 0 0
-0.89 0 0
-0.88 0 0
-0.87 0 0
-0.86 0 0
-0.85 0 0
-0.84 0 0
-0.83 0 0
-0.82 0 0
-0.81 0 0
-0.8 0 0
-0.79 0 0
-0.78 0 0
-0.77 0 0
-0.76 0 0
-0.75 0 0
-0.74 0 0
-0.73 0 0
-0.72 0 0
-0.71 0 0
-0.7 0 0
-0.69 0 0
-0.68 0 0
-0.67 0 0
-0.66 0 0
-0.65 0 0
-0.64 0 0
-0.63 0 0
-0.62 0 0
-0.61 0 0
-0.6 0 0
-0.59 0 0
-0.58 0 0
-0.57 0 0
-0.56 0 0
-0.55 0 0
-0.54 0 0
-0.53 0 0
-0.52 0 0
-0.51 0 0
-0.5 0 0
-0.49 0 0
-0.48 0 0
-0.47 0 0
-0.46 0 0
-0.45 0 0
-0.44 0 0
-0.43 0 0
-0.42 0 0
-0.41 0 0
-0.4 0 0
-0.39 0 0
-0.38 0 0
-0.37 0 0
-0.36 0 0
-0.35 0 0
-0.34 0 0
-0.33 0 0
-0.32 0 0
-0.31 0 0
-0.3 0 0
-0.29 0 0
-0.28 0 0
-0.27 0 0
-0.26 0 0
-0.25 0 0
-0.24 0 0
-0.23 0 0
-0.22 0 0
-0.21 0 0
-0.2 0 0
-0.19 0 0
-0.18 0 0
-0.17 0 0
-0.16 0 0
-0.15 0 0
-0.14 0 0
-0.13 0 0
-0.12 0 0
-0.11 0 0
-0.1 0 0
-0.09 0 0
-0.08 0 0
-0.07 0 0
-0.06 0 0
-0.05 0 0
-0.04 0 0
-0.03 0 0
-0.02 0 0
-0.01 0 0
1.01 0 0
1.02 0 0
1.03 0 0
1.04 0 0
1.05 0 0
1.06 0 0
1.07 0 0
1.08 0 0
1.09 0 0
1.1 0 0
1.11 0 0
1.12 0 0
1.13 0 0
1.14 0 0
1.15 0 0
1.16 0 0
1.17 0 0
1.18 0 0
1.19 0 0
1.2 0 0
1.21 0 0
1.22 0 0
1.23 0 0
1.24 0 0
1.25 0 0
1.26 0 0
1.27 0 0
1.28 0 0
1.29 0 0
1.3 0 0
1.31 0 0
1.32 0 0
1.33 0 0
1.34 0 0
1.35 0 0
1.36 0 0
1.37 0 0
1.38 0 0
1.39 0 0
1.4 0 0
1.41 0 0
1.42 0 0
1.43 0 0
1.44 0 0
1.45 0 0
1.46 0 0
1.47 0 0
1.48 0 0
1.49 0 0
1.5 0 0
1.51 0 0
1.52 0 0
1.53 0 0
1.54 0 0
1.55 0 0
1.56 0 0
1.57 0 0
1.58 0 0
1.59 0 0
1.6 0 0
1.61 0 0
1.62 0 0
1.63 0 0
1.64 0 0
1.65 0 0
1.66 0 0
1.67 0 0
1.68 0 0
1.69 0 0
1.7 0 0
1.71 0 0
1.72 0 0
1.73 0 0
1.74 0 0
1.75 0 0
1.76 0 0
1.77 0 0
1.78 0 0
1.79 0 0
1.8 0 0
1.81 0 0
1.82 0 0
1.83 0 0
1.84 0 0
1.85 0 0
1.86 0 0
1.87 0 0
1.88 0 0
1.89 0 0
1.9 0 0
1.91 0 0
1.92 0 0
1.93 0 0
1.94 0 0
1.95 0 0
1.96 0 0
1.97 0 0
1.98 0 0
1.99 0 0
2 0.010289 0
2 0.0215307 0
2 0.0338135 0
2 0.0472336 0
2 0.0618965 0
2 0.0779171 0
2 0.0954213 0
2 0.114546 0
2 0.135442 0
2 0.158274 0
2 0.183219 0
2 0.210474 0
2 0.240253 0
2 0.27279 0
2 0.308339 0
2 0.347181 0
2 0.389619 0
2 0.435987 0
2 0.486649 0
2 0.542002 0
2 0.602481 0
2 0.66856 0
2 0.740758 0
2 0.819642 0
2 0.90583 0
1.9 1 0
1.8 1 0
1.7 1 0
1.6 1 0
1.5 1 0
1.4 1 0
1.3 1 0
1.2 1 0
1.1 1 0
1 1 0
0.9 1 0
0.8 1 0
0.7 1 0
0.6 1 0
0.5 1 0
0.4 1 0
0.3 1 0
0.2 1 0
0.1 1 0
3.69793e-12 1 0
-0.1 1 0
-0.2 1 0
-0.3 1 0
-0.4 1 0
-0.5 1 0
-0.6 1 0
-0.7 1 0
-0.8 1 0
-0.9 1 0
-1 0.90583 0
-1 0.819642 0
-1 0.740758 0
-1 0.66856 0
-1 0.602481 0
-1 0.542002 0
-1 0.486649 0
-1 0.435987 0
-1 0.389619 0
-1 0.347181 0
-1 0.308339 0
-1 0.27279 0
-1 0.240253 0
-1 0.210474 0
-1 0.183219 0
-1 0.158274 0
-1 0.135442 0
-1 0.114546 0
-1 0.0954213 0
-1 0.0779171 0
-1 0.0618965 0
-1 0.0472336 0
-1 0.0338135 0
-1 0.0215307 0
-1 0.010289 0
0.00921362 0.00379763 0
0.0184561 0.00752451 0
0.0277268 0.0111804 0
0.0370253 0.0147652 0
0.0463511 0.0182786 0
0.0557034 0.0217203 0
0.0650819 0.0250903 0
0.074486 0.0283883 0
0.083915 0.0316141 0
0.0933685 0.0347675 0
0.102846 0.0378484 0
0.112347 0.0408565 0
0.12187 0.0437917 0
0.131416 0.0466538 0
0.140983 0.0494427 0
0.150572 0.0521581 0
0.160181 0.0547999 0
0.16981 0.0573681 0
0.179458 0.0598623 0
0.189125 0.0622825 0
0.198811 0.0646285 0
0.208514 0.0669001 0
0.218234 0.0690974 0
0.227971 0.07122 0
0.237724 0.073268 0
0.247493 0.0752411 0
0.257276 0.0771393 0
0.267073 0.0789625 0
0.276884 0.0807105 0
0.286708 0.0823832 0
0.296545 0.0839806 0
0.306394 0.0855025 0
0.316254 0.0869488 0
0.326125 0.0883196 0
0.336006 0.0896146 0
0.345896 0.0908339 0
0.355796 0.0919773 0
0.365704 0.0930447 0
0.375621 0.0940362 0
0.385544 0.0949517 0
0.395474 0.095791 0
0.40541 0.0965542 0
0.415352 0.0972412 0
0.425299 0.097852 0
0.43525 0.0983865 0
0.445205 0.0988447 0
0.455164 0.0992266 0
0.465125 0.0995321 0
0.475088 0.0997613 0
0.485052 0.0999141 0
0.495017 0.0999904 0
0.504983 0.0999904 0
0.514948 0.0999141 0
0.524912 0.0997613 0
0.534875 0.0995321 0
0.544836 0.0992266 0
0.554795 0.0988447 0
0.56475 0.0983865 0
0.574701 0.097852 0
0.584648 0.0972412 0
0.59459 0.0965542 0
0.604526 0.095791 0
0.614456 0.0949517 0
0.624379 0.0940362 0
0.634296 0.0930447 0
0.644204 0.0919773 0
0.654104 0.0908339 0
0.663994 0.0896146 0
0.673875 0.0883196 0
0.683746 0.0869488 0
0.693606 0.0855025 0
0.703455 0.0839806 0
0.713292 0.0823832 0
0.723116 0.0807105 0
0.732927 0.0789625 0
0.742724 0.0771393 0
0.752508 0.0752411 0
0.762276 0.073268 0
0.772029 0.07122 0
0.781766 0.0690974 0
0.791486 0.0669001 0
0.801189 0.0646285 0
0.810875 0.0622825 0
0.820542 0.0598623 0
0.83019 0.0573681 0
0.839819 0.0547999 0
0.849428 0.0521581 0
0.859017 0.0494427 0
0.868584 0.0466538 0
0.87813 0.0437917 0
0.887653 0.0408565 0
0.897154 0.0378484 0
0.906631 0.0347675 0
0.916085 0.0316141 0
0.925514 0.0283883 0
0.934918 0.0250903 0
0.944297 0.0217203 0
0.953649 0.0182786 0
0.962975 0.0147652 0
0.972273 0.0111804 0
0.981544 0.00752451 0
0.990786 0.00379763 0
-1 0.90583 0.1
-1 0.819642 0.1
-1 0.740758 0.1
-1 0.66856 0.1
-1 0.602481 0.1
-1 0.542002 0.1
-1 0.486649 0.1
-1 0.435987 0.1
-1 0.389619 0.1
-1 0.347181 0.1
-1 0.308339 0.1
-1 0.27279 0.1
-1 0.240253 0.1
-1 0.210474 0.1
-1 0.183219 0.1
-1 0.158274 0.1
-1 0.135442 0.1
-1 0.114546 0.1
-1 0.0954213 0.1
-1 0.0779171 0.1
-1 0.0618965 0.1
-1 0.0472336 0.1
-1 0.0338135 0.1
-1 0.0215307 0.1
-1 0.010289 0.1
-0.99 0 0.1
-0.98 0 0.1
-0.97 0 0.1
-0.96 0 0.1
-0.95 0 0.1
-0.94 0 0.1
-0.93 0 0.1
-0.92 0 0.1
-0.91 0 0.1
-0.9 0 0.1
-0.89 0 0.1
-0.88 0 0.1
-0.87 0 0.1
-0.86 0 0.1
-0.85 0 0.1
-0.84 0 0.1
-0.83 0 0.1
-0.82 0 0.1
-0.81 0 0.1
-0.8 0 0.1
-0.79 0 0.1
-0.78 0 0.1
-0.77 0 0.1
-0.76 0 0.1
-0.75 0 0.1
-0.74 0 0.1
-0.73 0 0.1
-0.72 0 0.1
-0.71 0 0.1
-0.7 0 0.1
-0.69 0 0.1
-0.68 0 0.1
-0.67 0 0.1
-0.66 0 0.1
-0.65 0 0.1
-0.64 0 0.1
-0.63 0 0.1
-0.62 0 0.1
-0.61 0 0.1
-0.6 0 0.1
-0.59 0 0.1
-0.58 0 0.1
-0.57 0 0.1
-0.56 0 0.1
-0.55 0 0.1
-0.54 0 0.1
-0.53 0 0.1
-0.52 0 0.1
-0.51 0 0.1
-0.5 0 0.1
-0.49 0 0.1
-0.48 0 0.1
-0.47 0 0.1
-0.46 0 0.1
-0.45 0 0.1
-0.44 0 0.1
-0.43 0 0.1
-0.42 0 0.1
-0.41 0 0.1
-0.4 0 0.1
-0.39 0 0.1
-0.38 0 0.1
-0.37 0 0.1
-0.36 0 0.1
-0.35 0 0.1
-0.34 0 0.1
-0.33 0 0.1
-0.32 0 0.1
-0.31 0 0.1
-0.3 0 0.1
-0.29 0 0.1
-0.28 0 0.1
-0.27 0 0.1
-0.26 0 0.1
-0.25 0 0.1
-0.24 0 0.1
-0.23 0 0.1
-0.22 0 0.1
-0.21 0 0.1
-0.2 0 0.1
-0.19 0 0.1
-0.18 0 0.1
-0.17 0 0.1
-0.16 0 0.1
-0.15 0 0.1
-0.14 0 0.1
-0.13 0 0.1
-0.12 0 0.1
-0.11 0 0.1
-0.1 0 0.1
-0.09 0 0.1
-0.08 0 0.1
-0.07 0 0.1
-0.06 0 0.1
-0.05 0 0.1
-0.04 0 0.1
-0.03 0 0.1
-0.02 0 0.1
-0.01 0 0.1
0.00921362 0.00379763 0.1
0.0184561 0.00752451 0.1
0.0277268 0.0111804 0.1
0.0370253 0.0147652 0.1
0.0463511 0.0182786 0.1
0.0557034 0.0217203 0.1
0.0650819 0.0250903 0.1
0.074486 0.0283883 0.1
0.083915 0.0316141 0.1
0.0933685 0.0347675 0.1
0.102846 0.0378484 0.1
0.112347 0.0408565 0.1
0.12187 0.0437917 0.1
0.131416 0.0466538 0.1
0.140983 0.0494427 0.1
0.150572 0.0521581 0.1
0.160181 0.0547999 0.1
0.16981 0.0573681 0.1
0.179458 0.0598623 0.1
0.189125 0.0622825 0.1
0.198811 0.0646285 0.1
0.208514 0.0669001 0.1
0.218234 0.0690974 0.1
0.227971 0.07122 0.1
0.237724 0.073268 0.1
0.247493 0.0752411 0.1
0.257276 0.0771393 0.1
0.267073 0.0789625 0.1
0.276884 0.0807105 0.1
0.286708 0.0823832 0.1
0.296545 0.0839806 0.1
0.306394 0.0855025 0.1
0.316254 0.0869488 0.1
0.326125 0.0883196 0.1
0.336006 0.0896146 0.1
0.345896 0.0908339 0.1
0.355796 0.0919773 0.1
0.365704 0.0930447 0.1
0.375621 0.0940362 0.1
0.385544 0.0949517 0.1
0.395474 0.095791 0.1
0.40541 0.0965542 0.1
0.415352 0.0972412 0.1
0.425299 0.097852 0.1
0.43525 0.0983865 0.1
0.445205 0.0988447 0.1
0.455164 0.0992266 0.1
0.465125 0.0995321 0.1
0.475088 0.0997613 0.1
0.485052 0.0999141 0.1
0.495017 0.0999904 0.1
0.504983 0.0999904 0.1
0.514948 0.0999141 0.1
0.524912 0.0997613 0.1
0.534875 0.0995321 0.1
0.544836 0.0992266 0.1
0.554795 0.0988447 0.1
0.56475 0.0983865 0.1
0.574701 0.097852 0.1
0.584648 0.0972412 0.1
0.59459 0.0965542 0.1
0.604526 0.095791 0.1
0.614456 0.0949517 0.1
0.624379 0.0940362 0.1
0.634296 0.0930447 0.1
0.644204 0.0919773 0.1
0.654104 0.0908339 0.1
0.663994 0.0896146 0.1
0.673875 0.0883196 0.1
0.683746 0.0869488 0.1
0.693606 0.0855025 0.1
0.703455 0.0839806 0.1
0.713292 0.0823832 0.1
0.723116 0.0807105 0.1
0.732927 0.0789625 0.1
0.742724 0.0771393 0.1
0.752508 0.0752411 0.1
0.762276 0.073268 0.1
0.772029 0.07122 0.1
0.781766 0.0690974 0.1
0.791486 0.0669001 0.1
0.801189 0.0646285 0.1
0.810875 0.0622825 0.1
0.820542 0.0598623 0.1
0.83019 0.0573681 0.1
0.839819 0.0547999 0.1
0.849428 0.0521581 0.1
0.859017 0.0494427 0.1
0.868584 0.0466538 0.1
0.87813 0.0437917 0.1
0.887653 0.0408565 0.1
0.897154 0.0378484 0.1
0.906631 0.0347675 0.1
0.916085 0.0316141 0.1
0.925514 0.0283883 0.1
0.934918 0.0250903 0.1
0.944297 0.0217203 0.1
0.953649 0.0182786 0.1
0.962975 0.0147652 0.1
0.972273 0.0111804 0.1
0.981544 0.00752451 0.1
0.990786 0.00379763 0.1
1.01 0 0.1
1.02 0 0.1
1.03 0 0.1
1.04 0 0.1
1.05 0 0.1
1.06 0 0.1
1.07 0 0.1
1.08 0 0.1
1.09 0 0.1
1.1 0 0.1
1.11 0 0.1
1.12 0 0.1
1.13 0 0.1
1.14 0 0.1
1.15 0 0.1
1.16 0 0.1
1.17 0 0.1
1.18 0 0.1
1.19 0 0.1
1.2 0 0.1
1.21 0 0.1
1.22 0 0.1
1.23 0 0.1
1.24 0 0.1
1.25 0 0.1
1.26 0 0.1
1.27 0 0.1
1.28 0 0.1
1.29 0 0.1
1.3 0 0.1
1.31 0 0.1
1.32 0 0.1
1.33 0 0.1
1.34 0 0.1
1.35 0 0.1
1.36 0 0.1
1.37 0 0.1
1.38 0 0.1
1.39 0 0.1
1.4 0 0.1
1.41 0 0.1
1.42 0 0.1
1.43 0 0.1
1.44 0 0.1
1.45 0 0.1
1.46 0 0.1
1.47 0 0.1
1.48 0 0.1
1.49 0 0.1
1.5 0 0.1
1.51 0 0.1
1.52 0 0.1
1.53 0 0.1
1.54 0 0.1
1.55 0 0.1
1.56 0 0.1
1.57 0 0.1
1.58 0 0.1
1.59 0 0.1
1.6 0 0.1
1.61 0 0.1
1.62 0 0.1
1.63 0 0.1
1.64 0 0.1
1.65 0 0.1
1.66 0 0.1
1.67 0 0.1
1.68 0 0.1
1.69 0 0.1
1.7 0 0.1
1.71 0 0.1
1.72 0 0.1
1.73 0 0.1
1.74 0 0.1
1.75 0 0.1
1.76 0 0.1
1.77 0 0.1
1.78 0 0.1
1.79 0 0.1
1.8 0 0.1
1.81 0 0.1
1.82 0 0.1
1.83 0 0.1
1.84 0 0.1
1.85 0 0.1
1.86 0 0.1
1.87 0 0.1
1.88 0 0.1
[...]
CELL_DATA 7425
SCALARS rho float
LOOKUP_TABLE default
0.587039
0.805026
0.819492
0.827469
0.799368
0.819092
0.820865
0.814057
0.812899
0.738576
0.863464
0.810012
0.813818
0.827325
0.803664
0.817084
0.798704
0.813183
0.80346
0.767215
0.831226
0.822027
0.724724
0.827997
0.803866
0.702885
0.831159
0.848191
0.800153
0.807907
0.819322
0.725537
0.803607
0.651988
0.519026
0.827963
0.803499
0.814034
0.811122
0.82796
0.715868
0.703006
0.789932
0.70238
0.586318
0.748167
0.799252
0.813752
0.661095
0.719313
0.746302
0.805142
0.812338
0.799027
0.709906
0.621884
0.822856
0.800056
0.738446
0.700837
0.709299
0.807646
0.813153
0.799334
0.798761
0.817543
0.584235
0.77323
0.704859
0.807823
0.804136
0.803198
0.883382
0.821099
0.810822
0.812959
0.805038
0.800429
0.81316
0.757728
0.815908
0.807226
0.810209
0.788629
0.835868
0.801046
0.574321
0.829911
0.542322
0.848443
0.707049
0.729682
0.845155
0.803169
0.817332
0.758127
0.835999
0.787992
0.825573
0.802423
0.808028
0.738661
0.803279
0.828192
0.597121
0.811049
0.82432
0.70736
0.814923
0.799114
0.816642
0.784506
0.789751
0.812417
0.789663
0.786288
0.831208
0.8031
0.700255
0.629428
0.805037
0.777216
0.812862
0.790379
0.858904
0.83877
0.807682
0.804225
0.661109
0.503835
0.814401
0.654942
0.514913
0.867592
0.661403
0.799462
0.811084
0.723475
0.581879
0.724683
0.723147
0.809561
0.809562
0.707408
0.803106
0.779577
0.565349
0.788445
0.782534
0.827715
0.816716
0.704168
0.802855
0.744297
0.705313
0.803267
0.810413
0.830359
0.797511
0.651863
0.80249
0.703658
0.801051
0.829692
0.820397
0.802366
0.812982
0.784764
0.806262
0.800597
0.819646
0.804422
0.791113
0.799077
0.79984
0.740009
0.803644
0.758633
0.593892
0.706966
0.799629
0.792649
0.879774
0.831799
0.612518
0.822869
0.798584
0.827261
0.799823
0.813326
0.812524
0.803185
0.806929
0.704696
0.814938
0.819195
0.770056
0.797086
0.861023
0.80775
0.811794
0.811084
0.612771
0.838821
0.572897
0.531567
0.595378
0.600242
0.828092
0.879308
0.807514
0.79864
0.841346
0.812886
0.816615
0.820706
0.81513
0.637937
0.548597
0.813648
0.545358
0.592353
0.703545
0.811628
0.81399
0.812959
0.833087
0.812825
0.864104
0.710105
0.835177
0.71246
0.805154
0.803913
0.801944
0.713832
0.720309
0.619435
0.705743
0.863587
0.875277
0.806168
0.807683
0.798804
0.811487
0.715671
0.821548
0.800135
0.825639
0.794602
0.80977
0.721434
0.812726
0.823679
0.73966
0.528348
0.799815
0.73644
0.843255
0.81427
0.726644
0.815507
0.814767
0.849917
0.809435
0.803809
0.803247
0.825597
0.860727
0.80538
0.619195
0.848849
0.811927
0.805591
0.827488
0.837296
0.81291
0.821374
0.793478
0.815
0.866504
0.849912
0.827278
0.836692
0.802652
0.817093
0.803187
0.759676
0.701114
0.580775
0.70108
0.802284
0.812809
0.815916
0.854614
0.779622
0.645678
0.827026
0.520602
0.77423
0.800926
0.646338
0.494914
0.639035
0.815125
0.813155
0.812884
0.812648
0.826661
0.774401
0.811463
0.802657
0.812822
0.840667
0.867002
0.833509
0.802712
0.70644
0.795841
0.834245
0.691507
0.798693
0.802034
0.864754
0.817033
0.592954
0.813315
0.740383
0.852208
0.731904
0.810031
0.907642
0.799814
0.795584
0.658882
0.635499
0.71185
0.780516
0.826486
0.814862
0.813615
0.882301
0.858071
0.799482
0.799116
0.826007
0.739126
0.802505
0.879361
0.801373
0.80464
0.800647
0.80256
0.812889
0.81565
0.816303
0.636077
0.829928
0.645339
0.808421
0.639193
0.802562
0.802225
0.840219
0.728564
0.816329
0.808504
0.816913
0.799454
0.802488
0.811222
0.696556
0.824447
0.812978
0.812851
0.800672
0.736798
0.55984
0.806402
0.810942
0.803183
0.812811
0.794679
0.502745
0.845954
0.813237
0.80384
0.785674
0.813182
0.804632
0.802989
0.816169
0.807499
0.82245
0.768554
0.81261
0.807757
0.562563
0.803063
0.640045
0.838722
0.636159
0.814627
0.877874
0.592975
0.818046
0.748888
0.804403
0.873318
0.533519
0.823063
0.822199
0.803489
0.825682
0.811025
0.823399
0.830585
0.82478
0.739594
0.827466
0.76166
0.810168
0.79422
0.793576
0.758529
0.805587
0.802082
0.814403
0.752133
0.804668
0.60434
0.614133
0.688866
0.812733
0.844156
0.864806
0.82983
0.798528
0.81256
0.804849
0.818464
0.680435
0.800942
0.742881
0.824013
0.81473
0.805332
0.711955
0.727158
0.533524
0.605531
0.801245
0.611307
0.792526
0.765336
0.769995
0.727139
0.762399
0.767466
0.809361
0.814859
0.819488
0.811386
0.710361
0.601966
0.838988
0.806867
0.783116
0.809772
0.802537
0.836511
0.718003
0.855249
0.763665
0.728195
0.764445
0.811441
0.544859
0.798776
0.841573
0.81325
0.81371
0.809642
0.799112
0.78023
0.835662
0.803102
0.842931
0.721034
0.707557
0.800304
0.795102
0.821962
0.708628
0.847922
0.800368
0.815985
0.798679
0.779142
0.808203
0.59453
0.677363
0.632347
0.81286
0.803772
0.826301
0.749199
0.810584
0.814727
0.820333
0.798925
0.729214
0.796817
0.814234
0.803193
0.703008
0.813516
0.818849
0.839982
0.8107
0.825281
0.862266
0.857243
0.74385
0.603328
0.837996
0.805764
0.843349
0.814154
0.822869
0.813447
0.813728
0.633185
0.805129
0.80925
0.812742
0.791857
0.810548
0.804714
0.86043
0.798611
0.812655
0.814643
0.871895
0.597549
0.813384
0.842353
0.883299
0.530332
0.816338
0.8299
0.796126
0.814734
0.794905
0.86757
0.812152
0.831301
0.812653
0.619277
0.802384
0.804139
0.6907
0.853111
0.759771
0.801792
0.813905
0.812637
0.859617
0.795336
0.833573
0.834675
0.784232
0.82514
0.842286
0.799692
0.810437
0.806904
0.805306
0.814785
0.802626
0.845186
0.769218
0.809768
0.80315
0.815171
0.723066
0.812816
0.818292
0.752552
0.813512
0.816303
0.827509
0.825064
0.800675
0.800626
0.850471
0.76794
0.825075
0.844169
0.804549
0.505465
0.812822
0.828229
0.852359
0.812581
0.803146
0.808512
0.855018
0.780072
0.802577
0.801197
0.812858
0.72701
0.802688
0.829966
0.80796
0.794956
0.793457
0.84316
0.806598
0.845288
0.802016
0.824197
0.812694
0.80421
0.841822
0.812792
0.679335
0.81872
0.80709
0.812766
0.906133
0.800778
0.815842
0.800457
0.800368
0.816141
0.800473
0.803352
0.783727
0.747325
0.806443
0.81282
0.75797
0.791349
0.82297
0.813006
0.822203
0.806288
0.825722
0.875284
0.830602
0.574601
0.708752
0.840714
0.817228
0.844122
0.814698
0.850071
0.807286
0.81236
0.799308
0.83837
0.860903
0.852759
0.731457
0.81402
0.822126
0.743993
0.817047
0.775903
0.800196
0.73301
0.816003
0.830819
0.823448
0.861757
0.814149
0.813227
0.810121
0.814579
0.835756
0.812189
0.798621
0.810222
0.737483
0.811275
0.774182
0.8328
0.812712
0.638734
0.777612
0.811096
0.79914
0.819771
0.802432
0.814612
0.81724
0.804426
0.819343
0.804157
0.805799
0.597099
0.847008
0.825082
0.826655
0.814869
0.803216
0.701787
0.806433
0.907824
0.813524
0.800986
0.812817
0.782256
0.807205
0.813221
0.821233
0.814625
0.813157
0.816178
0.702175
0.7778
0.764529
0.81259
0.805289
0.800982
0.621256
0.805665
0.802593
0.708127
0.837146
0.817141
0.802165
0.807409
0.799368
0.817193
0.813893
0.813218
0.812803
0.709631
0.831656
0.800269
0.807359
0.842756
0.817569
0.816235
0.800141
0.753639
0.823788
0.787366
0.821382
0.789394
0.805586
0.8209
0.737505
0.817352
0.650326
0.872004
0.704273
0.844971
0.800752
0.875138
0.793663
0.801656
0.820618
0.836177
0.838381
0.825426
0.819774
0.814652
0.801082
0.80417
0.808222
0.725619
0.827209
0.800076
0.719708
0.830495
0.706574
0.799958
0.860316
0.805571
0.701269
0.797829
0.814022
0.705104
0.785654
0.819331
0.831822
0.806905
0.572733
0.728519
0.812372
0.801281
0.812852
0.800634
0.737173
0.813951
0.815657
0.812419
0.775321
0.80326
0.804483
0.803525
0.560336
0.81264
0.834077
0.579648
0.815104
0.816044
0.814635
0.818305
0.814359
0.82449
0.799036
0.795109
0.771034
0.822868
0.829638
0.825078
0.83482
0.765305
0.80894
0.724293
0.772355
0.808756
0.821021
0.813218
0.800965
0.858207
0.812857
0.800284
0.809531
0.816038
0.815128
0.83659
0.814431
0.812737
0.81197
0.813754
0.800096
0.820944
0.803758
0.822779
0.813401
0.57538
0.813448
0.834422
0.857991
0.838152
0.490511
0.816751
0.804487
0.496358
0.669247
0.642973
0.83426
0.807937
0.81164
0.812732
0.803202
0.816691
0.81093
0.534416
0.686352
0.818213
0.806617
0.815555
0.803502
0.810223
0.810841
0.820187
0.799483
0.692123
0.855843
0.803148
0.814703
0.813559
0.757735
0.485444
0.832852
0.813512
0.742012
0.802699
0.806157
0.59072
0.827487
0.814723
0.827675
0.818726
0.825927
0.804722
0.719284
0.643484
0.561954
0.825269
0.808466
0.782975
0.812902
0.779746
0.817834
0.873294
0.762325
0.821558
0.813464
0.825791
0.883545
0.81438
0.811769
0.803254
0.813854
0.691625
0.828162
0.799846
0.810113
0.802195
0.784229
0.854131
0.821991
0.840454
0.821472
0.7576
0.755865
0.803263
0.818049
0.80306
0.805235
0.802575
0.775599
0.814623
0.761524
0.821093
0.661991
0.81391
0.80295
0.735773
0.823221
0.817928
0.739942
0.801153
0.757166
0.880552
0.800716
0.812767
0.762632
0.80004
0.814209
0.803942
0.589755
0.820901
0.798621
0.801296
0.814463
0.825567
0.757074
0.805476
0.841558
0.826881
0.81407
0.835797
0.701136
0.700085
0.812853
0.744112
0.822167
0.771328
0.81276
0.802509
0.810359
0.75191
0.794182
0.764277
0.80983
0.80314
0.631118
0.77898
0.799227
0.848934
0.814305
0.828605
0.526275
0.825316
0.785103
0.858707
0.800933
0.817951
0.800237
0.785741
0.798702
0.825666
0.835733
0.821725
0.817063
0.707064
0.773783
0.815307
0.805371
0.809907
0.8039
0.707041
0.792788
0.803437
0.810601
0.827123
0.851184
0.831808
0.813398
0.799385
0.804192
0.801993
0.779605
0.611512
0.800274
0.731206
0.661824
0.822757
0.798803
0.777271
0.799934
0.754115
0.785274
0.811383
0.822133
0.803297
0.81595
0.817307
0.820626
0.813322
0.808434
0.712093
0.699327
0.640825
0.829233
0.869544
0.815328
0.84131
0.847805
0.863715
0.735567
0.816536
0.862987
0.810143
0.812797
0.816148
0.732715
0.812364
0.806602
0.806141
0.517043
0.812893
0.76113
0.813088
0.813769
0.803535
0.705667
0.813129
0.610512
0.824989
0.802239
0.822205
0.855133
0.803422
0.795355
0.820879
0.811513
0.805679
0.762206
0.509568
0.820843
0.803074
0.828866
0.825713
0.802045
0.807013
0.834428
0.720746
0.500127
0.886244
0.800537
0.815627
0.804313
0.710564
0.798584
0.799958
0.815
0.735964
0.64642
0.883232
0.714082
0.836507
0.811917
0.832844
0.842625
0.792122
0.804735
0.813529
0.852753
0.738263
0.870682
0.81395
0.562674
0.802406
0.748946
0.85288
0.76023
0.804208
0.803945
0.799586
0.801569
0.808811
0.812832
0.855474
0.805934
0.802862
0.801304
0.79996
0.812165
0.816813
0.802612
0.812409
0.849172
0.803094
0.783404
0.802229
0.839521
0.724878
0.81356
0.813759
0.636324
0.71303
0.80553
0.822972
0.803499
0.511471
0.856241
0.813147
0.83293
0.805295
0.803307
0.801321
0.786192
0.587071
0.80428
0.816039
0.835958
0.820509
0.812875
0.798106
0.746855
0.801554
0.765708
0.787511
0.799284
0.790943
0.751067
0.800797
0.811399
0.810302
0.832163
0.84899
0.553073
0.841864
0.812767
0.820831
0.801959
0.822639
0.811
0.894599
0.800194
0.867007
0.805673
0.759703
0.862098
0.802268
0.800234
0.82411
0.660312
0.645197
0.803388
0.803845
0.705357
0.654217
0.799891
0.823799
0.812956
0.822534
0.732861
0.817141
0.812768
0.826081
0.816894
0.811928
0.812787
0.75453
0.803843
0.815615
0.811254
0.676145
0.566298
0.812824
0.649917
0.721866
0.554955
0.841357
0.800074
0.526681
0.600653
0.827478
0.908055
0.818087
0.652225
0.814092
0.786386
0.801674
0.786338
0.820588
0.810047
0.788258
0.821
0.800951
0.587524
0.817765
0.766617
0.815868
0.701079
0.822166
0.789589
0.813882
0.799996
0.662785
0.843481
0.806508
0.806557
0.493261
0.816771
0.800337
0.85208
0.711411
0.817025
0.583576
0.718748
0.80136
0.796618
0.732613
0.715445
0.716093
0.506687
0.588915
0.799933
0.517225
0.822545
0.519818
0.757139
0.671099
0.598761
0.540328
0.745376
0.803077
0.71533
0.82124
0.800904
0.802903
0.761142
0.889661
0.798993
0.824429
0.803419
0.812712
0.705891
0.807515
0.736637
0.821855
0.88602
0.833532
0.747652
0.822735
0.770439
0.879883
0.804187
0.758614
0.85065
0.776809
0.799917
0.805232
0.75818
0.744509
0.664926
0.804974
0.803018
0.817851
0.833445
0.611387
0.807853
0.537878
0.668508
0.616021
0.818451
0.820986
0.80893
0.803967
0.615579
0.872437
0.802672
0.802941
0.863488
0.812348
0.771979
0.812084
0.802359
0.817842
0.803141
0.716975
0.803326
0.655086
0.798956
0.804042
0.80153
0.639077
0.811481
0.810262
0.725615
0.817739
0.548941
0.576558
0.804135
0.696406
0.725883
0.571962
0.723513
0.813552
0.707772
0.772937
0.716764
0.812763
0.670113
0.762055
0.80642
0.810542
0.654367
0.801934
0.89514
0.796678
0.816734
0.584916
0.693724
0.800877
0.812868
0.813941
0.851627
0.812572
0.80424
0.803716
0.80333
0.713715
0.717603
0.615505
0.77141
0.532447
0.723999
0.809852
0.814343
0.806073
0.799211
0.535073
0.808998
0.803748
0.553783
0.543075
0.746539
0.803564
0.806122
0.549165
0.79818
0.569436
0.720324
0.607652
0.813494
0.802213
0.59691
0.608174
0.86787
0.810004
0.765357
0.717754
0.621444
0.655238
0.70996
0.81595
0.759724
0.765504
0.623902
0.753808
0.809244
0.8153
0.812377
0.815407
0.865503
0.75462
0.818872
0.803319
0.851248
0.81278
0.802767
0.813004
0.722665
0.812887
0.811929
0.815122
0.811089
0.81583
0.803265
0.817865
0.810322
0.809673
0.817205
0.800103
0.816532
0.818892
0.667384
0.818547
0.868388
0.818106
0.792907
0.645817
0.858549
0.818727
0.824833
0.799491
0.811133
0.757506
0.85251
0.558797
0.726504
0.809847
0.815601
0.803864
0.803353
0.831999
0.804966
0.805166
0.815196
0.780668
0.838509
0.841906
0.815154
0.664226
0.611889
0.8157
0.816557
0.788242
0.849591
0.847223
0.810784
0.813566
0.777703
0.814019
0.817771
0.814043
0.818714
0.813031
0.815757
0.851006
0.815903
0.814437
0.81749
0.817704
0.784864
0.814054
0.803996
0.804067
0.804565
0.818506
0.811405
0.788296
0.753987
0.812595
0.806265
0.808708
0.806364
0.857741
0.803301
0.813927
0.812616
0.805146
0.557919
0.803876
0.812659
0.814951
0.810297
0.812702
0.813223
0.812944
0.810162
0.864365
0.501233
0.812732
0.841619
0.812569
0.802947
0.808388
0.814929
0.839634
0.800394
0.801154
0.812565
0.706409
0.812749
0.808168
0.807291
0.812474
0.812801
0.812945
0.81328
0.511506
0.811844
0.715607
0.885822
0.820998
0.733463
0.670864
0.815292
0.803451
0.818662
0.646394
0.801632
0.813251
0.647883
0.799798
0.804078
0.815364
0.806228
0.856704
0.809835
0.606807
0.800787
0.775173
0.811197
0.889053
0.803234
0.815495
0.819271
0.832165
0.813318
0.822338
0.836295
0.634864
0.802574
0.655683
0.813668
0.813568
0.712619
0.813453
0.804757
0.713187
0.814861
0.701072
0.86104
0.784039
0.81422
0.812805
0.813347
0.66776
0.813574
0.633199
0.800155
0.792343
0.822233
0.815106
0.715906
0.766689
0.829994
0.812671
0.821254
0.821841
0.813355
0.825272
0.799449
0.551929
0.754912
0.759137
0.731489
0.837557
0.822282
0.834297
0.775958
0.802752
0.812941
0.812862
0.812866
0.774595
0.563661
0.803195
0.52823
0.808147
0.824203
0.799648
0.803749
0.81289
0.805997
0.782561
0.73214
0.813304
0.859112
0.813642
0.79924
0.736947
0.809536
0.788693
0.833677
0.503515
0.79596
0.805835
0.79882
0.68878
0.812755
0.810691
0.856968
0.568929
0.807317
0.803262
0.81274
0.612277
0.813001
0.803326
0.803394
0.803018
0.813113
0.813212
0.816032
0.812951
0.717984
0.804488
0.803193
0.812899
0.896145
0.813058
0.773926
0.841087
0.799168
0.803128
0.601212
0.812792
0.80335
0.825585
0.801948
0.86619
0.814766
0.853322
0.800286
0.820565
0.777841
0.558122
0.75262
0.794181
0.803866
0.813919
0.813721
0.555336
0.861751
0.857816
0.768398
0.757643
0.738497
0.811994
0.848334
0.812831
0.81366
0.812865
0.804262
0.726768
0.80349
0.799055
0.764222
0.824194
0.822927
0.861809
0.815571
0.812876
0.523787
0.808872
0.812836
0.800664
0.773915
0.818048
0.803105
0.812792
0.826818
0.798429
0.803544
0.801184
0.815106
0.839062
0.802317
0.799114
0.801434
0.766095
0.819789
0.566917
0.868346
0.803676
0.545567
0.803112
0.803074
0.819499
0.59116
0.606024
0.801508
0.803578
0.800798
0.860696
0.779879
0.814556
0.802926
0.865622
0.804701
0.804439
0.826262
0.815872
0.820025
0.821199
0.820247
0.867446
0.729195
0.852107
0.817116
0.653573
0.802499
0.803173
0.803625
0.821042
0.82343
0.803928
0.801038
0.800001
0.822598
0.803157
0.803592
0.79961
0.824307
0.80396
0.801969
0.806061
0.827793
0.800483
0.801478
0.824192
0.799537
0.81529
0.651169
0.826311
0.849795
0.804832
0.819488
0.803216
0.828673
0.837429
0.803388
0.821394
0.800493
0.806919
0.78953
0.802134
0.803117
0.806341
0.805861
0.80446
0.818458
0.814652
0.811213
0.831335
0.802125
0.802204
0.799852
0.788984
0.833718
0.80313
0.819216
0.815114
0.807072
0.804989
0.802942
0.838843
0.864633
0.799519
0.678859
0.801148
0.842087
0.8165
0.805066
0.80445
0.819652
0.844537
0.601103
0.82868
0.794429
0.850271
0.818642
0.811967
0.813235
0.808173
0.803942
0.812738
0.808727
0.591718
0.847924
0.79456
0.81408
0.854534
0.81919
0.763123
0.808596
0.814352
0.81537
0.802946
0.661593
0.809138
0.863106
0.802521
0.800667
0.775344
0.87118
0.800396
0.877034
0.806629
0.817071
0.820526
0.802162
0.803777
0.812496
0.815785
0.80341
0.813219
0.816644
0.881317
0.820655
0.809276
0.800079
0.828341
0.810458
0.838769
0.808762
0.806924
0.812051
0.816451
0.829844
0.813555
0.822453
0.832452
0.814095
0.699519
0.6905
0.812934
0.81765
0.803748
0.813016
0.51371
0.854826
0.799714
0.806208
0.813833
0.813377
0.803942
0.81237
0.800425
0.801166
0.807972
0.81466
0.756805
0.784585
0.822856
0.842589
0.834744
0.800205
0.805002
0.803345
0.812885
0.80566
0.799469
0.799742
0.800971
0.810843
0.797783
0.80269
0.835421
0.831243
0.729697
0.661744
0.807551
0.698375
0.799437
0.571758
0.804389
0.806893
0.803051
0.818069
0.83369
0.813817
0.812744
0.81024
0.803826
0.881486
0.816168
0.804737
0.772207
0.585506
0.810216
0.806561
0.769307
0.81431
0.813766
0.791439
0.80068
0.804013
0.623907
0.830382
0.80349
0.781417
0.779261
0.85266
0.809967
0.802824
0.802542
0.810137
0.811032
0.518385
0.801747
0.839423
0.813816
0.798544
0.588554
0.814475
0.813962
0.812831
0.833656
0.813808
0.803904
0.821803
0.805519
0.575642
0.808602
0.73642
0.79848
0.813523
0.72212
0.814821
0.845898
0.83156
0.664392
0.890874
0.785548
0.77734
0.796846
0.779494
0.808567
0.849867
0.807916
0.802842
0.813436
0.808758
0.782571
0.785888
0.813773
0.808252
0.834788
0.821184
0.835622
0.801209
0.799608
0.812929
0.85656
0.816375
0.818282
0.813231
0.607225
0.795494
0.823807
0.829282
0.865852
0.812484
0.818863
0.508413
0.809637
0.800543
0.812497
0.814654
0.847526
0.812934
0.811063
0.881465
0.764471
0.812511
0.813121
0.80892
0.805189
0.814117
0.655813
0.800475
0.849469
0.833455
0.810522
0.813462
0.813251
0.809542
0.69876
0.812396
0.800109
0.838498
0.818377
0.811522
0.831252
0.792641
0.81145
0.817716
0.808729
0.819192
0.74415
0.85464
0.818867
0.813697
0.812937
0.812584
0.815615
0.817056
0.81263
0.810684
0.841008
0.818496
0.800101
0.825227
0.826868
0.815955
0.814417
0.800313
0.801476
0.812926
0.818926
0.829347
0.812676
0.816355
0.799772
0.809857
0.812713
0.81268
0.802484
0.814554
0.813212
0.803216
0.812736
0.835582
0.800001
0.809328
0.82144
0.559781
0.814101
0.818065
0.81542
0.814904
0.821874
0.828746
0.815516
0.818737
0.701355
0.812937
0.801296
0.815509
0.818912
0.835005
0.82147
0.815472
0.829287
0.824851
0.810555
0.819152
0.819441
0.804128
0.813036
0.815496
0.819395
0.832032
0.812509
0.81559
0.802704
0.812809
0.81293
0.522275
0.627462
0.814316
0.821344
0.801685
0.822378
0.815799
0.841799
0.70804
0.813629
0.730353
0.817314
0.810209
0.813041
0.829273
0.813539
0.804802
0.812795
0.830009
0.839202
0.812677
0.71912
0.81921
0.815925
0.799873
0.80302
0.8152
0.855872
0.812525
0.813253
0.849637
0.828928
0.843208
0.573141
0.829026
0.813828
0.81079
0.817296
0.850409
0.817661
0.718326
0.799491
0.831692
0.799716
0.799681
0.805358
0.74777
0.813277
0.814234
0.725326
0.814245
0.827272
0.813198
0.81392
0.799169
0.818275
0.81286
0.823456
0.808677
0.808109
0.814867
0.705289
0.818974
0.813968
0.812844
0.639739
0.718817
0.599247
0.823206
0.529218
0.853716
0.727257
0.84273
0.812406
0.722565
0.821341
0.815777
0.742488
0.807624
0.818251
0.794388
0.816418
0.815754
0.815684
0.812861
0.807779
0.803649
0.737229
0.836044
0.82007
0.816504
0.799179
0.815369
0.801942
0.815898
0.813342
0.854512
0.817669
0.496688
0.813197
0.818686
0.818559
0.778016
0.815681
0.806702
0.818513
0.845257
0.596288
0.809041
0.799251
0.815209
0.817516
0.817586
0.812329
0.818496
0.81375
0.814473
0.80306
0.81417
0.846043
0.813821
0.791981
0.811376
0.622413
0.718749
0.812939
0.816887
0.802908
0.822204
0.735429
0.803144
0.803179
0.820104
0.619148
0.817489
0.799298
0.815304
0.864551
0.785455
0.82185
0.817871
0.822688
0.813902
0.769549
0.802409
0.813447
0.902275
0.827099
0.816318
0.832145
0.809487
0.868084
0.719414
0.685758
0.852243
0.802692
0.659102
0.850208