# vtk DataFile Version 1.0
unstructured grid
ascii
DATASET UNSTRUCTURED_GRID
points 7812 float
-1 0 0
-1 1 0
2 0 0
2 1 0
0 0 0
1 0 0
-1 1 0.1
-1 0 0.1
0 0 0.1
1 0 0.1
2 0 0.1
2 1 0.1
-0.99 0 0
-0.98 0 0
-0.97 0 0
-0.96 0 0
-0.95 0 0
-0.94 0 0
-0.93 0 0
-0.92 0 0
-0.91 0 0
-0.9 0 0
-0.89 0 0
-0.88 0 0
-0.87 0 0
-0.86 0 0
-0.85 0 0
-0.84 0 0
-0.83 0 0
-0.82 0 0
-0.81 0 0
-0.8 0 0
-0.79 0 0
-0.78 0 0
-0.77 0 0
-0.76 0 0
-0.75 0 0
-0.74 0 0
-0.73 0 0
-0.72 0 0
-0.71 0 0
-0.7 0 0
-0.69 0 0
-0.68 0 0
-0.67 0 0
-0.66 0 0
-0.65 0 0
-0.64 0 0
-0.63 0 0
-0.62 0 0
-0.61 0 0
-0.6 0 0
-0.59 0 0
-0.58 0 0
-0.57 0 0
-0.56 0 0
-0.55 0 0
-0.54 0 0
-0.53 0 0
-0.52 0 0
-0.51 0 0
-0.5 0 0
-0.49 0 0
-0.48 0 0
-0.47 0 0
-0.46 0 0
-0.45 0 0
-0.44 0 0
-0.43 0 0
-0.42 0 0
-0.41 0 0
-0.4 0 0
-0.39 0 0
-0.38 0 0
-0.37 0 0
-0.36 0 0
-0.35 0 0
-0.34 0 0
-0.33 0 0
-0.32 0 0
-0.31 0 0
-0.3 0 0
-0.29 0 0
-0.28 0 0
-0.27 0 0
-0.26 0 0
-0.25 0 0
-0.24 0 0
-0.23 0 0
-0.22 0 0
-0.21 0 0
-0.2 0 0
-0.19 0 0
-0.18 0 0
-0.17 0 0
-0.16 0 0
-0.15 0 0
-0.14 0 0
-0.13 0 0
-0.12 0 0
-0.11 0 0
-0.1 0 0
-0.09 0 0
-0.08 0 0
-0.07 0 0
-0.06 0 0
-0.05 0 0
-0.04 0 0
-0.03 0 0
-0.02 0 0
-0.01 0 0
1.01 0 0
1.02 0 0
1.03 0 0
1.04 0 0
1.05 0 0
1.06 0 0
1.07 0 0
1.08 0 0
1.09 0 0
1.1 0 0
1.11 0 0
1.12 0 0
1.13 0 0
1.14 0 0
1.15 0 0
1.16 0 0
1.17 0 0
1.18 0 0
1.19 0 0
1.2 0 0
1.21 0 0
1.22 0 0
1.23 0 0
1.24 0 0
1.25 0 0
1.26 0 0
1.27 0 0
1.28 0 0
1.29 0 0
1.3 0 0
1.31 0 0
1.32 0 0
1.33 0 0
1.34 0 0
1.35 0 0
1.36 0 0
1.37 0 0
1.38 0 0
1.39 0 0
1.4 0 0
1.41 0 0
1.42 0 0
1.43 0 0
1.44 0 0
1.45 0 0
1.46 0 0
1.47 0 0
1.48 0 0
1.49 0 0
1.5 0 0
1.51 0 0
1.52 0 0
1.53 0 0
1.54 0 0
1.55 0 0
1.56 0 0
1.57 0 0
1.58 0 0
1.59 0 0
1.6 0 0
1.61 0 0
1.62 0 0
1.63 0 0
1.64 0 0
1.65 0 0
1.66 0 0
1.67 0 0
1.68 0 0
1.69 0 0
1.7 0 0
1.71 0 0
1.72 0 0
1.73 0 0
1.74 0 0
1.75 0 0
1.76 0 0
1.77 0 0
1.78 0 0
1.79 0 0
1.8 0 0
1.81 0 0
1.82 0 0
1.83 0 0
1.84 0 0
1.85 0 0
1.86 0 0
1.87 0 0
1.88 0 0
1.89 0 0
1.9 0 0
1.91 0 0
1.92 0 0
1.93 0 0
1.94 0 0
1.95 0 0
1.96 0 0
1.97 0 0
1.98 0 0
1.99 0 0
2 0.010289 0
2 0.0215307 0
2 0.0338135 0
2 0.0472336 0
2 0.0618965 0
2 0.0779171 0
2 0.0954213 0
2 0.114546 0
2 0.135442 0
2 0.158274 0
2 0.183219 0
2 0.210474 0
2 0.240253 0
2 0.27279 0
2 0.308339 0
2 0.347181 0
2 0.389619 0
2 0.435987 0
2 0.486649 0
2 0.542002 0
2 0.602481 0
2 0.66856 0
2 0.740758 0
2 0.819642 0
2 0.90583 0
1.9 1 0
1.8 1 0
1.7 1 0
1.6 1 0
1.5 1 0
1.4 1 0
1.3 1 0
1.2 1 0
1.1 1 0
1 1 0
0.9 1 0
0.8 1 0
0.7 1 0
0.6 1 0
0.5 1 0
0.4 1 0
0.3 1 0
0.2 1 0
0.1 1 0
3.69793e-12 1 0
-0.1 1 0
-0.2 1 0
-0.3 1 0
-0.4 1 0
-0.5 1 0
-0.6 1 0
-0.7 1 0
-0.8 1 0
-0.9 1 0
-1 0.90583 0
-1 0.819642 0
-1 0.740758 0
-1 0.66856 0
-1 0.602481 0
-1 0.542002 0
-1 0.486649 0
-1 0.435987 0
-1 0.389619 0
-1 0.347181 0
-1 0.308339 0
-1 0.27279 0
-1 0.240253 0
-1 0.210474 0
-1 0.183219 0
-1 0.158274 0
-1 0.135442 0
-1 0.114546 0
-1 0.0954213 0
-1 0.0779171 0
-1 0.0618965 0
-1 0.0472336 0
-1 0.0338135 0
-1 0.0215307 0
-1 0.010289 0
0.00921362 0.00379763 0
0.0184561 0.00752451 0
0.0277268 0.0111804 0
0.0370253 0.0147652 0
0.0463511 0.0182786 0
0.0557034 0.0217203 0
0.0650819 0.0250903 0
0.074486 0.0283883 0
0.083915 0.0316141 0
0.0933685 0.0347675 0
0.102846 0.0378484 0
0.112347 0.0408565 0
0.12187 0.0437917 0
0.131416 0.0466538 0
0.140983 0.0494427 0
0.150572 0.0521581 0
0.160181 0.0547999 0
0.16981 0.0573681 0
0.179458 0.0598623 0
0.189125 0.0622825 0
0.198811 0.0646285 0
0.208514 0.0669001 0
0.218234 0.0690974 0
0.227971 0.07122 0
0.237724 0.073268 0
0.247493 0.0752411 0
0.257276 0.0771393 0
0.267073 0.0789625 0
0.276884 0.0807105 0
0.286708 0.0823832 0
0.296545 0.0839806 0
0.306394 0.0855025 0
0.316254 0.0869488 0
0.326125 0.0883196 0
0.336006 0.0896146 0
0.345896 0.0908339 0
0.355796 0.0919773 0
0.365704 0.0930447 0
0.375621 0.0940362 0
0.385544 0.0949517 0
0.395474 0.095791 0
0.40541 0.0965542 0
0.415352 0.0972412 0
0.425299 0.097852 0
0.43525 0.0983865 0
0.445205 0.0988447 0
0.455164 0.0992266 0
0.465125 0.0995321 0
0.475088 0.0997613 0
0.485052 0.0999141 0
0.495017 0.0999904 0
0.504983 0.0999904 0
0.514948 0.0999141 0
0.524912 0.0997613 0
0.534875 0.0995321 0
0.544836 0.0992266 0
0.554795 0.0988447 0
0.56475 0.0983865 0
0.574701 0.097852 0
0.584648 0.0972412 0
0.59459 0.0965542 0
0.604526 0.095791 0
0.614456 0.0949517 0
0.624379 0.0940362 0
0.634296 0.0930447 0
0.644204 0.0919773 0
0.654104 0.0908339 0
0.663994 0.0896146 0
0.673875 0.0883196 0
0.683746 0.0869488 0
0.693606 0.0855025 0
0.703455 0.0839806 0
0.713292 0.0823832 0
0.723116 0.0807105 0
0.732927 0.0789625 0
0.742724 0.0771393 0
0.752508 0.0752411 0
0.762276 0.073268 0
0.772029 0.07122 0
0.781766 0.0690974 0
0.791486 0.0669001 0
0.801189 0.0646285 0
0.810875 0.0622825 0
0.820542 0.0598623 0
0.83019 0.0573681 0
0.839819 0.0547999 0
0.849428 0.0521581 0
0.859017 0.0494427 0
0.868584 0.0466538 0
0.87813 0.0437917 0
0.887653 0.0408565 0
0.897154 0.0378484 0
0.906631 0.0347675 0
0.916085 0.0316141 0
0.925514 0.0283883 0
0.934918 0.0250903 0
0.944297 0.0217203 0
0.953649 0.0182786 0
0.962975 0.0147652 0
0.972273 0.0111804 0
0.981544 0.00752451 0
0.990786 0.00379763 0
-1 0.90583 0.1
-1 0.819642 0.1
-1 0.740758 0.1
-1 0.66856 0.1
-1 0.602481 0.1
-1 0.542002 0.1
-1 0.486649 0.1
-1 0.435987 0.1
-1 0.389619 0.1
-1 0.347181 0.1
-1 0.308339 0.1
-1 0.27279 0.1
-1 0.240253 0.1
-1 0.210474 0.1
-1 0.183219 0.1
-1 0.158274 0.1
-1 0.135442 0.1
-1 0.114546 0.1
-1 0.0954213 0.1
-1 0.0779171 0.1
-1 0.0618965 0.1
-1 0.0472336 0.1
-1 0.0338135 0.1
-1 0.0215307 0.1
-1 0.010289 0.1
-0.99 0 0.1
-0.98 0 0.1
-0.97 0 0.1
-0.96 0 0.1
-0.95 0 0.1
-0.94 0 0.1
-0.93 0 0.1
-0.92 0 0.1
-0.91 0 0.1
-0.9 0 0.1
-0.89 0 0.1
-0.88 0 0.1
-0.87 0 0.1
-0.86 0 0.1
-0.85 0 0.1
-0.84 0 0.1
-0.83 0 0.1
-0.82 0 0.1
-0.81 0 0.1
-0.8 0 0.1
-0.79 0 0.1
-0.78 0 0.1
-0.77 0 0.1
-0.76 0 0.1
-0.75 0 0.1
-0.74 0 0.1
-0.73 0 0.1
-0.72 0 0.1
-0.71 0 0.1
-0.7 0 0.1
-0.69 0 0.1
-0.68 0 0.1
-0.67 0 0.1
-0.66 0 0.1
-0.65 0 0.1
-0.64 0 0.1
-0.63 0 0.1
-0.62 0 0.1
-0.61 0 0.1
-0.6 0 0.1
-0.59 0 0.1
-0.58 0 0.1
-0.57 0 0.1
-0.56 0 0.1
-0.55 0 0.1
-0.54 0 0.1
-0.53 0 0.1
-0.52 0 0.1
-0.51 0 0.1
-0.5 0 0.1
-0.49 0 0.1
-0.48 0 0.1
-0.47 0 0.1
-0.46 0 0.1
-0.45 0 0.1
-0.44 0 0.1
-0.43 0 0.1
-0.42 0 0.1
-0.41 0 0.1
-0.4 0 0.1
-0.39 0 0.1
-0.38 0 0.1
-0.37 0 0.1
-0.36 0 0.1
-0.35 0 0.1
-0.34 0 0.1
-0.33 0 0.1
-0.32 0 0.1
-0.31 0 0.1
-0.3 0 0.1
-0.29 0 0.1
-0.28 0 0.1
-0.27 0 0.1
-0.26 0 0.1
-0.25 0 0.1
-0.24 0 0.1
-0.23 0 0.1
-0.22 0 0.1
-0.21 0 0.1
-0.2 0 0.1
-0.19 0 0.1
-0.18 0 0.1
-0.17 0 0.1
-0.16 0 0.1
-0.15 0 0.1
-0.14 0 0.1
-0.13 0 0.1
-0.12 0 0.1
-0.11 0 0.1
-0.1 0 0.1
-0.09 0 0.1
-0.08 0 0.1
-0.07 0 0.1
-0.06 0 0.1
-0.05 0 0.1
-0.04 0 0.1
-0.03 0 0.1
-0.02 0 0.1
-0.01 0 0.1
0.00921362 0.00379763 0.1
0.0184561 0.00752451 0.1
0.0277268 0.0111804 0.1
0.0370253 0.0147652 0.1
0.0463511 0.0182786 0.1
0.0557034 0.0217203 0.1
0.0650819 0.0250903 0.1
0.074486 0.0283883 0.1
0.083915 0.0316141 0.1
0.0933685 0.0347675 0.1
0.102846 0.0378484 0.1
0.112347 0.0408565 0.1
0.12187 0.0437917 0.1
0.131416 0.0466538 0.1
0.140983 0.0494427 0.1
0.150572 0.0521581 0.1
0.160181 0.0547999 0.1
0.16981 0.0573681 0.1
0.179458 0.0598623 0.1
0.189125 0.0622825 0.1
0.198811 0.0646285 0.1
0.208514 0.0669001 0.1
0.218234 0.0690974 0.1
0.227971 0.07122 0.1
0.237724 0.073268 0.1
0.247493 0.0752411 0.1
0.257276 0.0771393 0.1
0.267073 0.0789625 0.1
0.276884 0.0807105 0.1
0.286708 0.0823832 0.1
0.296545 0.0839806 0.1
0.306394 0.0855025 0.1
0.316254 0.0869488 0.1
0.326125 0.0883196 0.1
0.336006 0.0896146 0.1
0.345896 0.0908339 0.1
0.355796 0.0919773 0.1
0.365704 0.0930447 0.1
0.375621 0.0940362 0.1
0.385544 0.0949517 0.1
0.395474 0.095791 0.1
0.40541 0.0965542 0.1
0.415352 0.0972412 0.1
0.425299 0.097852 0.1
0.43525 0.0983865 0.1
0.445205 0.0988447 0.1
0.455164 0.0992266 0.1
0.465125 0.0995321 0.1
0.475088 0.0997613 0.1
0.485052 0.0999141 0.1
0.495017 0.0999904 0.1
0.504983 0.0999904 0.1
0.514948 0.0999141 0.1
0.524912 0.0997613 0.1
0.534875 0.0995321 0.1
0.544836 0.0992266 0.1
0.554795 0.0988447 0.1
0.56475 0.0983865 0.1
0.574701 0.097852 0.1
0.584648 0.0972412 0.1
0.59459 0.0965542 0.1
0.604526 0.095791 0.1
0.614456 0.0949517 0.1
0.624379 0.0940362 0.1
0.634296 0.0930447 0.1
0.644204 0.0919773 0.1
0.654104 0.0908339 0.1
0.663994 0.0896146 0.1
0.673875 0.0883196 0.1
0.683746 0.0869488 0.1
0.693606 0.0855025 0.1
0.703455 0.0839806 0.1
0.713292 0.0823832 0.1
0.723116 0.0807105 0.1
0.732927 0.0789625 0.1
0.742724 0.0771393 0.1
0.752508 0.0752411 0.1
0.762276 0.073268 0.1
0.772029 0.07122 0.1
0.781766 0.0690974 0.1
0.791486 0.0669001 0.1
0.801189 0.0646285 0.1
0.810875 0.0622825 0.1
0.820542 0.0598623 0.1
0.83019 0.0573681 0.1
0.839819 0.0547999 0.1
0.849428 0.0521581 0.1
0.859017 0.0494427 0.1
0.868584 0.0466538 0.1
0.87813 0.0437917 0.1
0.887653 0.0408565 0.1
0.897154 0.0378484 0.1
0.906631 0.0347675 0.1
0.916085 0.0316141 0.1
0.925514 0.0283883 0.1
0.934918 0.0250903 0.1
0.944297 0.0217203 0.1
0.953649 0.0182786 0.1
0.962975 0.0147652 0.1
0.972273 0.0111804 0.1
0.981544 0.00752451 0.1
0.990786 0.00379763 0.1
1.01 0 0.1
1.02 0 0.1
1.03 0 0.1
1.04 0 0.1
1.05 0 0.1
1.06 0 0.1
1.07 0 0.1
1.08 0 0.1
1.09 0 0.1
1.1 0 0.1
1.11 0 0.1
1.12 0 0.1
1.13 0 0.1
1.14 0 0.1
1.15 0 0.1
1.16 0 0.1
1.17 0 0.1
1.18 0 0.1
1.19 0 0.1
1.2 0 0.1
1.21 0 0.1
1.22 0 0.1
1.23 0 0.1
1.24 0 0.1
1.25 0 0.1
1.26 0 0.1
1.27 0 0.1
1.28 0 0.1
1.29 0 0.1
1.3 0 0.1
1.31 0 0.1
1.32 0 0.1
1.33 0 0.1
1.34 0 0.1
1.35 0 0.1
1.36 0 0.1
1.37 0 0.1
1.38 0 0.1
1.39 0 0.1
1.4 0 0.1
1.41 0 0.1
1.42 0 0.1
1.43 0 0.1
1.44 0 0.1
1.45 0 0.1
1.46 0 0.1
1.47 0 0.1
1.48 0 0.1
1.49 0 0.1
1.5 0 0.1
1.51 0 0.1
1.52 0 0.1
1.53 0 0.1
1.54 0 0.1
1.55 0 0.1
1.56 0 0.1
1.57 0 0.1
1.58 0 0.1
1.59 0 0.1
1.6 0 0.1
1.61 0 0.1
1.62 0 0.1
1.63 0 0.1
1.64 0 0.1
1.65 0 0.1
1.66 0 0.1
1.67 0 0.1
1.68 0 0.1
1.69 0 0.1
1.7 0 0.1
1.71 0 0.1
1.72 0 0.1
1.73 0 0.1
1.74 0 0.1
1.75 0 0.1
1.76 0 0.1
1.77 0 0.1
1.78 0 0.1
1.79 0 0.1
1.8 0 0.1
1.81 0 0.1
1.82 0 0.1
1.83 0 0.1
1.84 0 0.1
1.85 0 0.1
1.86 0 0.1
1.87 0 0.1
1.88 0 0.1
[...]
CELL_DATA 7425
SCALARS rho float
LOOKUP_TABLE default
0.589217
0.805157
0.820142
0.828005
0.799992
0.819717
0.821341
0.814855
0.813799
0.739334
0.863719
0.810302
0.814631
0.827861
0.804224
0.817781
0.799279
0.81405
0.803567
0.767736
0.831737
0.822262
0.725541
0.828539
0.803977
0.704939
0.831658
0.849231
0.800304
0.808298
0.81981
0.724894
0.803715
0.653777
0.523261
0.828506
0.803597
0.814834
0.811413
0.828458
0.717543
0.705981
0.790472
0.698188
0.58896
0.748859
0.799879
0.814569
0.667602
0.718841
0.746437
0.805275
0.812556
0.79961
0.708039
0.700628
0.823457
0.800485
0.739209
0.701921
0.711915
0.807799
0.814023
0.799888
0.798919
0.818226
0.586333
0.773852
0.7002
0.808233
0.804599
0.803255
0.883562
0.821337
0.811074
0.813857
0.805173
0.800569
0.814027
0.757922
0.816637
0.80738
0.811045
0.789138
0.836239
0.801591
0.576383
0.830386
0.545471
0.848816
0.702449
0.730475
0.846161
0.80327
0.81802
0.759266
0.83652
0.788329
0.826141
0.803029
0.808728
0.738686
0.803376
0.828692
0.598921
0.811329
0.824864
0.708751
0.815684
0.799724
0.817335
0.785002
0.790195
0.812584
0.790207
0.786647
0.831705
0.803154
0.697768
0.643396
0.80517
0.777813
0.813768
0.790696
0.859229
0.839605
0.807843
0.804733
0.662461
0.508121
0.815168
0.65674
0.51892
0.868877
0.668375
0.800086
0.811303
0.724497
0.58396
0.726524
0.724746
0.810048
0.810423
0.705358
0.803566
0.779994
0.567371
0.789202
0.782655
0.828261
0.817202
0.703089
0.803416
0.744529
0.703846
0.803375
0.810703
0.830879
0.798056
0.655452
0.802747
0.699549
0.801604
0.830219
0.821028
0.802477
0.813872
0.785331
0.806442
0.801183
0.820293
0.805043
0.791851
0.799684
0.800295
0.741504
0.804214
0.759758
0.596892
0.700517
0.800211
0.793284
0.879969
0.83226
0.656415
0.823469
0.799192
0.827908
0.800387
0.814169
0.813459
0.80329
0.807111
0.70319
0.815697
0.819822
0.770575
0.797701
0.862119
0.80794
0.812202
0.811983
0.614463
0.839664
0.575004
0.535463
0.597195
0.605111
0.82862
0.879508
0.807663
0.798797
0.841679
0.8138
0.817306
0.821333
0.815881
0.639254
0.561393
0.814474
0.548638
0.595278
0.701922
0.812352
0.814774
0.813858
0.83357
0.813767
0.865293
0.707828
0.835652
0.714976
0.805342
0.804024
0.802153
0.714943
0.722249
0.620774
0.702969
0.863887
0.876693
0.806914
0.80784
0.799449
0.811937
0.718037
0.822166
0.800763
0.826194
0.794862
0.810646
0.721051
0.813662
0.824269
0.741235
0.531132
0.800302
0.736409
0.843757
0.815041
0.72603
0.81624
0.815535
0.850219
0.810252
0.804503
0.803336
0.826165
0.861043
0.806004
0.620496
0.849216
0.812652
0.805734
0.828027
0.837674
0.81377
0.821962
0.793764
0.815758
0.86774
0.850216
0.827808
0.837159
0.802889
0.81779
0.803244
0.759903
0.703165
0.582817
0.69832
0.802925
0.813713
0.816644
0.85565
0.780034
0.646959
0.827579
0.524766
0.774833
0.801476
0.647628
0.504547
0.640331
0.815879
0.814024
0.813798
0.813461
0.827217
0.774797
0.811633
0.80278
0.813765
0.841102
0.868301
0.833986
0.803013
0.701204
0.796408
0.834622
0.692678
0.799291
0.802207
0.865026
0.817732
0.594678
0.814157
0.741943
0.853217
0.733091
0.810866
0.907743
0.800436
0.796139
0.660238
0.636845
0.709788
0.781341
0.827036
0.815623
0.814443
0.88382
0.85902
0.8001
0.799616
0.826257
0.740296
0.802746
0.879584
0.801469
0.80532
0.801232
0.802659
0.813745
0.816386
0.817017
0.638183
0.830463
0.64902
0.808808
0.641282
0.803188
0.802369
0.840692
0.73033
0.816543
0.809203
0.81761
0.79998
0.802583
0.811507
0.699777
0.824693
0.813868
0.813707
0.800784
0.737088
0.561853
0.806553
0.811827
0.803267
0.813745
0.795229
0.512572
0.846552
0.814085
0.803948
0.786242
0.814049
0.805086
0.803467
0.816889
0.807649
0.823051
0.76921
0.813078
0.807938
0.564626
0.803681
0.64134
0.839065
0.637513
0.815373
0.878105
0.597326
0.818437
0.749716
0.804543
0.873536
0.537385
0.823651
0.822808
0.803593
0.826248
0.811438
0.823992
0.831102
0.825343
0.741108
0.828014
0.761623
0.810645
0.794475
0.794145
0.759285
0.805762
0.802156
0.81507
0.753398
0.805066
0.606115
0.615845
0.691411
0.813597
0.844553
0.865102
0.830311
0.799148
0.813493
0.805277
0.819035
0.681633
0.801447
0.743785
0.824417
0.815451
0.806036
0.709765
0.728181
0.536501
0.607049
0.801776
0.612768
0.793197
0.765683
0.770628
0.726377
0.763146
0.768263
0.810198
0.815623
0.820137
0.812282
0.712292
0.606994
0.839419
0.807559
0.783504
0.810467
0.802865
0.836979
0.720405
0.855594
0.763981
0.73027
0.76532
0.812179
0.547778
0.799374
0.842003
0.813733
0.814531
0.810458
0.799749
0.781061
0.836045
0.803187
0.843353
0.721885
0.705841
0.8007
0.795673
0.822567
0.710028
0.84831
0.801018
0.816698
0.799259
0.77956
0.808872
0.596267
0.678565
0.633661
0.813664
0.804251
0.826847
0.749911
0.810747
0.815496
0.820964
0.799537
0.730992
0.797532
0.814931
0.803273
0.705968
0.814349
0.819474
0.84048
0.81159
0.825853
0.862524
0.857534
0.744999
0.605011
0.838347
0.806221
0.843679
0.814948
0.823323
0.814287
0.814548
0.645978
0.805834
0.809871
0.813681
0.792394
0.811018
0.805303
0.861584
0.799224
0.813596
0.815413
0.872152
0.599253
0.814223
0.843207
0.883481
0.533196
0.817051
0.830428
0.796354
0.814944
0.795469
0.867844
0.812669
0.831812
0.813362
0.620815
0.802557
0.80427
0.69326
0.853404
0.759721
0.80203
0.814703
0.813517
0.860735
0.795564
0.833986
0.835157
0.78502
0.825581
0.843077
0.800298
0.811074
0.807533
0.805448
0.815439
0.802718
0.845571
0.769604
0.809949
0.803333
0.815661
0.724263
0.813743
0.818964
0.753255
0.814344
0.816853
0.828178
0.825629
0.801234
0.801054
0.850773
0.7679
0.82581
0.844564
0.804683
0.509688
0.81372
0.828769
0.852652
0.81331
0.803202
0.808787
0.855315
0.780156
0.802698
0.801701
0.813783
0.729115
0.803138
0.830418
0.808678
0.795207
0.79419
0.843578
0.806744
0.845608
0.802093
0.82478
0.813517
0.804331
0.842157
0.813689
0.681376
0.819383
0.807243
0.813589
0.906238
0.801172
0.816435
0.800821
0.80081
0.81686
0.800911
0.803501
0.783774
0.747497
0.807187
0.813749
0.75871
0.792071
0.823558
0.813176
0.822812
0.806677
0.826288
0.875498
0.831119
0.579349
0.709652
0.841149
0.817921
0.844509
0.815444
0.85041
0.80792
0.812838
0.799873
0.838803
0.861215
0.853116
0.732638
0.814822
0.822707
0.743631
0.817731
0.776331
0.800593
0.734085
0.816725
0.831335
0.8237
0.862973
0.814927
0.814088
0.810898
0.815334
0.836169
0.81237
0.799201
0.810388
0.73865
0.812176
0.774184
0.833248
0.813366
0.640054
0.778016
0.811683
0.799703
0.820417
0.803033
0.815367
0.817933
0.804878
0.819982
0.804279
0.806466
0.600401
0.847402
0.825647
0.827211
0.815512
0.80332
0.702773
0.807146
0.907927
0.814305
0.801637
0.813646
0.782654
0.807887
0.814008
0.821856
0.814823
0.814024
0.816899
0.696081
0.778523
0.765409
0.81347
0.805701
0.801625
0.62281
0.806316
0.80316
0.709455
0.837716
0.817833
0.802613
0.807983
0.799855
0.81787
0.814401
0.814081
0.813739
0.710524
0.832107
0.800483
0.808043
0.843364
0.818189
0.816943
0.800673
0.753897
0.824334
0.788076
0.821996
0.789717
0.806294
0.821528
0.737851
0.817952
0.654962
0.872261
0.705356
0.845376
0.801463
0.875351
0.794141
0.801974
0.82125
0.836765
0.838824
0.825948
0.820419
0.815368
0.80173
0.804369
0.808558
0.727795
0.827607
0.800215
0.719216
0.83095
0.700096
0.800599
0.861434
0.805738
0.704334
0.798091
0.814824
0.703117
0.785738
0.819973
0.832241
0.807665
0.589542
0.730563
0.812585
0.80194
0.81378
0.801172
0.737972
0.814735
0.816393
0.813342
0.775918
0.803347
0.804641
0.804223
0.562367
0.813575
0.834489
0.582846
0.815858
0.816768
0.815405
0.818976
0.815135
0.825065
0.799677
0.795316
0.771018
0.823252
0.830029
0.825457
0.835707
0.766077
0.809757
0.726396
0.772755
0.809372
0.821647
0.81407
0.801085
0.859274
0.813781
0.800989
0.810367
0.816745
0.815878
0.837056
0.815212
0.813641
0.812132
0.814569
0.800764
0.821561
0.803911
0.823381
0.814245
0.578492
0.814288
0.834906
0.859036
0.838618
0.49565
0.817453
0.805016
0.500661
0.671587
0.647677
0.834694
0.808444
0.811805
0.813604
0.803249
0.817397
0.811335
0.537375
0.688821
0.818563
0.80676
0.816285
0.803606
0.810456
0.811723
0.820793
0.799965
0.694959
0.856969
0.803198
0.814905
0.81437
0.758402
0.490681
0.833348
0.813939
0.741581
0.802753
0.806885
0.594837
0.827947
0.815462
0.82822
0.81939
0.82665
0.804855
0.721664
0.644774
0.564002
0.82584
0.809169
0.783071
0.813802
0.780483
0.818515
0.873513
0.762971
0.822176
0.814243
0.826346
0.883751
0.815153
0.812615
0.803429
0.814021
0.69339
0.828703
0.800328
0.810835
0.802394
0.784561
0.854483
0.822593
0.840795
0.822091
0.757491
0.756471
0.803916
0.818694
0.803123
0.805372
0.802765
0.776379
0.815381
0.762394
0.821774
0.663219
0.814701
0.803122
0.735152
0.823624
0.818501
0.7407
0.801338
0.757911
0.882044
0.800829
0.813708
0.76338
0.800693
0.814999
0.804059
0.591673
0.821358
0.799151
0.802006
0.815241
0.826101
0.758026
0.806104
0.842419
0.827581
0.814443
0.83627
0.694677
0.701079
0.81378
0.744854
0.822776
0.77194
0.813698
0.802659
0.81087
0.752626
0.794405
0.765076
0.810607
0.803191
0.632422
0.779417
0.79937
0.849902
0.81509
0.829141
0.529835
0.825564
0.785576
0.859033
0.801058
0.818362
0.800874
0.786357
0.799289
0.826189
0.836091
0.822175
0.81774
0.705657
0.774517
0.815945
0.805506
0.810809
0.804019
0.704119
0.79335
0.803851
0.811246
0.827711
0.851481
0.832315
0.814242
0.79999
0.804704
0.802442
0.780064
0.61319
0.800967
0.732572
0.663195
0.823323
0.799357
0.777297
0.800497
0.754809
0.785596
0.812324
0.8227
0.803882
0.816657
0.817853
0.821042
0.814173
0.808954
0.712973
0.700364
0.642097
0.829763
0.869806
0.815763
0.841832
0.848174
0.863969
0.737326
0.817126
0.863265
0.810754
0.813744
0.816678
0.733808
0.813095
0.807288
0.806789
0.520644
0.813803
0.761839
0.81395
0.81398
0.803634
0.703975
0.813986
0.612162
0.825433
0.802741
0.822612
0.855478
0.803532
0.795584
0.821506
0.812317
0.806036
0.762887
0.514054
0.821461
0.803229
0.829636
0.826273
0.802762
0.807164
0.834845
0.721933
0.504922
0.886427
0.801158
0.816364
0.804442
0.709181
0.799179
0.800538
0.815758
0.737601
0.647711
0.883414
0.715141
0.836974
0.812753
0.833341
0.843041
0.792849
0.80486
0.814339
0.853048
0.739028
0.870907
0.814754
0.564735
0.803049
0.748659
0.853237
0.761119
0.804333
0.804058
0.800123
0.801835
0.809628
0.813769
0.856392
0.806552
0.802918
0.801397
0.800499
0.813108
0.817517
0.802682
0.813353
0.849553
0.803141
0.784022
0.80234
0.840297
0.726976
0.81439
0.814557
0.652891
0.714094
0.805733
0.823541
0.80421
0.515521
0.857286
0.813934
0.833682
0.805431
0.80339
0.801557
0.786859
0.58868
0.804468
0.816763
0.836391
0.821143
0.813794
0.798821
0.748167
0.801753
0.766704
0.787847
0.799864
0.791212
0.751172
0.801305
0.812069
0.811124
0.832567
0.849916
0.55593
0.842293
0.813715
0.821028
0.802449
0.822875
0.811945
0.894753
0.800692
0.868243
0.805853
0.760591
0.862357
0.802406
0.800361
0.824662
0.661615
0.646522
0.803486
0.803979
0.698645
0.655497
0.800016
0.824379
0.813856
0.823138
0.734245
0.817639
0.813649
0.826644
0.817494
0.812101
0.813736
0.755242
0.804445
0.816336
0.8122
0.677265
0.568443
0.813773
0.651163
0.722705
0.557262
0.841781
0.800624
0.531148
0.602376
0.82788
0.908159
0.818758
0.653546
0.814877
0.787
0.802176
0.786841
0.821311
0.810685
0.788591
0.821597
0.80164
0.589705
0.818442
0.767355
0.816569
0.699179
0.822771
0.790227
0.81468
0.800605
0.664051
0.843813
0.807008
0.8072
0.498155
0.817473
0.800849
0.853084
0.710444
0.817722
0.589346
0.721054
0.801849
0.797193
0.734381
0.716824
0.714491
0.511366
0.59877
0.800567
0.521857
0.823149
0.526956
0.757828
0.67348
0.606607
0.544532
0.746127
0.803138
0.713595
0.821863
0.80128
0.803329
0.761818
0.889836
0.799599
0.825003
0.80356
0.813648
0.706867
0.808093
0.737442
0.822468
0.886212
0.833967
0.7485
0.823329
0.771128
0.880075
0.804307
0.759285
0.851022
0.77747
0.800043
0.805911
0.758862
0.745946
0.670997
0.805105
0.803086
0.818496
0.833928
0.612809
0.80853
0.541277
0.669685
0.620351
0.819144
0.821607
0.809729
0.804087
0.61704
0.872656
0.802737
0.802993
0.863789
0.813295
0.772592
0.813031
0.802453
0.818522
0.803185
0.717887
0.803787
0.658696
0.799515
0.804661
0.801734
0.640339
0.812013
0.810748
0.725987
0.818375
0.551776
0.578645
0.804276
0.697446
0.72671
0.573962
0.724874
0.814381
0.70483
0.773452
0.715584
0.813209
0.671346
0.762726
0.80679
0.8113
0.656358
0.802095
0.895294
0.796946
0.817439
0.588615
0.69488
0.801579
0.813789
0.814733
0.851944
0.813444
0.804419
0.803864
0.803428
0.714845
0.716793
0.61723
0.772204
0.53751
0.722939
0.810648
0.815104
0.806688
0.799825
0.552555
0.809779
0.803865
0.556683
0.546764
0.747276
0.803679
0.806749
0.551627
0.798524
0.57168
0.722599
0.609462
0.813898
0.802689
0.59884
0.609843
0.868136
0.81042
0.766021
0.719129
0.624893
0.656495
0.707583
0.816645
0.760388
0.765463
0.625504
0.75463
0.810007
0.81604
0.813308
0.81615
0.86667
0.755528
0.819522
0.803509
0.851584
0.813727
0.802856
0.813876
0.721466
0.813572
0.81263
0.81582
0.811806
0.816519
0.803349
0.818527
0.811054
0.810421
0.817876
0.800241
0.817211
0.819549
0.668617
0.81921
0.86866
0.818775
0.793167
0.647126
0.858872
0.819391
0.825409
0.800076
0.812073
0.75743
0.85287
0.567093
0.728466
0.810019
0.816337
0.803988
0.803449
0.832504
0.805589
0.805595
0.815947
0.781238
0.83896
0.842314
0.815721
0.665471
0.618289
0.816432
0.817244
0.789005
0.849968
0.847579
0.811472
0.814259
0.778376
0.814788
0.81844
0.814819
0.819377
0.813683
0.816489
0.851373
0.816631
0.815146
0.818178
0.818379
0.785237
0.814756
0.804593
0.804757
0.805108
0.819173
0.812328
0.788911
0.753778
0.81344
0.80641
0.809507
0.806513
0.858021
0.803794
0.814688
0.813518
0.805623
0.664364
0.804007
0.813569
0.815615
0.810484
0.813617
0.814067
0.813832
0.810325
0.864618
0.505802
0.813652
0.842022
0.813465
0.803136
0.808703
0.81569
0.840076
0.800968
0.801819
0.813018
0.699565
0.813674
0.808673
0.80794
0.813338
0.813698
0.813829
0.814135
0.515937
0.81214
0.718041
0.886004
0.821586
0.732797
0.677496
0.816039
0.803961
0.819204
0.647725
0.801948
0.81411
0.649178
0.800385
0.804286
0.816076
0.806703
0.857039
0.809993
0.608472
0.801248
0.775214
0.811396
0.889229
0.803782
0.815691
0.819722
0.832534
0.814169
0.822946
0.836742
0.636275
0.80317
0.656969
0.814488
0.814393
0.711094
0.814284
0.805404
0.712085
0.815469
0.703744
0.861352
0.784471
0.815011
0.813729
0.814184
0.6695
0.814404
0.634461
0.800613
0.792639
0.822829
0.815861
0.717443
0.766682
0.830517
0.813526
0.821672
0.822454
0.814203
0.825843
0.799991
0.554153
0.754772
0.760056
0.730721
0.838017
0.823017
0.834753
0.776836
0.802853
0.813843
0.813783
0.813783
0.775142
0.565752
0.803283
0.532625
0.808682
0.82493
0.800221
0.803861
0.813605
0.806187
0.78324
0.732816
0.814156
0.859396
0.81418
0.799778
0.736539
0.810174
0.789015
0.834043
0.508987
0.796174
0.806551
0.7994
0.693039
0.813636
0.811316
0.85801
0.570914
0.807504
0.803343
0.813578
0.615817
0.813883
0.803406
0.803487
0.803115
0.813985
0.814074
0.816734
0.81385
0.716443
0.804639
0.803271
0.81381
0.896289
0.813935
0.774609
0.841688
0.79931
0.803192
0.602938
0.813712
0.803434
0.826297
0.802189
0.866476
0.815315
0.8542
0.800868
0.82119
0.778307
0.560487
0.753623
0.79484
0.804576
0.814087
0.814524
0.557669
0.862012
0.858835
0.769263
0.757928
0.738588
0.812704
0.84907
0.813745
0.814093
0.813779
0.804385
0.726544
0.803603
0.799611
0.764146
0.824767
0.823526
0.862067
0.816287
0.813794
0.536712
0.809028
0.813755
0.801139
0.774533
0.818247
0.803165
0.81364
0.827373
0.798659
0.80398
0.801563
0.815693
0.839496
0.80289
0.799637
0.802066
0.766043
0.820432
0.569101
0.868582
0.803807
0.548006
0.803623
0.80361
0.820107
0.601378
0.607816
0.801996
0.804182
0.801332
0.86096
0.78028
0.815184
0.803036
0.866852
0.80483
0.80456
0.826679
0.816503
0.820708
0.821809
0.820872
0.867684
0.730044
0.852413
0.817797
0.654897
0.802949
0.803291
0.803748
0.821665
0.824009
0.804345
0.801548
0.800536
0.823201
0.803573
0.803733
0.800174
0.824889
0.804077
0.802238
0.806207
0.828321
0.801114
0.801966
0.824935
0.800044
0.816038
0.652517
0.826871
0.85013
0.805209
0.820138
0.803362
0.829208
0.837887
0.80348
0.822009
0.80091
0.8075
0.789768
0.80238
0.803542
0.806481
0.806251
0.805007
0.819114
0.815423
0.811431
0.831845
0.80271
0.802367
0.800393
0.789148
0.834188
0.803287
0.819869
0.815866
0.807419
0.805479
0.803001
0.839268
0.865795
0.800085
0.67997
0.801503
0.842511
0.817208
0.805689
0.804571
0.820036
0.844915
0.609137
0.829426
0.795072
0.851303
0.819299
0.812234
0.813603
0.808744
0.804061
0.813051
0.808976
0.593316
0.84831
0.794878
0.814879
0.85488
0.819845
0.76378
0.808968
0.815137
0.816051
0.80312
0.6629
0.809782
0.863405
0.803046
0.801063
0.776132
0.871412
0.800758
0.877249
0.80712
0.817763
0.821158
0.802811
0.804213
0.813385
0.816513
0.804022
0.814057
0.817262
0.881522
0.821005
0.80944
0.80069
0.828813
0.810637
0.839559
0.809192
0.807073
0.812707
0.817164
0.830281
0.814359
0.823012
0.832916
0.814741
0.701875
0.694324
0.813813
0.818334
0.804389
0.813857
0.51891
0.855116
0.800202
0.806351
0.814587
0.814195
0.804097
0.813225
0.800938
0.801581
0.808487
0.81518
0.75779
0.785145
0.82345
0.843478
0.835213
0.800751
0.805634
0.803438
0.81309
0.806072
0.800026
0.800254
0.80135
0.811306
0.798024
0.80329
0.835895
0.831978
0.731448
0.702341
0.807782
0.701316
0.800046
0.578962
0.804561
0.807261
0.803597
0.818745
0.834437
0.81463
0.813653
0.810434
0.804004
0.881696
0.816888
0.805376
0.772736
0.591559
0.81038
0.807164
0.769901
0.815094
0.814583
0.791723
0.800896
0.804163
0.633985
0.830782
0.803591
0.782215
0.779724
0.852978
0.810123
0.803417
0.803181
0.81079
0.811264
0.522915
0.802113
0.839869
0.81463
0.798801
0.591223
0.814942
0.814764
0.813766
0.834144
0.814619
0.804141
0.822417
0.806123
0.577604
0.808866
0.737752
0.798697
0.814357
0.723066
0.815586
0.846785
0.831977
0.665663
0.891034
0.785918
0.778129
0.797082
0.779736
0.809008
0.85079
0.808498
0.803072
0.814277
0.809539
0.782983
0.78625
0.814563
0.808872
0.835225
0.821763
0.836056
0.80187
0.800181
0.813834
0.856895
0.816944
0.818827
0.814091
0.608798
0.795756
0.824345
0.829668
0.866138
0.813416
0.819329
0.512996
0.810435
0.801043
0.813331
0.815344
0.847887
0.813822
0.811235
0.88166
0.765252
0.812838
0.813976
0.809684
0.805366
0.814911
0.657072
0.800682
0.849847
0.83387
0.81111
0.814135
0.814107
0.809701
0.701559
0.813083
0.80072
0.838949
0.819032
0.812196
0.831688
0.793326
0.812151
0.818378
0.809386
0.819845
0.745443
0.855526
0.819524
0.814353
0.813829
0.813487
0.816303
0.817727
0.813539
0.811403
0.841419
0.819159
0.800669
0.825609
0.827362
0.816602
0.81477
0.800849
0.801832
0.813828
0.819586
0.82975
0.813591
0.817035
0.80038
0.81059
0.813633
0.813568
0.802597
0.81533
0.81406
0.803447
0.813662
0.836039
0.800193
0.810076
0.822138
0.562507
0.814886
0.818734
0.816036
0.815603
0.822476
0.829223
0.816237
0.8194
0.702379
0.813841
0.801693
0.816249
0.819534
0.835438
0.822088
0.815909
0.829817
0.825426
0.811441
0.819346
0.820134
0.804818
0.813921
0.816236
0.819782
0.832536
0.813381
0.816326
0.802799
0.813737
0.813814
0.527531
0.630208
0.814514
0.821966
0.802168
0.822945
0.81653
0.842283
0.709005
0.814453
0.73177
0.817839
0.810968
0.813921
0.829726
0.814368
0.805476
0.813719
0.830431
0.84011
0.813541
0.720022
0.819526
0.816638
0.800371
0.803082
0.815951
0.856187
0.813421
0.814111
0.849992
0.829342
0.843538
0.577721
0.829544
0.814635
0.811534
0.817989
0.851386
0.818345
0.719187
0.800046
0.832093
0.80034
0.800208
0.805712
0.748497
0.814133
0.815003
0.726684
0.815007
0.827663
0.814041
0.814689
0.799747
0.818937
0.813781
0.824133
0.808836
0.808735
0.815557
0.70351
0.819632
0.814743
0.813773
0.641884
0.717459
0.600898
0.823588
0.536186
0.854706
0.728075
0.843216
0.81327
0.724835
0.821758
0.816472
0.74324
0.80796
0.818923
0.794529
0.817104
0.816486
0.816415
0.813779
0.808558
0.803754
0.738002
0.836829
0.820682
0.817195
0.799695
0.815716
0.802605
0.816626
0.814166
0.855412
0.818338
0.502332
0.813891
0.819349
0.819226
0.778406
0.816025
0.806849
0.818851
0.846144
0.598209
0.809651
0.799849
0.815956
0.818196
0.818261
0.813211
0.819163
0.814452
0.81519
0.803159
0.81488
0.846444
0.814583
0.792164
0.81218
0.623985
0.718257
0.813841
0.817585
0.803175
0.822813
0.735497
0.803194
0.803218
0.820745
0.703253
0.818177
0.799903
0.816051
0.865735
0.7858
0.822463
0.818551
0.823375
0.814709
0.770084
0.802559
0.814273
0.902394
0.827495
0.817035
0.832563
0.810349
0.869352
0.718399
0.702371
0.853019
0.802774
0.701806
0.850957