# vtk DataFile Version 1.0
unstructured grid
ascii
DATASET UNSTRUCTURED_GRID
points 7812 float
-1 0 0
-1 1 0
2 0 0
2 1 0
0 0 0
1 0 0
-1 1 0.1
-1 0 0.1
0 0 0.1
1 0 0.1
2 0 0.1
2 1 0.1
-0.99 0 0
-0.98 0 0
-0.97 0 0
-0.96 0 0
-0.95 0 0
-0.94 0 0
-0.93 0 0
-0.92 0 0
-0.91 0 0
-0.9 0 0
-0.89 0 0
-0.88 0 0
-0.87 0 0
-0.86 0 0
-0.85 0 0
-0.84 0 0
-0.83 0 0
-0.82 0 0
-0.81 0 0
-0.8 0 0
-0.79 0 0
-0.78 0 0
-0.77 0 0
-0.76 0 0
-0.75 0 0
-0.74 0 0
-0.73 0 0
-0.72 0 0
-0.71 0 0
-0.7 0 0
-0.69 0 0
-0.68 0 0
-0.67 0 0
-0.66 0 0
-0.65 0 0
-0.64 0 0
-0.63 0 0
-0.62 0 0
-0.61 0 0
-0.6 0 0
-0.59 0 0
-0.58 0 0
-0.57 0 0
-0.56 0 0
-0.55 0 0
-0.54 0 0
-0.53 0 0
-0.52 0 0
-0.51 0 0
-0.5 0 0
-0.49 0 0
-0.48 0 0
-0.47 0 0
-0.46 0 0
-0.45 0 0
-0.44 0 0
-0.43 0 0
-0.42 0 0
-0.41 0 0
-0.4 0 0
-0.39 0 0
-0.38 0 0
-0.37 0 0
-0.36 0 0
-0.35 0 0
-0.34 0 0
-0.33 0 0
-0.32 0 0
-0.31 0 0
-0.3 0 0
-0.29 0 0
-0.28 0 0
-0.27 0 0
-0.26 0 0
-0.25 0 0
-0.24 0 0
-0.23 0 0
-0.22 0 0
-0.21 0 0
-0.2 0 0
-0.19 0 0
-0.18 0 0
-0.17 0 0
-0.16 0 0
-0.15 0 0
-0.14 0 0
-0.13 0 0
-0.12 0 0
-0.11 0 0
-0.1 0 0
-0.09 0 0
-0.08 0 0
-0.07 0 0
-0.06 0 0
-0.05 0 0
-0.04 0 0
-0.03 0 0
-0.02 0 0
-0.01 0 0
1.01 0 0
1.02 0 0
1.03 0 0
1.04 0 0
1.05 0 0
1.06 0 0
1.07 0 0
1.08 0 0
1.09 0 0
1.1 0 0
1.11 0 0
1.12 0 0
1.13 0 0
1.14 0 0
1.15 0 0
1.16 0 0
1.17 0 0
1.18 0 0
1.19 0 0
1.2 0 0
1.21 0 0
1.22 0 0
1.23 0 0
1.24 0 0
1.25 0 0
1.26 0 0
1.27 0 0
1.28 0 0
1.29 0 0
1.3 0 0
1.31 0 0
1.32 0 0
1.33 0 0
1.34 0 0
1.35 0 0
1.36 0 0
1.37 0 0
1.38 0 0
1.39 0 0
1.4 0 0
1.41 0 0
1.42 0 0
1.43 0 0
1.44 0 0
1.45 0 0
1.46 0 0
1.47 0 0
1.48 0 0
1.49 0 0
1.5 0 0
1.51 0 0
1.52 0 0
1.53 0 0
1.54 0 0
1.55 0 0
1.56 0 0
1.57 0 0
1.58 0 0
1.59 0 0
1.6 0 0
1.61 0 0
1.62 0 0
1.63 0 0
1.64 0 0
1.65 0 0
1.66 0 0
1.67 0 0
1.68 0 0
1.69 0 0
1.7 0 0
1.71 0 0
1.72 0 0
1.73 0 0
1.74 0 0
1.75 0 0
1.76 0 0
1.77 0 0
1.78 0 0
1.79 0 0
1.8 0 0
1.81 0 0
1.82 0 0
1.83 0 0
1.84 0 0
1.85 0 0
1.86 0 0
1.87 0 0
1.88 0 0
1.89 0 0
1.9 0 0
1.91 0 0
1.92 0 0
1.93 0 0
1.94 0 0
1.95 0 0
1.96 0 0
1.97 0 0
1.98 0 0
1.99 0 0
2 0.010289 0
2 0.0215307 0
2 0.0338135 0
2 0.0472336 0
2 0.0618965 0
2 0.0779171 0
2 0.0954213 0
2 0.114546 0
2 0.135442 0
2 0.158274 0
2 0.183219 0
2 0.210474 0
2 0.240253 0
2 0.27279 0
2 0.308339 0
2 0.347181 0
2 0.389619 0
2 0.435987 0
2 0.486649 0
2 0.542002 0
2 0.602481 0
2 0.66856 0
2 0.740758 0
2 0.819642 0
2 0.90583 0
1.9 1 0
1.8 1 0
1.7 1 0
1.6 1 0
1.5 1 0
1.4 1 0
1.3 1 0
1.2 1 0
1.1 1 0
1 1 0
0.9 1 0
0.8 1 0
0.7 1 0
0.6 1 0
0.5 1 0
0.4 1 0
0.3 1 0
0.2 1 0
0.1 1 0
3.69793e-12 1 0
-0.1 1 0
-0.2 1 0
-0.3 1 0
-0.4 1 0
-0.5 1 0
-0.6 1 0
-0.7 1 0
-0.8 1 0
-0.9 1 0
-1 0.90583 0
-1 0.819642 0
-1 0.740758 0
-1 0.66856 0
-1 0.602481 0
-1 0.542002 0
-1 0.486649 0
-1 0.435987 0
-1 0.389619 0
-1 0.347181 0
-1 0.308339 0
-1 0.27279 0
-1 0.240253 0
-1 0.210474 0
-1 0.183219 0
-1 0.158274 0
-1 0.135442 0
-1 0.114546 0
-1 0.0954213 0
-1 0.0779171 0
-1 0.0618965 0
-1 0.0472336 0
-1 0.0338135 0
-1 0.0215307 0
-1 0.010289 0
0.00921362 0.00379763 0
0.0184561 0.00752451 0
0.0277268 0.0111804 0
0.0370253 0.0147652 0
0.0463511 0.0182786 0
0.0557034 0.0217203 0
0.0650819 0.0250903 0
0.074486 0.0283883 0
0.083915 0.0316141 0
0.0933685 0.0347675 0
0.102846 0.0378484 0
0.112347 0.0408565 0
0.12187 0.0437917 0
0.131416 0.0466538 0
0.140983 0.0494427 0
0.150572 0.0521581 0
0.160181 0.0547999 0
0.16981 0.0573681 0
0.179458 0.0598623 0
0.189125 0.0622825 0
0.198811 0.0646285 0
0.208514 0.0669001 0
0.218234 0.0690974 0
0.227971 0.07122 0
0.237724 0.073268 0
0.247493 0.0752411 0
0.257276 0.0771393 0
0.267073 0.0789625 0
0.276884 0.0807105 0
0.286708 0.0823832 0
0.296545 0.0839806 0
0.306394 0.0855025 0
0.316254 0.0869488 0
0.326125 0.0883196 0
0.336006 0.0896146 0
0.345896 0.0908339 0
0.355796 0.0919773 0
0.365704 0.0930447 0
0.375621 0.0940362 0
0.385544 0.0949517 0
0.395474 0.095791 0
0.40541 0.0965542 0
0.415352 0.0972412 0
0.425299 0.097852 0
0.43525 0.0983865 0
0.445205 0.0988447 0
0.455164 0.0992266 0
0.465125 0.0995321 0
0.475088 0.0997613 0
0.485052 0.0999141 0
0.495017 0.0999904 0
0.504983 0.0999904 0
0.514948 0.0999141 0
0.524912 0.0997613 0
0.534875 0.0995321 0
0.544836 0.0992266 0
0.554795 0.0988447 0
0.56475 0.0983865 0
0.574701 0.097852 0
0.584648 0.0972412 0
0.59459 0.0965542 0
0.604526 0.095791 0
0.614456 0.0949517 0
0.624379 0.0940362 0
0.634296 0.0930447 0
0.644204 0.0919773 0
0.654104 0.0908339 0
0.663994 0.0896146 0
0.673875 0.0883196 0
0.683746 0.0869488 0
0.693606 0.0855025 0
0.703455 0.0839806 0
0.713292 0.0823832 0
0.723116 0.0807105 0
0.732927 0.0789625 0
0.742724 0.0771393 0
0.752508 0.0752411 0
0.762276 0.073268 0
0.772029 0.07122 0
0.781766 0.0690974 0
0.791486 0.0669001 0
0.801189 0.0646285 0
0.810875 0.0622825 0
0.820542 0.0598623 0
0.83019 0.0573681 0
0.839819 0.0547999 0
0.849428 0.0521581 0
0.859017 0.0494427 0
0.868584 0.0466538 0
0.87813 0.0437917 0
0.887653 0.0408565 0
0.897154 0.0378484 0
0.906631 0.0347675 0
0.916085 0.0316141 0
0.925514 0.0283883 0
0.934918 0.0250903 0
0.944297 0.0217203 0
0.953649 0.0182786 0
0.962975 0.0147652 0
0.972273 0.0111804 0
0.981544 0.00752451 0
0.990786 0.00379763 0
-1 0.90583 0.1
-1 0.819642 0.1
-1 0.740758 0.1
-1 0.66856 0.1
-1 0.602481 0.1
-1 0.542002 0.1
-1 0.486649 0.1
-1 0.435987 0.1
-1 0.389619 0.1
-1 0.347181 0.1
-1 0.308339 0.1
-1 0.27279 0.1
-1 0.240253 0.1
-1 0.210474 0.1
-1 0.183219 0.1
-1 0.158274 0.1
-1 0.135442 0.1
-1 0.114546 0.1
-1 0.0954213 0.1
-1 0.0779171 0.1
-1 0.0618965 0.1
-1 0.0472336 0.1
-1 0.0338135 0.1
-1 0.0215307 0.1
-1 0.010289 0.1
-0.99 0 0.1
-0.98 0 0.1
-0.97 0 0.1
-0.96 0 0.1
-0.95 0 0.1
-0.94 0 0.1
-0.93 0 0.1
-0.92 0 0.1
-0.91 0 0.1
-0.9 0 0.1
-0.89 0 0.1
-0.88 0 0.1
-0.87 0 0.1
-0.86 0 0.1
-0.85 0 0.1
-0.84 0 0.1
-0.83 0 0.1
-0.82 0 0.1
-0.81 0 0.1
-0.8 0 0.1
-0.79 0 0.1
-0.78 0 0.1
-0.77 0 0.1
-0.76 0 0.1
-0.75 0 0.1
-0.74 0 0.1
-0.73 0 0.1
-0.72 0 0.1
-0.71 0 0.1
-0.7 0 0.1
-0.69 0 0.1
-0.68 0 0.1
-0.67 0 0.1
-0.66 0 0.1
-0.65 0 0.1
-0.64 0 0.1
-0.63 0 0.1
-0.62 0 0.1
-0.61 0 0.1
-0.6 0 0.1
-0.59 0 0.1
-0.58 0 0.1
-0.57 0 0.1
-0.56 0 0.1
-0.55 0 0.1
-0.54 0 0.1
-0.53 0 0.1
-0.52 0 0.1
-0.51 0 0.1
-0.5 0 0.1
-0.49 0 0.1
-0.48 0 0.1
-0.47 0 0.1
-0.46 0 0.1
-0.45 0 0.1
-0.44 0 0.1
-0.43 0 0.1
-0.42 0 0.1
-0.41 0 0.1
-0.4 0 0.1
-0.39 0 0.1
-0.38 0 0.1
-0.37 0 0.1
-0.36 0 0.1
-0.35 0 0.1
-0.34 0 0.1
-0.33 0 0.1
-0.32 0 0.1
-0.31 0 0.1
-0.3 0 0.1
-0.29 0 0.1
-0.28 0 0.1
-0.27 0 0.1
-0.26 0 0.1
-0.25 0 0.1
-0.24 0 0.1
-0.23 0 0.1
-0.22 0 0.1
-0.21 0 0.1
-0.2 0 0.1
-0.19 0 0.1
-0.18 0 0.1
-0.17 0 0.1
-0.16 0 0.1
-0.15 0 0.1
-0.14 0 0.1
-0.13 0 0.1
-0.12 0 0.1
-0.11 0 0.1
-0.1 0 0.1
-0.09 0 0.1
-0.08 0 0.1
-0.07 0 0.1
-0.06 0 0.1
-0.05 0 0.1
-0.04 0 0.1
-0.03 0 0.1
-0.02 0 0.1
-0.01 0 0.1
0.00921362 0.00379763 0.1
0.0184561 0.00752451 0.1
0.0277268 0.0111804 0.1
0.0370253 0.0147652 0.1
0.0463511 0.0182786 0.1
0.0557034 0.0217203 0.1
0.0650819 0.0250903 0.1
0.074486 0.0283883 0.1
0.083915 0.0316141 0.1
0.0933685 0.0347675 0.1
0.102846 0.0378484 0.1
0.112347 0.0408565 0.1
0.12187 0.0437917 0.1
0.131416 0.0466538 0.1
0.140983 0.0494427 0.1
0.150572 0.0521581 0.1
0.160181 0.0547999 0.1
0.16981 0.0573681 0.1
0.179458 0.0598623 0.1
0.189125 0.0622825 0.1
0.198811 0.0646285 0.1
0.208514 0.0669001 0.1
0.218234 0.0690974 0.1
0.227971 0.07122 0.1
0.237724 0.073268 0.1
0.247493 0.0752411 0.1
0.257276 0.0771393 0.1
0.267073 0.0789625 0.1
0.276884 0.0807105 0.1
0.286708 0.0823832 0.1
0.296545 0.0839806 0.1
0.306394 0.0855025 0.1
0.316254 0.0869488 0.1
0.326125 0.0883196 0.1
0.336006 0.0896146 0.1
0.345896 0.0908339 0.1
0.355796 0.0919773 0.1
0.365704 0.0930447 0.1
0.375621 0.0940362 0.1
0.385544 0.0949517 0.1
0.395474 0.095791 0.1
0.40541 0.0965542 0.1
0.415352 0.0972412 0.1
0.425299 0.097852 0.1
0.43525 0.0983865 0.1
0.445205 0.0988447 0.1
0.455164 0.0992266 0.1
0.465125 0.0995321 0.1
0.475088 0.0997613 0.1
0.485052 0.0999141 0.1
0.495017 0.0999904 0.1
0.504983 0.0999904 0.1
0.514948 0.0999141 0.1
0.524912 0.0997613 0.1
0.534875 0.0995321 0.1
0.544836 0.0992266 0.1
0.554795 0.0988447 0.1
0.56475 0.0983865 0.1
0.574701 0.097852 0.1
0.584648 0.0972412 0.1
0.59459 0.0965542 0.1
0.604526 0.095791 0.1
0.614456 0.0949517 0.1
0.624379 0.0940362 0.1
0.634296 0.0930447 0.1
0.644204 0.0919773 0.1
0.654104 0.0908339 0.1
0.663994 0.0896146 0.1
0.673875 0.0883196 0.1
0.683746 0.0869488 0.1
0.693606 0.0855025 0.1
0.703455 0.0839806 0.1
0.713292 0.0823832 0.1
0.723116 0.0807105 0.1
0.732927 0.0789625 0.1
0.742724 0.0771393 0.1
0.752508 0.0752411 0.1
0.762276 0.073268 0.1
0.772029 0.07122 0.1
0.781766 0.0690974 0.1
0.791486 0.0669001 0.1
0.801189 0.0646285 0.1
0.810875 0.0622825 0.1
0.820542 0.0598623 0.1
0.83019 0.0573681 0.1
0.839819 0.0547999 0.1
0.849428 0.0521581 0.1
0.859017 0.0494427 0.1
0.868584 0.0466538 0.1
0.87813 0.0437917 0.1
0.887653 0.0408565 0.1
0.897154 0.0378484 0.1
0.906631 0.0347675 0.1
0.916085 0.0316141 0.1
0.925514 0.0283883 0.1
0.934918 0.0250903 0.1
0.944297 0.0217203 0.1
0.953649 0.0182786 0.1
0.962975 0.0147652 0.1
0.972273 0.0111804 0.1
0.981544 0.00752451 0.1
0.990786 0.00379763 0.1
1.01 0 0.1
1.02 0 0.1
1.03 0 0.1
1.04 0 0.1
1.05 0 0.1
1.06 0 0.1
1.07 0 0.1
1.08 0 0.1
1.09 0 0.1
1.1 0 0.1
1.11 0 0.1
1.12 0 0.1
1.13 0 0.1
1.14 0 0.1
1.15 0 0.1
1.16 0 0.1
1.17 0 0.1
1.18 0 0.1
1.19 0 0.1
1.2 0 0.1
1.21 0 0.1
1.22 0 0.1
1.23 0 0.1
1.24 0 0.1
1.25 0 0.1
1.26 0 0.1
1.27 0 0.1
1.28 0 0.1
1.29 0 0.1
1.3 0 0.1
1.31 0 0.1
1.32 0 0.1
1.33 0 0.1
1.34 0 0.1
1.35 0 0.1
1.36 0 0.1
1.37 0 0.1
1.38 0 0.1
1.39 0 0.1
1.4 0 0.1
1.41 0 0.1
1.42 0 0.1
1.43 0 0.1
1.44 0 0.1
1.45 0 0.1
1.46 0 0.1
1.47 0 0.1
1.48 0 0.1
1.49 0 0.1
1.5 0 0.1
1.51 0 0.1
1.52 0 0.1
1.53 0 0.1
1.54 0 0.1
1.55 0 0.1
1.56 0 0.1
1.57 0 0.1
1.58 0 0.1
1.59 0 0.1
1.6 0 0.1
1.61 0 0.1
1.62 0 0.1
1.63 0 0.1
1.64 0 0.1
1.65 0 0.1
1.66 0 0.1
1.67 0 0.1
1.68 0 0.1
1.69 0 0.1
1.7 0 0.1
1.71 0 0.1
1.72 0 0.1
1.73 0 0.1
1.74 0 0.1
1.75 0 0.1
1.76 0 0.1
1.77 0 0.1
1.78 0 0.1
1.79 0 0.1
1.8 0 0.1
1.81 0 0.1
1.82 0 0.1
1.83 0 0.1
1.84 0 0.1
1.85 0 0.1
1.86 0 0.1
1.87 0 0.1
1.88 0 0.1
[...]
CELL_DATA 7425
SCALARS rho float
LOOKUP_TABLE default
0.900915
0.872949
0.949017
0.95127
0.848167
0.949088
0.948895
0.945277
0.941519
0.926312
0.95941
0.889461
0.944805
0.951244
0.87742
0.947968
0.813045
0.942942
0.854103
0.909471
0.951971
0.903821
0.923112
0.951169
0.863624
0.92803
0.952197
0.918981
0.883155
0.88623
0.948742
0.902226
0.856055
0.915351
0.894007
0.950978
0.863065
0.945202
0.890966
0.951225
0.931014
0.913263
0.939371
0.894062
0.903777
0.909437
0.946921
0.944694
0.906881
0.895786
0.899859
0.875194
0.905666
0.828216
0.896205
0.89174
0.949428
0.814852
0.926461
0.921142
0.926536
0.887318
0.942837
0.827909
0.882809
0.948239
0.900654
0.935648
0.891653
0.885892
0.876466
0.828096
0.964867
0.903249
0.909363
0.941711
0.873888
0.880238
0.942933
0.90191
0.947215
0.886355
0.940137
0.906609
0.951613
0.860105
0.897184
0.951573
0.897173
0.956374
0.89644
0.924179
0.918178
0.844926
0.948137
0.943091
0.910357
0.903739
0.949963
0.874373
0.946775
0.898505
0.860904
0.951276
0.901601
0.891288
0.950472
0.926669
0.946357
0.83902
0.94786
0.905522
0.906862
0.896434
0.939425
0.904919
0.952231
0.823073
0.893638
0.902233
0.875796
0.936428
0.94131
0.905319
0.959489
0.911523
0.884244
0.944031
0.913979
0.891048
0.945999
0.915318
0.89348
0.92394
0.905957
0.849998
0.905017
0.927584
0.89801
0.914411
0.932923
0.890286
0.93776
0.895554
0.871123
0.904608
0.895373
0.948703
0.906073
0.95086
0.947888
0.897575
0.874139
0.899205
0.893936
0.867554
0.890089
0.951696
0.942798
0.916098
0.850639
0.894431
0.860975
0.951511
0.94937
0.816805
0.941994
0.938198
0.894332
0.859563
0.949062
0.881821
0.94884
0.83765
0.814075
0.918098
0.877911
0.943097
0.906061
0.894819
0.84389
0.944582
0.963893
0.95198
0.897373
0.949585
0.822084
0.905715
0.844543
0.943731
0.939649
0.846998
0.895309
0.893722
0.94641
0.949094
0.909141
0.945472
0.920606
0.884133
0.892705
0.93864
0.904089
0.911657
0.896133
0.895606
0.90087
0.907018
0.906192
0.963907
0.884604
0.883316
0.95288
0.941046
0.947886
0.949461
0.946609
0.905324
0.900174
0.944438
0.897502
0.904993
0.894231
0.945882
0.945452
0.941699
0.952669
0.939864
0.921194
0.897034
0.909883
0.928073
0.896388
0.862569
0.82741
0.926182
0.913116
0.902683
0.897153
0.960704
0.925763
0.944517
0.884936
0.947262
0.89288
0.915257
0.949321
0.860338
0.950843
0.900325
0.937303
0.896473
0.939956
0.950044
0.9212
0.893122
0.822976
0.897747
0.914139
0.945846
0.902731
0.946987
0.946192
0.955058
0.940279
0.882877
0.844854
0.950143
0.960004
0.884202
0.902504
0.956424
0.89585
0.876592
0.951281
0.95226
0.942763
0.949762
0.90451
0.946436
0.92196
0.95549
0.905692
0.953718
0.851527
0.947975
0.832062
0.90225
0.927638
0.897961
0.893914
0.947896
0.941281
0.947224
0.917799
0.907828
0.908771
0.950689
0.894829
0.935254
0.859323
0.909379
0.893
0.905986
0.946555
0.942856
0.941052
0.943693
0.950319
0.903744
0.89555
0.874765
0.93979
0.954741
0.923811
0.952776
0.858384
0.895534
0.942894
0.951106
0.919824
0.822649
0.821319
0.960141
0.947927
0.898617
0.943724
0.921505
0.916928
0.932841
0.939889
0.972778
0.855162
0.907731
0.913787
0.907403
0.896945
0.947574
0.951054
0.946327
0.944356
0.927279
0.919499
0.849214
0.94158
0.907919
0.935132
0.903572
0.964881
0.862831
0.884225
0.860115
0.821693
0.942882
0.947025
0.947523
0.912829
0.906974
0.91473
0.910015
0.913127
0.947646
0.820724
0.913588
0.934653
0.907665
0.946707
0.947916
0.823459
0.817622
0.909653
0.921002
0.90727
0.942001
0.942789
0.868715
0.90613
0.894498
0.884936
0.93895
0.842603
0.940136
0.907545
0.89343
0.914511
0.943517
0.862888
0.938701
0.942976
0.877867
0.870756
0.947398
0.885444
0.94997
0.911948
0.945879
0.884634
0.896318
0.877461
0.906467
0.95193
0.90786
0.946429
0.964508
0.90656
0.899511
0.932721
0.882061
0.962104
0.896662
0.950162
0.949657
0.866009
0.950393
0.891971
0.950009
0.951825
0.950628
0.919324
0.951002
0.902782
0.89084
0.898493
0.942025
0.934192
0.876587
0.848556
0.947747
0.941741
0.876368
0.902871
0.905049
0.924172
0.942431
0.955238
0.961102
0.951592
0.82496
0.93983
0.878228
0.949218
0.916442
0.853923
0.910054
0.94835
0.946832
0.886553
0.897847
0.928895
0.894782
0.90061
0.861397
0.901524
0.946304
0.902569
0.910954
0.901973
0.935472
0.939005
0.938876
0.946283
0.949038
0.939297
0.92992
0.90793
0.954048
0.947227
0.90732
0.89275
0.857746
0.953637
0.924767
0.958528
0.90207
0.925447
0.940057
0.945437
0.897093
0.824939
0.955027
0.894907
0.944562
0.940587
0.846249
0.947735
0.951768
0.840033
0.955368
0.906079
0.895095
0.813824
0.942844
0.949856
0.927362
0.956611
0.864996
0.947419
0.814322
0.90808
0.890158
0.898912
0.915422
0.906097
0.944116
0.94263
0.950993
0.92906
0.89359
0.946135
0.949361
0.834943
0.935122
0.949067
0.89735
0.839512
0.920668
0.944147
0.949027
0.912813
0.938329
0.950285
0.958837
0.957618
0.936695
0.90074
0.951943
0.881951
0.953694
0.945413
0.903148
0.943924
0.944617
0.903004
0.886385
0.94812
0.939822
0.940121
0.945143
0.881619
0.921456
0.826103
0.939641
0.946088
0.962828
0.900159
0.943883
0.913079
0.96489
0.893417
0.947561
0.907184
0.897027
0.907626
0.942277
0.961516
0.947263
0.952062
0.895912
0.905069
0.835137
0.865535
0.924944
0.956396
0.904504
0.903525
0.94516
0.941813
0.919593
0.896161
0.951765
0.953133
0.948033
0.904569
0.912803
0.850278
0.892688
0.887442
0.87541
0.947969
0.823007
0.955382
0.903327
0.909123
0.855204
0.947518
0.930014
0.940433
0.948552
0.930175
0.944143
0.948767
0.906084
0.950687
0.857593
0.834802
0.955609
0.90417
0.905053
0.955226
0.880653
0.891939
0.941485
0.950892
0.956001
0.946004
0.82915
0.909938
0.956841
0.905616
0.874441
0.857304
0.940614
0.925463
0.867574
0.907356
0.891229
0.898862
0.949192
0.955414
0.883913
0.953927
0.851034
0.950164
0.943431
0.865138
0.953237
0.94147
0.922684
0.948703
0.886257
0.943559
0.97217
0.829757
0.948725
0.810525
0.830342
0.947409
0.833531
0.854764
0.906824
0.900137
0.944729
0.940332
0.933592
0.948381
0.950151
0.896426
0.949759
0.881839
0.950551
0.962927
0.95193
0.904129
0.919798
0.954775
0.94806
0.955013
0.946452
0.9561
0.888058
0.94617
0.831413
0.953806
0.959914
0.957787
0.932424
0.945167
0.949953
0.901247
0.899483
0.904192
0.811322
0.931744
0.947319
0.951813
0.906126
0.921937
0.945651
0.943172
0.943305
0.946265
0.952478
0.893835
0.811699
0.893434
0.93454
0.938871
0.904981
0.952126
0.895347
0.905912
0.908253
0.893015
0.824597
0.949062
0.874133
0.946286
0.948066
0.877109
0.949064
0.873226
0.886265
0.906339
0.956396
0.950642
0.950434
0.897327
0.866631
0.919599
0.889816
0.972829
0.945164
0.869571
0.943442
0.907407
0.888979
0.944821
0.949467
0.896874
0.942903
0.947403
0.892282
0.94119
0.940434
0.941713
0.879624
0.869074
0.905353
0.885867
0.873396
0.926942
0.914777
0.948031
0.862787
0.887335
0.80747
0.948203
0.94759
0.943106
0.94004
0.91987
0.95182
0.89776
0.889201
0.913555
0.899438
0.947568
0.844018
0.900989
0.950347
0.945639
0.949705
0.90527
0.886968
0.94927
0.906628
0.948912
0.913934
0.962887
0.92234
0.955809
0.948205
0.962475
0.9076
0.839682
0.949225
0.914368
0.912174
0.95068
0.949033
0.946901
0.947958
0.897589
0.885987
0.927289
0.91277
0.878251
0.895651
0.951462
0.893909
0.859746
0.919681
0.876193
0.914321
0.905221
0.945175
0.894635
0.907042
0.949053
0.95126
0.943274
0.900769
0.924021
0.903931
0.872006
0.940482
0.854415
0.927481
0.94543
0.947028
0.939943
0.935438
0.846804
0.869143
0.882381
0.895121
0.939816
0.909732
0.902818
0.946539
0.947318
0.946076
0.948566
0.945814
0.950482
0.845765
0.891371
0.905941
0.902911
0.907126
0.904341
0.915819
0.914142
0.939704
0.932716
0.903362
0.890088
0.949262
0.943368
0.871497
0.920548
0.940608
0.948588
0.939181
0.947516
0.946596
0.953669
0.945799
0.941194
0.893789
0.944717
0.864721
0.949573
0.861698
0.949468
0.943775
0.90251
0.943919
0.953035
0.918797
0.913718
0.890752
0.947809
0.944938
0.890469
0.92
0.913898
0.952363
0.945574
0.894582
0.942185
0.823527
0.947758
0.89144
0.895231
0.924498
0.899319
0.881638
0.947062
0.854816
0.889405
0.938881
0.949441
0.80909
0.924157
0.920617
0.825294
0.896386
0.944635
0.930847
0.890256
0.952597
0.894859
0.900892
0.834673
0.889463
0.905295
0.912943
0.946584
0.950739
0.948715
0.905513
0.871532
0.925209
0.908473
0.895621
0.950086
0.891215
0.906149
0.94156
0.942954
0.948343
0.962178
0.931868
0.949423
0.945178
0.950861
0.96603
0.945889
0.941697
0.891653
0.897159
0.924218
0.950856
0.824124
0.893871
0.834082
0.90724
0.958244
0.949855
0.952646
0.949511
0.904229
0.909593
0.879657
0.948703
0.827001
0.878333
0.894663
0.942382
0.946227
0.91562
0.902259
0.91089
0.945267
0.891574
0.900732
0.947894
0.949102
0.926866
0.907948
0.933322
0.926646
0.869917
0.939816
0.93554
0.862234
0.945517
0.868831
0.899757
0.901711
0.942535
0.94819
0.945866
0.950757
0.91448
0.884614
0.912654
0.905761
0.895341
0.953459
0.891535
0.919259
0.940483
0.928095
0.949386
0.934339
0.939922
0.834091
0.946505
0.930429
0.894096
0.937804
0.943044
0.819542
0.905401
0.904913
0.879141
0.915752
0.945631
0.951184
0.89504
0.906865
0.905685
0.959387
0.874535
0.899208
0.862828
0.940583
0.818055
0.950711
0.951184
0.902239
0.94815
0.894514
0.93995
0.948273
0.877475
0.936618
0.874017
0.896164
0.941397
0.870765
0.893094
0.913535
0.955569
0.952166
0.943777
0.844559
0.877843
0.861705
0.908094
0.903918
0.948646
0.934187
0.914754
0.950117
0.808541
0.906508
0.846002
0.930443
0.907089
0.937837
0.912802
0.946572
0.947485
0.948943
0.94727
0.943521
0.946141
0.92019
0.919919
0.907072
0.95138
0.961949
0.945885
0.912835
0.956035
0.959457
0.923406
0.948847
0.959593
0.948168
0.939598
0.94859
0.931625
0.945877
0.888082
0.886495
0.892382
0.9412
0.911403
0.942965
0.904668
0.85413
0.894448
0.943116
0.902843
0.904222
0.867857
0.94759
0.958447
0.853437
0.895846
0.949451
0.942982
0.879396
0.91081
0.892428
0.949549
0.886453
0.907205
0.95082
0.947589
0.882659
0.952077
0.928902
0.892377
0.966297
0.946948
0.946988
0.877571
0.895681
0.816903
0.849801
0.946445
0.937456
0.907778
0.965054
0.925069
0.953662
0.942192
0.952658
0.955113
0.948704
0.871197
0.94458
0.956356
0.926807
0.96114
0.945091
0.896649
0.875943
0.90417
0.95785
0.938635
0.876044
0.868494
0.83084
0.827209
0.939586
0.940033
0.918678
0.885257
0.812483
0.860039
0.841608
0.938897
0.947815
0.811502
0.939172
0.956962
0.814031
0.939659
0.81067
0.911836
0.932896
0.944255
0.945046
0.901478
0.925078
0.898376
0.950158
0.883012
0.892424
0.918403
0.944786
0.908834
0.875088
0.845605
0.808808
0.942932
0.898311
0.895396
0.94731
0.912963
0.949213
0.940843
0.948786
0.918989
0.907766
0.944394
0.906342
0.83487
0.897641
0.90121
0.852815
0.910721
0.940956
0.951053
0.915541
0.897605
0.955129
0.939482
0.903229
0.864668
0.904919
0.937119
0.968978
0.941919
0.92222
0.893755
0.938217
0.958864
0.880558
0.874805
0.950409
0.911403
0.907187
0.851316
0.861191
0.892344
0.909794
0.873417
0.950351
0.941641
0.949694
0.91158
0.948258
0.941994
0.950496
0.948822
0.894623
0.939502
0.931424
0.879527
0.94721
0.937458
0.913172
0.897983
0.939544
0.909076
0.922678
0.896005
0.954793
0.846792
0.895629
0.900739
0.949351
0.972903
0.948517
0.909172
0.945497
0.940712
0.863083
0.906061
0.902269
0.948034
0.906313
0.949646
0.948571
0.901787
0.948381
0.936846
0.947504
0.893338
0.949917
0.943395
0.945143
0.855692
0.911993
0.953466
0.944675
0.88708
0.890375
0.947819
0.844939
0.916801
0.895229
0.947951
0.904843
0.930329
0.858038
0.943593
0.936217
0.929267
0.897961
0.892792
0.904309
0.858413
0.894153
0.949539
0.896532
0.931549
0.920856
0.906256
0.897339
0.929054
0.837425
0.898699
0.949375
0.831081
0.868156
0.932739
0.967564
0.83569
0.950484
0.856055
0.93991
0.920914
0.887759
0.927479
0.94959
0.966653
0.952121
0.932618
0.950059
0.936805
0.963908
0.866383
0.931486
0.957342
0.938567
0.873583
0.885364
0.931666
0.939922
0.907718
0.873849
0.843213
0.948671
0.952801
0.901495
0.889799
0.896794
0.911945
0.90932
0.900591
0.949561
0.941083
0.872433
0.90271
0.961698
0.809649
0.810276
0.960658
0.938929
0.912524
0.938605
0.809421
0.948353
0.811523
0.923295
0.872113
0.916794
0.817576
0.947692
0.807596
0.906255
0.947477
0.945631
0.905688
0.899826
0.8975
0.897706
0.882647
0.918782
0.923929
0.89731
0.931648
0.944275
0.897109
0.909164
0.897243
0.945239
0.913569
0.932866
0.882413
0.944355
0.915965
0.81361
0.969187
0.904982
0.947762
0.905055
0.920092
0.948462
0.940742
0.945296
0.956132
0.941968
0.893013
0.88515
0.849706
0.926087
0.896705
0.905189
0.941014
0.897284
0.898871
0.941987
0.946037
0.885674
0.843033
0.897259
0.942427
0.870181
0.89793
0.89749
0.92898
0.871362
0.948013
0.89643
0.9084
0.899315
0.930698
0.904031
0.910873
0.865349
0.902722
0.902645
0.961337
0.890245
0.934
0.929864
0.91077
0.9104
0.897937
0.947634
0.931583
0.904897
0.906469
0.93416
0.943609
0.946849
0.93962
0.946819
0.921646
0.936712
0.9489
0.895831
0.956494
0.939589
0.828225
0.942559
0.899631
0.947176
0.946701
0.94735
0.946096
0.947692
0.847868
0.948525
0.945417
0.944593
0.948265
0.878957
0.947996
0.948835
0.912548
0.948714
0.961802
0.948537
0.898319
0.909414
0.959254
0.94873
0.950184
0.841848
0.9375
0.902484
0.95777
0.901407
0.934157
0.894282
0.947003
0.874365
0.851143
0.952269
0.9095
0.879138
0.946633
0.936573
0.954185
0.954685
0.94871
0.912637
0.908331
0.947093
0.947924
0.948867
0.957022
0.955504
0.893772
0.947082
0.939271
0.945735
0.948438
0.945627
0.948757
0.895746
0.947115
0.957326
0.947218
0.946979
0.948178
0.948375
0.903967
0.947005
0.87995
0.883276
0.880268
0.94866
0.938325
0.941634
0.902509
0.942776
0.881832
0.940883
0.880901
0.957521
0.87372
0.945794
0.941015
0.880613
0.891085
0.862363
0.940845
0.897685
0.890601
0.940705
0.9436
0.942025
0.891115
0.959395
0.891917
0.940562
0.954452
0.941189
0.851905
0.886599
0.946364
0.954471
0.855944
0.871495
0.945414
0.893201
0.940402
0.888084
0.888442
0.942079
0.941534
0.942161
0.943385
0.893392
0.910469
0.918488
0.96612
0.949691
0.899924
0.903569
0.946715
0.909259
0.900203
0.907892
0.841042
0.94327
0.908477
0.848562
0.867198
0.898385
0.943647
0.958833
0.8917
0.901815
0.845358
0.905102
0.900033
0.967353
0.945205
0.902581
0.9005
0.950349
0.943508
0.949391
0.953327
0.907839
0.946761
0.910599
0.944555
0.944363
0.896418
0.944128
0.948119
0.895871
0.94857
0.907297
0.959953
0.905992
0.945494
0.940555
0.943886
0.918346
0.944255
0.905046
0.827254
0.905559
0.949955
0.946523
0.907617
0.903706
0.951738
0.942602
0.947633
0.949684
0.943642
0.950438
0.829139
0.895686
0.904752
0.915409
0.900555
0.953922
0.903375
0.913454
0.946972
0.864991
0.941563
0.940741
0.940878
0.909952
0.897564
0.85703
0.896573
0.946518
0.904455
0.842715
0.869572
0.896314
0.896305
0.941873
0.907233
0.943491
0.95811
0.948145
0.820471
0.902852
0.910451
0.90278
0.950977
0.893012
0.893926
0.946612
0.820099
0.90186
0.941932
0.948129
0.92004
0.896834
0.883376
0.84919
0.943144
0.909283
0.942278
0.846684
0.849357
0.862371
0.942728
0.943114
0.947591
0.941682
0.898705
0.8687
0.841726
0.941166
0.969255
0.942513
0.93811
0.914975
0.879019
0.829908
0.901578
0.940686
0.854444
0.905078
0.908982
0.961301
0.948517
0.918581
0.855333
0.949453
0.908523
0.897372
0.937907
0.946305
0.94743
0.898182
0.944898
0.896972
0.958803
0.918966
0.941771
0.90723
0.898869
0.895348
0.91673
0.94093
0.895426
0.941002
0.872666
0.897461
0.870705
0.819357
0.903769
0.950474
0.9499
0.958613
0.947257
0.940891
0.896918
0.889567
0.940784
0.844451
0.935766
0.903785
0.835329
0.942939
0.950835
0.899121
0.872621
0.839969
0.948689
0.954079
0.872144
0.808829
0.870721
0.905602
0.94914
0.898929
0.960583
0.859274
0.895028
0.873186
0.944756
0.900965
0.905189
0.903838
0.859154
0.87879
0.855551
0.958136
0.905121
0.948318
0.869257
0.922443
0.872462
0.869481
0.949348
0.948418
0.901635
0.949653
0.949379
0.960064
0.926024
0.956039
0.948123
0.909895
0.866524
0.872689
0.875807
0.949476
0.950277
0.874058
0.85621
0.842556
0.949851
0.86977
0.858086
0.83932
0.950183
0.863121
0.840428
0.882592
0.951374
0.863807
0.859907
0.904603
0.819839
0.946728
0.909187
0.950709
0.955933
0.877037
0.94899
0.852599
0.951374
0.953895
0.850221
0.949682
0.826571
0.886711
0.907358
0.84171
0.869153
0.880807
0.880997
0.879805
0.948739
0.946066
0.891682
0.952159
0.871653
0.826631
0.840191
0.90692
0.952759
0.851282
0.948946
0.946562
0.883791
0.880104
0.819672
0.953875
0.921327
0.837987
0.91409
0.834477
0.955085
0.947674
0.883606
0.868311
0.9008
0.955
0.907178
0.906925
0.945756
0.919197
0.948776
0.892712
0.894591
0.888812
0.861844
0.893717
0.887024
0.899743
0.956554
0.907751
0.945276
0.958222
0.948925
0.932797
0.887556
0.945678
0.947664
0.908529
0.912115
0.891137
0.960419
0.944066
0.827786
0.942755
0.961496
0.808176
0.963451
0.944282
0.948035
0.949364
0.875315
0.873498
0.941313
0.94718
0.878435
0.943721
0.89881
0.964996
0.911774
0.892319
0.856749
0.951083
0.896272
0.91137
0.888426
0.883342
0.894785
0.947592
0.951008
0.944751
0.950093
0.908814
0.896732
0.926987
0.902062
0.94229
0.948274
0.880668
0.94341
0.895089
0.956539
0.820933
0.881592
0.945906
0.944309
0.863362
0.942208
0.846362
0.844847
0.887631
0.948064
0.939346
0.937872
0.950072
0.917373
0.910134
0.848119
0.948029
0.852228
0.902643
0.880442
0.833043
0.828585
0.833151
0.944957
0.900548
0.875121
0.953358
0.908116
0.916364
0.894102
0.906044
0.923811
0.845832
0.903786
0.868381
0.883224
0.874665
0.948468
0.909265
0.944825
0.940984
0.889914
0.893124
0.965328
0.947407
0.883186
0.909327
0.905805
0.890406
0.886283
0.910669
0.945678
0.944689
0.900538
0.897993
0.864465
0.906592
0.950314
0.856021
0.946792
0.90821
0.956531
0.890923
0.875547
0.876365
0.910415
0.890991
0.894947
0.850809
0.95445
0.944791
0.90422
0.904724
0.896321
0.945127
0.940135
0.952863
0.94485
0.866868
0.949343
0.909597
0.899583
0.886406
0.935913
0.90838
0.944137
0.90675
0.946256
0.914482
0.912342
0.912818
0.967431
0.906441
0.943772
0.907138
0.907245
0.887939
0.916
0.888363
0.854247
0.943896
0.942219
0.906666
0.9047
0.945189
0.889505
0.912428
0.949767
0.911943
0.948165
0.908347
0.941421
0.958783
0.948863
0.899752
0.943221
0.901652
0.901766
0.950358
0.949726
0.961186
0.939746
0.900032
0.893607
0.941673
0.847216
0.942956
0.89776
0.955658
0.941987
0.895451
0.96458
0.913625
0.893138
0.943203
0.94343
0.894107
0.945392
0.910983
0.896158
0.956988
0.90998
0.892463
0.94748
0.943328
0.891494
0.906744
0.947065
0.857269
0.9542
0.948721
0.894355
0.951408
0.946828
0.946571
0.948466
0.890697
0.948944
0.938483
0.918012
0.948839
0.896314
0.941868
0.940941
0.947612
0.94822
0.940777
0.945967
0.954366
0.948696
0.850472
0.904833
0.950912
0.898297
0.895906
0.848906
0.843513
0.941518
0.948806
0.907461
0.940637
0.94794
0.851862
0.945294
0.94051
0.941617
0.871101
0.945942
0.943455
0.906636
0.940363
0.953212
0.907441
0.944457
0.902659
0.898691
0.945508
0.948524
0.948515
0.947267
0.949827
0.951234
0.947149
0.94875
0.920186
0.941507
0.845825
0.946918
0.900475
0.911073
0.94959
0.946078
0.951545
0.95033
0.938299
0.903369
0.901216
0.947963
0.942223
0.946909
0.900322
0.952366
0.94184
0.946995
0.8267
0.94039
0.942122
0.895657
0.911607
0.902199
0.949319
0.86098
0.950034
0.94714
0.914259
0.921278
0.944435
0.911557
0.948802
0.944152
0.942369
0.951123
0.944245
0.884605
0.94052
0.950771
0.916589
0.942344
0.923699
0.911611
0.947397
0.829681
0.823342
0.946637
0.957789
0.941081
0.943269
0.956381
0.950245
0.95358
0.903151
0.951663
0.94493
0.945005
0.948087
0.918851
0.94826
0.922096
0.833898
0.908814
0.854299
0.831863
0.878529
0.929066
0.943374
0.945851
0.932023
0.945979
0.906154
0.943549
0.945641
0.830821
0.94864
0.94073
0.903797
0.890322
0.948088
0.947424
0.89654
0.948846
0.945567
0.940442
0.91406
0.897975
0.899525
0.903453
0.897218
0.917506
0.924117
0.913778
0.941942
0.929236
0.947626
0.947561
0.927812
0.885161
0.94853
0.907891
0.947869
0.947116
0.947083
0.940857
0.94198
0.857109
0.926557
0.910419
0.949368
0.947825
0.809704
0.89665
0.875557
0.947217
0.944133
0.919075
0.948403
0.892633
0.946983
0.948749
0.948668
0.907766
0.897209
0.88413
0.899879
0.914092
0.902087
0.890511
0.839774
0.946699
0.948275
0.948322
0.94122
0.948664
0.946902
0.946806
0.863241
0.946853
0.956196
0.94572
0.907473
0.942767
0.906284
0.896319
0.941555
0.947916
0.857837
0.949497
0.898657
0.827653
0.818619
0.949132
0.89263
0.948185
0.842351
0.946726
0.921132
0.906969
0.949464
0.94838
0.903278
0.945009
0.909732
0.831261
0.944213
0.970921
0.905707
0.947504
0.912715
0.937566
0.923258
0.897303
0.894819
0.917428
0.853979
0.893214
0.917399
0.906788
0.90843