# vtk DataFile Version 1.0
unstructured grid
ascii
DATASET UNSTRUCTURED_GRID
points 7812 float
-1 0 0
-1 1 0
2 0 0
2 1 0
0 0 0
1 0 0
-1 1 0.1
-1 0 0.1
0 0 0.1
1 0 0.1
2 0 0.1
2 1 0.1
-0.99 0 0
-0.98 0 0
-0.97 0 0
-0.96 0 0
-0.95 0 0
-0.94 0 0
-0.93 0 0
-0.92 0 0
-0.91 0 0
-0.9 0 0
-0.89 0 0
-0.88 0 0
-0.87 0 0
-0.86 0 0
-0.85 0 0
-0.84 0 0
-0.83 0 0
-0.82 0 0
-0.81 0 0
-0.8 0 0
-0.79 0 0
-0.78 0 0
-0.77 0 0
-0.76 0 0
-0.75 0 0
-0.74 0 0
-0.73 0 0
-0.72 0 0
-0.71 0 0
-0.7 0 0
-0.69 0 0
-0.68 0 0
-0.67 0 0
-0.66 0 0
-0.65 0 0
-0.64 0 0
-0.63 0 0
-0.62 0 0
-0.61 0 0
-0.6 0 0
-0.59 0 0
-0.58 0 0
-0.57 0 0
-0.56 0 0
-0.55 0 0
-0.54 0 0
-0.53 0 0
-0.52 0 0
-0.51 0 0
-0.5 0 0
-0.49 0 0
-0.48 0 0
-0.47 0 0
-0.46 0 0
-0.45 0 0
-0.44 0 0
-0.43 0 0
-0.42 0 0
-0.41 0 0
-0.4 0 0
-0.39 0 0
-0.38 0 0
-0.37 0 0
-0.36 0 0
-0.35 0 0
-0.34 0 0
-0.33 0 0
-0.32 0 0
-0.31 0 0
-0.3 0 0
-0.29 0 0
-0.28 0 0
-0.27 0 0
-0.26 0 0
-0.25 0 0
-0.24 0 0
-0.23 0 0
-0.22 0 0
-0.21 0 0
-0.2 0 0
-0.19 0 0
-0.18 0 0
-0.17 0 0
-0.16 0 0
-0.15 0 0
-0.14 0 0
-0.13 0 0
-0.12 0 0
-0.11 0 0
-0.1 0 0
-0.09 0 0
-0.08 0 0
-0.07 0 0
-0.06 0 0
-0.05 0 0
-0.04 0 0
-0.03 0 0
-0.02 0 0
-0.01 0 0
1.01 0 0
1.02 0 0
1.03 0 0
1.04 0 0
1.05 0 0
1.06 0 0
1.07 0 0
1.08 0 0
1.09 0 0
1.1 0 0
1.11 0 0
1.12 0 0
1.13 0 0
1.14 0 0
1.15 0 0
1.16 0 0
1.17 0 0
1.18 0 0
1.19 0 0
1.2 0 0
1.21 0 0
1.22 0 0
1.23 0 0
1.24 0 0
1.25 0 0
1.26 0 0
1.27 0 0
1.28 0 0
1.29 0 0
1.3 0 0
1.31 0 0
1.32 0 0
1.33 0 0
1.34 0 0
1.35 0 0
1.36 0 0
1.37 0 0
1.38 0 0
1.39 0 0
1.4 0 0
1.41 0 0
1.42 0 0
1.43 0 0
1.44 0 0
1.45 0 0
1.46 0 0
1.47 0 0
1.48 0 0
1.49 0 0
1.5 0 0
1.51 0 0
1.52 0 0
1.53 0 0
1.54 0 0
1.55 0 0
1.56 0 0
1.57 0 0
1.58 0 0
1.59 0 0
1.6 0 0
1.61 0 0
1.62 0 0
1.63 0 0
1.64 0 0
1.65 0 0
1.66 0 0
1.67 0 0
1.68 0 0
1.69 0 0
1.7 0 0
1.71 0 0
1.72 0 0
1.73 0 0
1.74 0 0
1.75 0 0
1.76 0 0
1.77 0 0
1.78 0 0
1.79 0 0
1.8 0 0
1.81 0 0
1.82 0 0
1.83 0 0
1.84 0 0
1.85 0 0
1.86 0 0
1.87 0 0
1.88 0 0
1.89 0 0
1.9 0 0
1.91 0 0
1.92 0 0
1.93 0 0
1.94 0 0
1.95 0 0
1.96 0 0
1.97 0 0
1.98 0 0
1.99 0 0
2 0.010289 0
2 0.0215307 0
2 0.0338135 0
2 0.0472336 0
2 0.0618965 0
2 0.0779171 0
2 0.0954213 0
2 0.114546 0
2 0.135442 0
2 0.158274 0
2 0.183219 0
2 0.210474 0
2 0.240253 0
2 0.27279 0
2 0.308339 0
2 0.347181 0
2 0.389619 0
2 0.435987 0
2 0.486649 0
2 0.542002 0
2 0.602481 0
2 0.66856 0
2 0.740758 0
2 0.819642 0
2 0.90583 0
1.9 1 0
1.8 1 0
1.7 1 0
1.6 1 0
1.5 1 0
1.4 1 0
1.3 1 0
1.2 1 0
1.1 1 0
1 1 0
0.9 1 0
0.8 1 0
0.7 1 0
0.6 1 0
0.5 1 0
0.4 1 0
0.3 1 0
0.2 1 0
0.1 1 0
3.69793e-12 1 0
-0.1 1 0
-0.2 1 0
-0.3 1 0
-0.4 1 0
-0.5 1 0
-0.6 1 0
-0.7 1 0
-0.8 1 0
-0.9 1 0
-1 0.90583 0
-1 0.819642 0
-1 0.740758 0
-1 0.66856 0
-1 0.602481 0
-1 0.542002 0
-1 0.486649 0
-1 0.435987 0
-1 0.389619 0
-1 0.347181 0
-1 0.308339 0
-1 0.27279 0
-1 0.240253 0
-1 0.210474 0
-1 0.183219 0
-1 0.158274 0
-1 0.135442 0
-1 0.114546 0
-1 0.0954213 0
-1 0.0779171 0
-1 0.0618965 0
-1 0.0472336 0
-1 0.0338135 0
-1 0.0215307 0
-1 0.010289 0
0.00921362 0.00379763 0
0.0184561 0.00752451 0
0.0277268 0.0111804 0
0.0370253 0.0147652 0
0.0463511 0.0182786 0
0.0557034 0.0217203 0
0.0650819 0.0250903 0
0.074486 0.0283883 0
0.083915 0.0316141 0
0.0933685 0.0347675 0
0.102846 0.0378484 0
0.112347 0.0408565 0
0.12187 0.0437917 0
0.131416 0.0466538 0
0.140983 0.0494427 0
0.150572 0.0521581 0
0.160181 0.0547999 0
0.16981 0.0573681 0
0.179458 0.0598623 0
0.189125 0.0622825 0
0.198811 0.0646285 0
0.208514 0.0669001 0
0.218234 0.0690974 0
0.227971 0.07122 0
0.237724 0.073268 0
0.247493 0.0752411 0
0.257276 0.0771393 0
0.267073 0.0789625 0
0.276884 0.0807105 0
0.286708 0.0823832 0
0.296545 0.0839806 0
0.306394 0.0855025 0
0.316254 0.0869488 0
0.326125 0.0883196 0
0.336006 0.0896146 0
0.345896 0.0908339 0
0.355796 0.0919773 0
0.365704 0.0930447 0
0.375621 0.0940362 0
0.385544 0.0949517 0
0.395474 0.095791 0
0.40541 0.0965542 0
0.415352 0.0972412 0
0.425299 0.097852 0
0.43525 0.0983865 0
0.445205 0.0988447 0
0.455164 0.0992266 0
0.465125 0.0995321 0
0.475088 0.0997613 0
0.485052 0.0999141 0
0.495017 0.0999904 0
0.504983 0.0999904 0
0.514948 0.0999141 0
0.524912 0.0997613 0
0.534875 0.0995321 0
0.544836 0.0992266 0
0.554795 0.0988447 0
0.56475 0.0983865 0
0.574701 0.097852 0
0.584648 0.0972412 0
0.59459 0.0965542 0
0.604526 0.095791 0
0.614456 0.0949517 0
0.624379 0.0940362 0
0.634296 0.0930447 0
0.644204 0.0919773 0
0.654104 0.0908339 0
0.663994 0.0896146 0
0.673875 0.0883196 0
0.683746 0.0869488 0
0.693606 0.0855025 0
0.703455 0.0839806 0
0.713292 0.0823832 0
0.723116 0.0807105 0
0.732927 0.0789625 0
0.742724 0.0771393 0
0.752508 0.0752411 0
0.762276 0.073268 0
0.772029 0.07122 0
0.781766 0.0690974 0
0.791486 0.0669001 0
0.801189 0.0646285 0
0.810875 0.0622825 0
0.820542 0.0598623 0
0.83019 0.0573681 0
0.839819 0.0547999 0
0.849428 0.0521581 0
0.859017 0.0494427 0
0.868584 0.0466538 0
0.87813 0.0437917 0
0.887653 0.0408565 0
0.897154 0.0378484 0
0.906631 0.0347675 0
0.916085 0.0316141 0
0.925514 0.0283883 0
0.934918 0.0250903 0
0.944297 0.0217203 0
0.953649 0.0182786 0
0.962975 0.0147652 0
0.972273 0.0111804 0
0.981544 0.00752451 0
0.990786 0.00379763 0
-1 0.90583 0.1
-1 0.819642 0.1
-1 0.740758 0.1
-1 0.66856 0.1
-1 0.602481 0.1
-1 0.542002 0.1
-1 0.486649 0.1
-1 0.435987 0.1
-1 0.389619 0.1
-1 0.347181 0.1
-1 0.308339 0.1
-1 0.27279 0.1
-1 0.240253 0.1
-1 0.210474 0.1
-1 0.183219 0.1
-1 0.158274 0.1
-1 0.135442 0.1
-1 0.114546 0.1
-1 0.0954213 0.1
-1 0.0779171 0.1
-1 0.0618965 0.1
-1 0.0472336 0.1
-1 0.0338135 0.1
-1 0.0215307 0.1
-1 0.010289 0.1
-0.99 0 0.1
-0.98 0 0.1
-0.97 0 0.1
-0.96 0 0.1
-0.95 0 0.1
-0.94 0 0.1
-0.93 0 0.1
-0.92 0 0.1
-0.91 0 0.1
-0.9 0 0.1
-0.89 0 0.1
-0.88 0 0.1
-0.87 0 0.1
-0.86 0 0.1
-0.85 0 0.1
-0.84 0 0.1
-0.83 0 0.1
-0.82 0 0.1
-0.81 0 0.1
-0.8 0 0.1
-0.79 0 0.1
-0.78 0 0.1
-0.77 0 0.1
-0.76 0 0.1
-0.75 0 0.1
-0.74 0 0.1
-0.73 0 0.1
-0.72 0 0.1
-0.71 0 0.1
-0.7 0 0.1
-0.69 0 0.1
-0.68 0 0.1
-0.67 0 0.1
-0.66 0 0.1
-0.65 0 0.1
-0.64 0 0.1
-0.63 0 0.1
-0.62 0 0.1
-0.61 0 0.1
-0.6 0 0.1
-0.59 0 0.1
-0.58 0 0.1
-0.57 0 0.1
-0.56 0 0.1
-0.55 0 0.1
-0.54 0 0.1
-0.53 0 0.1
-0.52 0 0.1
-0.51 0 0.1
-0.5 0 0.1
-0.49 0 0.1
-0.48 0 0.1
-0.47 0 0.1
-0.46 0 0.1
-0.45 0 0.1
-0.44 0 0.1
-0.43 0 0.1
-0.42 0 0.1
-0.41 0 0.1
-0.4 0 0.1
-0.39 0 0.1
-0.38 0 0.1
-0.37 0 0.1
-0.36 0 0.1
-0.35 0 0.1
-0.34 0 0.1
-0.33 0 0.1
-0.32 0 0.1
-0.31 0 0.1
-0.3 0 0.1
-0.29 0 0.1
-0.28 0 0.1
-0.27 0 0.1
-0.26 0 0.1
-0.25 0 0.1
-0.24 0 0.1
-0.23 0 0.1
-0.22 0 0.1
-0.21 0 0.1
-0.2 0 0.1
-0.19 0 0.1
-0.18 0 0.1
-0.17 0 0.1
-0.16 0 0.1
-0.15 0 0.1
-0.14 0 0.1
-0.13 0 0.1
-0.12 0 0.1
-0.11 0 0.1
-0.1 0 0.1
-0.09 0 0.1
-0.08 0 0.1
-0.07 0 0.1
-0.06 0 0.1
-0.05 0 0.1
-0.04 0 0.1
-0.03 0 0.1
-0.02 0 0.1
-0.01 0 0.1
0.00921362 0.00379763 0.1
0.0184561 0.00752451 0.1
0.0277268 0.0111804 0.1
0.0370253 0.0147652 0.1
0.0463511 0.0182786 0.1
0.0557034 0.0217203 0.1
0.0650819 0.0250903 0.1
0.074486 0.0283883 0.1
0.083915 0.0316141 0.1
0.0933685 0.0347675 0.1
0.102846 0.0378484 0.1
0.112347 0.0408565 0.1
0.12187 0.0437917 0.1
0.131416 0.0466538 0.1
0.140983 0.0494427 0.1
0.150572 0.0521581 0.1
0.160181 0.0547999 0.1
0.16981 0.0573681 0.1
0.179458 0.0598623 0.1
0.189125 0.0622825 0.1
0.198811 0.0646285 0.1
0.208514 0.0669001 0.1
0.218234 0.0690974 0.1
0.227971 0.07122 0.1
0.237724 0.073268 0.1
0.247493 0.0752411 0.1
0.257276 0.0771393 0.1
0.267073 0.0789625 0.1
0.276884 0.0807105 0.1
0.286708 0.0823832 0.1
0.296545 0.0839806 0.1
0.306394 0.0855025 0.1
0.316254 0.0869488 0.1
0.326125 0.0883196 0.1
0.336006 0.0896146 0.1
0.345896 0.0908339 0.1
0.355796 0.0919773 0.1
0.365704 0.0930447 0.1
0.375621 0.0940362 0.1
0.385544 0.0949517 0.1
0.395474 0.095791 0.1
0.40541 0.0965542 0.1
0.415352 0.0972412 0.1
0.425299 0.097852 0.1
0.43525 0.0983865 0.1
0.445205 0.0988447 0.1
0.455164 0.0992266 0.1
0.465125 0.0995321 0.1
0.475088 0.0997613 0.1
0.485052 0.0999141 0.1
0.495017 0.0999904 0.1
0.504983 0.0999904 0.1
0.514948 0.0999141 0.1
0.524912 0.0997613 0.1
0.534875 0.0995321 0.1
0.544836 0.0992266 0.1
0.554795 0.0988447 0.1
0.56475 0.0983865 0.1
0.574701 0.097852 0.1
0.584648 0.0972412 0.1
0.59459 0.0965542 0.1
0.604526 0.095791 0.1
0.614456 0.0949517 0.1
0.624379 0.0940362 0.1
0.634296 0.0930447 0.1
0.644204 0.0919773 0.1
0.654104 0.0908339 0.1
0.663994 0.0896146 0.1
0.673875 0.0883196 0.1
0.683746 0.0869488 0.1
0.693606 0.0855025 0.1
0.703455 0.0839806 0.1
0.713292 0.0823832 0.1
0.723116 0.0807105 0.1
0.732927 0.0789625 0.1
0.742724 0.0771393 0.1
0.752508 0.0752411 0.1
0.762276 0.073268 0.1
0.772029 0.07122 0.1
0.781766 0.0690974 0.1
0.791486 0.0669001 0.1
0.801189 0.0646285 0.1
0.810875 0.0622825 0.1
0.820542 0.0598623 0.1
0.83019 0.0573681 0.1
0.839819 0.0547999 0.1
0.849428 0.0521581 0.1
0.859017 0.0494427 0.1
0.868584 0.0466538 0.1
0.87813 0.0437917 0.1
0.887653 0.0408565 0.1
0.897154 0.0378484 0.1
0.906631 0.0347675 0.1
0.916085 0.0316141 0.1
0.925514 0.0283883 0.1
0.934918 0.0250903 0.1
0.944297 0.0217203 0.1
0.953649 0.0182786 0.1
0.962975 0.0147652 0.1
0.972273 0.0111804 0.1
0.981544 0.00752451 0.1
0.990786 0.00379763 0.1
1.01 0 0.1
1.02 0 0.1
1.03 0 0.1
1.04 0 0.1
1.05 0 0.1
1.06 0 0.1
1.07 0 0.1
1.08 0 0.1
1.09 0 0.1
1.1 0 0.1
1.11 0 0.1
1.12 0 0.1
1.13 0 0.1
1.14 0 0.1
1.15 0 0.1
1.16 0 0.1
1.17 0 0.1
1.18 0 0.1
1.19 0 0.1
1.2 0 0.1
1.21 0 0.1
1.22 0 0.1
1.23 0 0.1
1.24 0 0.1
1.25 0 0.1
1.26 0 0.1
1.27 0 0.1
1.28 0 0.1
1.29 0 0.1
1.3 0 0.1
1.31 0 0.1
1.32 0 0.1
1.33 0 0.1
1.34 0 0.1
1.35 0 0.1
1.36 0 0.1
1.37 0 0.1
1.38 0 0.1
1.39 0 0.1
1.4 0 0.1
1.41 0 0.1
1.42 0 0.1
1.43 0 0.1
1.44 0 0.1
1.45 0 0.1
1.46 0 0.1
1.47 0 0.1
1.48 0 0.1
1.49 0 0.1
1.5 0 0.1
1.51 0 0.1
1.52 0 0.1
1.53 0 0.1
1.54 0 0.1
1.55 0 0.1
1.56 0 0.1
1.57 0 0.1
1.58 0 0.1
1.59 0 0.1
1.6 0 0.1
1.61 0 0.1
1.62 0 0.1
1.63 0 0.1
1.64 0 0.1
1.65 0 0.1
1.66 0 0.1
1.67 0 0.1
1.68 0 0.1
1.69 0 0.1
1.7 0 0.1
1.71 0 0.1
1.72 0 0.1
1.73 0 0.1
1.74 0 0.1
1.75 0 0.1
1.76 0 0.1
1.77 0 0.1
1.78 0 0.1
1.79 0 0.1
1.8 0 0.1
1.81 0 0.1
1.82 0 0.1
1.83 0 0.1
1.84 0 0.1
1.85 0 0.1
1.86 0 0.1
1.87 0 0.1
1.88 0 0.1
[...]
CELL_DATA 7425
SCALARS rho float
LOOKUP_TABLE default
0.710361
0.807684
0.861317
0.864581
0.803198
0.860128
0.855935
0.86056
0.861526
0.792711
0.886258
0.814247
0.860698
0.864443
0.808421
0.860614
0.801887
0.861213
0.805155
0.790489
0.867124
0.82616
0.782682
0.865312
0.805879
0.78347
0.86657
0.852871
0.803638
0.812406
0.855035
0.754443
0.805378
0.750257
0.700208
0.865292
0.805172
0.860597
0.815353
0.863487
0.789807
0.769413
0.83055
0.721532
0.721352
0.779778
0.841594
0.86072
0.749904
0.744621
0.766704
0.807931
0.818693
0.802332
0.735334
0.707875
0.862723
0.802556
0.792777
0.771066
0.785077
0.811411
0.861243
0.80249
0.802386
0.860625
0.708529
0.818672
0.708952
0.812356
0.808377
0.803955
0.901424
0.825331
0.818583
0.861546
0.807767
0.803398
0.861195
0.775986
0.860448
0.810979
0.858082
0.801311
0.865532
0.804838
0.697844
0.864367
0.704299
0.877341
0.725399
0.78617
0.850122
0.804611
0.860554
0.814917
0.839639
0.800135
0.864058
0.807215
0.852657
0.760552
0.804896
0.863817
0.711355
0.815309
0.861977
0.781749
0.860441
0.802686
0.860118
0.797934
0.802084
0.816824
0.830457
0.799355
0.866534
0.803837
0.724712
0.736432
0.807856
0.821324
0.861574
0.802592
0.885096
0.843167
0.811238
0.841909
0.748123
0.691661
0.860126
0.751654
0.697552
0.870253
0.748134
0.803337
0.817618
0.787808
0.701493
0.776522
0.794047
0.814651
0.858002
0.732565
0.807021
0.793758
0.692626
0.835631
0.795988
0.865185
0.852475
0.726484
0.807421
0.765109
0.731732
0.805229
0.814629
0.866635
0.837299
0.759352
0.804722
0.722486
0.804915
0.866269
0.861538
0.803584
0.861441
0.826873
0.811182
0.804582
0.861377
0.809705
0.837752
0.802616
0.802454
0.785994
0.808464
0.815242
0.728701
0.719704
0.803155
0.835676
0.898713
0.865578
0.723026
0.86273
0.801966
0.832216
0.803267
0.860881
0.861677
0.804688
0.81196
0.731381
0.860391
0.860311
0.792183
0.839043
0.863365
0.811391
0.81659
0.859884
0.719085
0.843224
0.695851
0.703823
0.70977
0.737897
0.832534
0.898556
0.811064
0.802223
0.869104
0.861716
0.860023
0.861683
0.860357
0.725625
0.725398
0.860805
0.706267
0.726517
0.729062
0.856593
0.860191
0.861549
0.867664
0.862033
0.866637
0.735544
0.838711
0.787007
0.810634
0.805901
0.803611
0.782443
0.773453
0.716119
0.729072
0.88838
0.877147
0.852504
0.811287
0.84184
0.816517
0.775507
0.862149
0.804385
0.863616
0.803383
0.858431
0.746357
0.861869
0.8631
0.788327
0.690621
0.802618
0.758558
0.846026
0.860107
0.755765
0.860236
0.860457
0.875593
0.857049
0.809603
0.804589
0.864073
0.886412
0.810836
0.715106
0.877502
0.818262
0.808555
0.864709
0.867127
0.860841
0.860901
0.804379
0.860435
0.868838
0.875808
0.83179
0.870392
0.804818
0.860622
0.803904
0.777655
0.782556
0.700775
0.724272
0.845091
0.861498
0.860448
0.857853
0.797071
0.734012
0.864828
0.701911
0.818802
0.804714
0.735033
0.706762
0.726934
0.860435
0.861223
0.861711
0.859707
0.864614
0.789515
0.815925
0.80513
0.862046
0.872803
0.869823
0.867831
0.805362
0.723266
0.83646
0.864232
0.765879
0.802028
0.803519
0.888152
0.860623
0.703221
0.860863
0.788722
0.855648
0.796737
0.857907
0.920648
0.803839
0.807055
0.746743
0.72919
0.737176
0.829678
0.864207
0.860392
0.860826
0.883514
0.860328
0.803316
0.837259
0.830084
0.801598
0.81068
0.899693
0.802471
0.810404
0.80465
0.803746
0.860752
0.860417
0.860384
0.744323
0.834179
0.756223
0.817397
0.745915
0.844737
0.803595
0.843385
0.797344
0.822301
0.853088
0.860471
0.802442
0.803642
0.818938
0.776623
0.828738
0.861432
0.860724
0.802346
0.768396
0.691275
0.810028
0.859578
0.804448
0.861929
0.806416
0.707656
0.848648
0.860902
0.805776
0.827761
0.8612
0.808901
0.806963
0.860467
0.811135
0.862367
0.792917
0.848018
0.811407
0.696034
0.808113
0.727902
0.867006
0.730065
0.859798
0.898647
0.734311
0.822784
0.804024
0.807692
0.89373
0.705926
0.86245
0.862407
0.805375
0.864091
0.815851
0.862945
0.866742
0.863123
0.786486
0.865013
0.779064
0.815198
0.802569
0.83447
0.8099
0.808675
0.802672
0.857279
0.81136
0.8086
0.71557
0.720947
0.776554
0.860768
0.874357
0.889306
0.864578
0.801996
0.861679
0.809029
0.857574
0.757195
0.804326
0.778286
0.85611
0.859214
0.811344
0.7374
0.790845
0.696651
0.709068
0.805019
0.712428
0.836687
0.782086
0.793338
0.754867
0.812854
0.818051
0.857388
0.860452
0.861297
0.860102
0.787387
0.739714
0.871059
0.851373
0.798844
0.81586
0.805277
0.87028
0.785426
0.882555
0.780738
0.788692
0.816938
0.856819
0.70239
0.80212
0.873433
0.818388
0.860776
0.857217
0.80295
0.829593
0.865826
0.80434
0.874326
0.760855
0.73323
0.802661
0.835873
0.862057
0.78285
0.877559
0.80491
0.860105
0.801888
0.796783
0.814094
0.704441
0.754643
0.725319
0.859678
0.840616
0.863855
0.800491
0.814864
0.860472
0.861469
0.802461
0.797831
0.842668
0.820275
0.804363
0.778065
0.860849
0.859919
0.843104
0.859436
0.863899
0.885175
0.881972
0.804886
0.709767
0.866662
0.810301
0.870821
0.860544
0.827515
0.860939
0.860761
0.73833
0.811195
0.850958
0.861924
0.8322
0.846311
0.809836
0.863375
0.802068
0.86186
0.860417
0.894231
0.707112
0.860855
0.846358
0.901457
0.692034
0.860404
0.834165
0.803192
0.82106
0.835499
0.890929
0.849454
0.867175
0.81878
0.721302
0.803988
0.806415
0.777841
0.878263
0.779212
0.810051
0.860427
0.860965
0.862327
0.802381
0.865173
0.869102
0.832372
0.829596
0.846034
0.803479
0.816234
0.81254
0.808181
0.857204
0.803781
0.874804
0.785372
0.817541
0.805225
0.851232
0.790601
0.86184
0.860925
0.803209
0.860841
0.8547
0.83251
0.863464
0.80444
0.803265
0.876204
0.784354
0.830634
0.874323
0.80762
0.69366
0.861419
0.865453
0.877551
0.857558
0.803839
0.817193
0.880156
0.793877
0.804966
0.804699
0.861837
0.788251
0.806366
0.83399
0.814254
0.803188
0.84001
0.874411
0.810085
0.872123
0.802631
0.863352
0.859954
0.806413
0.869631
0.861378
0.7699
0.861063
0.810798
0.860017
0.919364
0.803213
0.855979
0.802671
0.803022
0.860415
0.803144
0.805289
0.797179
0.767501
0.852696
0.861873
0.80917
0.837362
0.86236
0.817362
0.862404
0.810498
0.864115
0.89542
0.866743
0.728631
0.771813
0.87283
0.860628
0.873921
0.859873
0.877392
0.812956
0.848181
0.802555
0.870521
0.886382
0.880734
0.796369
0.860631
0.861344
0.765559
0.822878
0.790662
0.802554
0.796209
0.860388
0.866902
0.827729
0.864715
0.86019
0.861146
0.856688
0.859972
0.867189
0.81636
0.801819
0.814514
0.800582
0.860109
0.789305
0.865988
0.818567
0.726627
0.795754
0.81664
0.802315
0.86145
0.807214
0.860008
0.860638
0.808639
0.860852
0.806672
0.811594
0.73158
0.876979
0.8635
0.864612
0.820603
0.805073
0.768939
0.812818
0.920895
0.859718
0.805776
0.860152
0.79829
0.813178
0.859602
0.862003
0.818874
0.861199
0.860474
0.712937
0.825018
0.816983
0.860921
0.80949
0.805719
0.722895
0.811391
0.807135
0.781865
0.841461
0.860538
0.805613
0.812788
0.802116
0.860109
0.850772
0.861169
0.861946
0.772326
0.865006
0.807053
0.81331
0.845887
0.823098
0.860172
0.803419
0.77266
0.861514
0.833137
0.861817
0.801859
0.811621
0.861889
0.769357
0.857606
0.75826
0.894317
0.773952
0.875541
0.846415
0.895198
0.805407
0.803902
0.861776
0.840606
0.841409
0.862131
0.86144
0.85902
0.844186
0.810139
0.812436
0.789487
0.832687
0.802945
0.744884
0.864055
0.717396
0.80422
0.862952
0.808603
0.770327
0.807826
0.860629
0.730088
0.798877
0.860932
0.863797
0.853587
0.729472
0.787496
0.818332
0.806251
0.861874
0.80419
0.793236
0.860146
0.860424
0.86142
0.819526
0.804564
0.807056
0.809306
0.692438
0.861787
0.837492
0.72093
0.860414
0.860459
0.860408
0.860933
0.860314
0.863287
0.802895
0.800859
0.78794
0.827238
0.833442
0.829265
0.841019
0.79269
0.856667
0.794133
0.787807
0.814382
0.86193
0.86097
0.803021
0.86102
0.861836
0.845686
0.857531
0.859986
0.86036
0.870271
0.86048
0.861429
0.816091
0.860688
0.804734
0.86158
0.80595
0.862701
0.860976
0.718768
0.86094
0.86898
0.86054
0.841693
0.696791
0.860467
0.84288
0.689822
0.765184
0.756149
0.866702
0.845262
0.815895
0.860907
0.803737
0.860507
0.815666
0.697739
0.775723
0.822679
0.809941
0.860182
0.805175
0.814245
0.859429
0.860471
0.802207
0.77802
0.859474
0.803737
0.81888
0.860417
0.806394
0.695452
0.868027
0.818422
0.763822
0.803007
0.81257
0.731668
0.833125
0.859699
0.865157
0.861068
0.831388
0.807312
0.786079
0.732516
0.69472
0.863893
0.814594
0.79626
0.861522
0.827021
0.860807
0.893792
0.809687
0.862151
0.859623
0.863768
0.902797
0.860259
0.859602
0.808081
0.818157
0.774775
0.865402
0.802629
0.816418
0.803893
0.799385
0.881798
0.861989
0.86852
0.862089
0.777163
0.783926
0.808622
0.85987
0.803954
0.808249
0.808153
0.824359
0.860096
0.791977
0.826627
0.742331
0.860288
0.807731
0.759052
0.85532
0.857139
0.79392
0.810855
0.808504
0.881763
0.802455
0.861963
0.813166
0.804477
0.860503
0.806194
0.706198
0.825696
0.837689
0.846904
0.86045
0.86272
0.789719
0.810951
0.845673
0.832098
0.818737
0.869814
0.711235
0.767794
0.861875
0.797124
0.862417
0.816491
0.861926
0.804017
0.847603
0.803175
0.800735
0.815429
0.856453
0.803874
0.723914
0.793319
0.802122
0.852565
0.860489
0.865664
0.699956
0.829324
0.798309
0.884913
0.80324
0.822699
0.804651
0.829022
0.801963
0.862362
0.86483
0.826433
0.859991
0.733218
0.821883
0.857115
0.808319
0.858892
0.806356
0.730755
0.833652
0.807118
0.816414
0.83331
0.876585
0.867468
0.860972
0.803034
0.808737
0.805403
0.796771
0.717738
0.845221
0.797794
0.749359
0.861369
0.801876
0.792601
0.803404
0.804253
0.800072
0.860699
0.829192
0.843767
0.859899
0.855503
0.853439
0.861047
0.84614
0.773834
0.768519
0.729607
0.865993
0.892231
0.849441
0.844278
0.876622
0.886436
0.78876
0.856541
0.886761
0.851324
0.862072
0.853773
0.795995
0.857402
0.812562
0.811832
0.692229
0.861665
0.788833
0.861033
0.819539
0.805138
0.731455
0.860985
0.71577
0.829427
0.806169
0.854543
0.882431
0.805108
0.802421
0.861841
0.85852
0.809611
0.789152
0.696934
0.86147
0.806975
0.834197
0.863888
0.847843
0.810437
0.866108
0.788576
0.699834
0.904292
0.842601
0.860433
0.807147
0.736329
0.801871
0.803609
0.860431
0.801886
0.732294
0.901416
0.781246
0.870196
0.859532
0.868006
0.873794
0.838394
0.807252
0.860394
0.878028
0.792883
0.891574
0.860617
0.698091
0.807489
0.771636
0.880853
0.813765
0.806853
0.806118
0.802693
0.803457
0.856543
0.861987
0.857995
0.811409
0.803735
0.802325
0.80323
0.861434
0.860571
0.803623
0.861676
0.878428
0.803808
0.82714
0.803437
0.843567
0.794424
0.860826
0.860301
0.734848
0.780717
0.811507
0.861644
0.809417
0.695154
0.859228
0.859527
0.83764
0.808107
0.804534
0.803016
0.830834
0.701502
0.809755
0.860455
0.839519
0.861738
0.861781
0.84402
0.788932
0.811255
0.819393
0.801153
0.802656
0.799578
0.770784
0.804159
0.820504
0.857864
0.863455
0.852358
0.702975
0.87366
0.86206
0.82501
0.805682
0.826843
0.860412
0.910837
0.838121
0.869243
0.810622
0.813454
0.885095
0.805336
0.802516
0.862061
0.743001
0.73116
0.804922
0.805946
0.711733
0.738111
0.802024
0.862848
0.861566
0.862566
0.776364
0.853345
0.861093
0.864307
0.857208
0.8162
0.862082
0.805416
0.808937
0.859975
0.860646
0.750707
0.7026
0.862119
0.735139
0.780968
0.697349
0.872947
0.803493
0.706177
0.709411
0.859055
0.921118
0.860736
0.736724
0.860304
0.829625
0.805388
0.799321
0.826382
0.852319
0.801711
0.860887
0.845725
0.711894
0.860643
0.816185
0.85967
0.726931
0.862234
0.833016
0.860399
0.803963
0.744535
0.870918
0.843741
0.81225
0.692739
0.860488
0.803538
0.855411
0.737464
0.86057
0.73331
0.790558
0.804812
0.837376
0.799714
0.787377
0.742116
0.70039
0.736069
0.804124
0.703065
0.862578
0.713523
0.806799
0.766772
0.739973
0.709894
0.798677
0.803746
0.74178
0.86201
0.803278
0.806503
0.809918
0.907148
0.802518
0.863223
0.805349
0.861859
0.772233
0.812909
0.792974
0.862268
0.904528
0.866084
0.803336
0.862367
0.818172
0.898706
0.806432
0.807431
0.87941
0.822871
0.802074
0.811017
0.807437
0.80695
0.752096
0.807646
0.8038
0.859676
0.867986
0.711941
0.81379
0.704108
0.746269
0.743199
0.824202
0.861724
0.856256
0.806418
0.715952
0.892953
0.803647
0.803765
0.888283
0.861659
0.794431
0.861404
0.803494
0.860799
0.803816
0.779652
0.807288
0.761156
0.802068
0.845893
0.803099
0.727363
0.849467
0.846535
0.761453
0.823315
0.70289
0.700494
0.807467
0.765981
0.784175
0.699702
0.792716
0.860796
0.731319
0.79389
0.742537
0.847539
0.749379
0.810484
0.810611
0.856592
0.753634
0.803342
0.911301
0.806933
0.860557
0.728299
0.767214
0.846171
0.861806
0.860319
0.87787
0.860767
0.809242
0.80737
0.804833
0.782531
0.743186
0.722293
0.821078
0.712369
0.749272
0.856959
0.859943
0.81154
0.802891
0.719313
0.855872
0.806029
0.705432
0.708107
0.799156
0.805837
0.848226
0.698545
0.808953
0.70712
0.791278
0.719107
0.821583
0.805897
0.714194
0.714412
0.890858
0.814771
0.813199
0.788774
0.744178
0.739348
0.735576
0.859551
0.808092
0.783279
0.726031
0.807677
0.855644
0.860217
0.861486
0.860419
0.867394
0.809768
0.860769
0.808928
0.878353
0.862053
0.803934
0.861151
0.74869
0.856531
0.856146
0.858913
0.855913
0.859243
0.804514
0.860261
0.855685
0.855576
0.859918
0.802909
0.859584
0.86104
0.746978
0.860884
0.891598
0.860677
0.801306
0.735518
0.884675
0.861068
0.863662
0.802984
0.860463
0.776003
0.880634
0.726504
0.796042
0.814343
0.86039
0.806418
0.804845
0.867559
0.815092
0.809392
0.860421
0.823277
0.871454
0.872806
0.854332
0.745942
0.744168
0.860366
0.859819
0.835643
0.878647
0.875498
0.816816
0.857393
0.823837
0.85985
0.860382
0.860041
0.861026
0.818868
0.860415
0.879515
0.86044
0.858614
0.860713
0.860501
0.797932
0.858065
0.809072
0.809829
0.809393
0.860986
0.86052
0.831276
0.773468
0.860297
0.809616
0.856051
0.809656
0.881975
0.807512
0.859597
0.861308
0.809697
0.704591
0.806002
0.86145
0.820744
0.81432
0.861573
0.860803
0.861365
0.814196
0.886953
0.696151
0.86167
0.872264
0.861161
0.80494
0.81258
0.860445
0.872107
0.804179
0.806112
0.8476
0.713858
0.861753
0.813258
0.813021
0.860538
0.861377
0.861292
0.86108
0.69888
0.819994
0.778934
0.903855
0.860553
0.75698
0.743678
0.86042
0.813521
0.823864
0.732491
0.803895
0.861114
0.733741
0.803441
0.806748
0.821364
0.842741
0.883479
0.813956
0.712781
0.803755
0.790129
0.816521
0.906619
0.842443
0.820503
0.824155
0.862122
0.861049
0.862498
0.869187
0.730371
0.843594
0.739672
0.860716
0.860736
0.738234
0.860758
0.847698
0.738959
0.855637
0.757545
0.886493
0.797452
0.860553
0.861781
0.860789
0.759439
0.860847
0.723306
0.802853
0.8041
0.861963
0.860438
0.762537
0.783357
0.866393
0.860547
0.854091
0.862227
0.861009
0.863867
0.802559
0.694941
0.776413
0.790939
0.756067
0.870891
0.827969
0.838531
0.826565
0.804404
0.861583
0.861798
0.861752
0.794884
0.69988
0.804519
0.70808
0.846459
0.829707
0.80311
0.805927
0.819043
0.811409
0.828001
0.768133
0.86104
0.883416
0.851709
0.802271
0.762595
0.818854
0.799936
0.863435
0.703803
0.802243
0.85126
0.802048
0.739747
0.861084
0.852432
0.859848
0.697117
0.810884
0.804448
0.860278
0.740491
0.861323
0.804485
0.804836
0.804559
0.861241
0.861152
0.859805
0.861544
0.743861
0.807013
0.804319
0.861688
0.911828
0.861281
0.820893
0.84472
0.802022
0.804032
0.710842
0.861714
0.804606
0.830925
0.811872
0.890135
0.853275
0.856134
0.804107
0.861471
0.796271
0.701833
0.809517
0.837926
0.8493
0.818356
0.860393
0.69914
0.884866
0.860335
0.819927
0.781783
0.760352
0.818138
0.851306
0.861679
0.818641
0.861703
0.806774
0.750974
0.805672
0.802166
0.781492
0.862922
0.862735
0.884756
0.859811
0.861763
0.71722
0.812832
0.861743
0.803683
0.819107
0.822831
0.803806
0.860513
0.864692
0.805962
0.80743
0.803691
0.855077
0.871205
0.806821
0.802036
0.806163
0.784522
0.861388
0.704404
0.889892
0.805679
0.693899
0.807373
0.841831
0.824885
0.737997
0.717546
0.804997
0.808639
0.804374
0.883994
0.793909
0.856109
0.804922
0.867951
0.80731
0.806844
0.858509
0.857402
0.825645
0.861547
0.861184
0.889099
0.788059
0.877839
0.860182
0.738131
0.806128
0.805515
0.806228
0.861875
0.862493
0.807814
0.804522
0.803262
0.862569
0.806801
0.805607
0.802957
0.863375
0.806041
0.804032
0.809459
0.864576
0.804867
0.80499
0.82984
0.802416
0.860416
0.736382
0.864404
0.876957
0.808723
0.861344
0.805061
0.865666
0.870731
0.804806
0.861864
0.803005
0.8123
0.802677
0.804124
0.806758
0.809581
0.810048
0.809291
0.860568
0.860462
0.815322
0.867149
0.806672
0.803683
0.803105
0.801127
0.867714
0.80499
0.861188
0.860388
0.811238
0.809559
0.803817
0.870643
0.866812
0.802853
0.752915
0.803471
0.873654
0.860401
0.810492
0.806811
0.824275
0.87396
0.741893
0.833849
0.837531
0.854407
0.860791
0.816241
0.817929
0.813563
0.805991
0.817174
0.812708
0.705569
0.877451
0.80587
0.860604
0.881906
0.861223
0.810911
0.813086
0.860524
0.858573
0.812341
0.744366
0.814945
0.887852
0.840961
0.803094
0.824217
0.892343
0.802601
0.897095
0.843456
0.860451
0.861696
0.807227
0.807706
0.860986
0.860329
0.808511
0.86069
0.822227
0.900666
0.827243
0.813551
0.804094
0.86279
0.815188
0.842928
0.81355
0.810406
0.817937
0.860509
0.862689
0.860278
0.860817
0.836297
0.819873
0.782083
0.741656
0.861207
0.860742
0.809099
0.86058
0.70801
0.879628
0.802513
0.809503
0.859299
0.860425
0.806221
0.860286
0.803661
0.80392
0.81308
0.851943
0.812566
0.826448
0.86251
0.847392
0.838367
0.803642
0.847355
0.804796
0.818443
0.809891
0.802704
0.8027
0.803379
0.846302
0.805953
0.807504
0.8695
0.836105
0.780661
0.714791
0.815259
0.779668
0.803126
0.73118
0.806993
0.811096
0.807572
0.860857
0.838313
0.860685
0.861519
0.814215
0.80883
0.901089
0.860466
0.810226
0.793506
0.735426
0.814162
0.812014
0.79262
0.860451
0.860738
0.801093
0.807475
0.806318
0.744845
0.861635
0.805129
0.829855
0.796545
0.878881
0.813965
0.807617
0.807611
0.819481
0.815131
0.704749
0.804423
0.872056
0.860717
0.807915
0.723576
0.819567
0.860577
0.861958
0.868446
0.860641
0.806679
0.862261
0.815396
0.705359
0.812578
0.801218
0.808924
0.860874
0.762462
0.860446
0.849559
0.835876
0.746216
0.907578
0.799873
0.826075
0.807774
0.795736
0.813365
0.853134
0.813333
0.80507
0.860938
0.855678
0.797934
0.799006
0.860149
0.81389
0.838491
0.860411
0.839142
0.84483
0.810618
0.861625
0.883355
0.855566
0.823498
0.861115
0.711752
0.804627
0.861246
0.860138
0.889857
0.861597
0.823781
0.702126
0.856796
0.803734
0.860008
0.82067
0.875942
0.861358
0.815553
0.900322
0.792142
0.816948
0.860932
0.855367
0.810178
0.860511
0.740725
0.806764
0.878537
0.837001
0.816076
0.856637
0.861072
0.81366
0.756076
0.856119
0.804121
0.871435
0.860479
0.817494
0.863997
0.837337
0.855752
0.86012
0.814587
0.861161
0.805974
0.857145
0.861013
0.819515
0.861426
0.861279
0.859049
0.859778
0.86142
0.855582
0.872056
0.860833
0.803703
0.829462
0.862321
0.82165
0.819044
0.803715
0.803952
0.861578
0.861137
0.833304
0.86155
0.859423
0.803602
0.855288
0.861654
0.861136
0.804556
0.860487
0.860884
0.812204
0.861742
0.868906
0.809928
0.855285
0.827003
0.706427
0.860305
0.860635
0.856442
0.858718
0.861882
0.86339
0.859895
0.861068
0.769774
0.861603
0.803991
0.86041
0.824367
0.838477
0.86208
0.849673
0.866028
0.863671
0.859232
0.823622
0.825116
0.848761
0.861407
0.8604
0.824003
0.86757
0.86071
0.860379
0.803897
0.861839
0.861281
0.709084
0.74401
0.819455
0.862068
0.805218
0.861043
0.860439
0.844784
0.773633
0.860762
0.774779
0.854679
0.85631
0.861331
0.862867
0.86079
0.810562
0.861773
0.862219
0.844501
0.86071
0.781116
0.825983
0.860044
0.802776
0.80391
0.860425
0.881774
0.861124
0.861116
0.877694
0.860902
0.870669
0.726607
0.865318
0.860568
0.856409
0.860676
0.854187
0.860759
0.778761
0.802717
0.835375
0.803708
0.802748
0.809239
0.799863
0.861079
0.860048
0.793667
0.859852
0.831352
0.860781
0.859761
0.802476
0.860637
0.861796
0.828798
0.812758
0.850027
0.858433
0.723759
0.861138
0.85997
0.861877
0.747323
0.744296
0.706321
0.827595
0.715469
0.856698
0.785045
0.84549
0.860478
0.790566
0.854127
0.859401
0.796039
0.811834
0.860929
0.805719
0.859697
0.860411
0.86035
0.86175
0.85478
0.805394
0.792216
0.84051
0.860567
0.859936
0.802065
0.819929
0.807152
0.860434
0.860527
0.857243
0.860287
0.703453
0.85707
0.860999
0.861024
0.795854
0.820247
0.810243
0.822967
0.848982
0.712962
0.814644
0.802768
0.860322
0.860504
0.860395
0.860729
0.860972
0.857807
0.858871
0.804703
0.858389
0.876374
0.859498
0.803722
0.858418
0.724607
0.744176
0.861582
0.860443
0.805406
0.862434
0.758063
0.803665
0.803509
0.861584
0.709907
0.86071
0.802915
0.860424
0.866791
0.800173
0.862269
0.860813
0.828117
0.86062
0.792056
0.803874
0.860647
0.916417
0.831164
0.860493
0.83639
0.857949
0.870212
0.744702
0.717857
0.854711
0.80368
0.712444