# vtk DataFile Version 1.0
unstructured grid
ascii
DATASET UNSTRUCTURED_GRID
points 7812 float
-1 0 0
-1 1 0
2 0 0
2 1 0
0 0 0
1 0 0
-1 1 0.1
-1 0 0.1
0 0 0.1
1 0 0.1
2 0 0.1
2 1 0.1
-0.99 0 0
-0.98 0 0
-0.97 0 0
-0.96 0 0
-0.95 0 0
-0.94 0 0
-0.93 0 0
-0.92 0 0
-0.91 0 0
-0.9 0 0
-0.89 0 0
-0.88 0 0
-0.87 0 0
-0.86 0 0
-0.85 0 0
-0.84 0 0
-0.83 0 0
-0.82 0 0
-0.81 0 0
-0.8 0 0
-0.79 0 0
-0.78 0 0
-0.77 0 0
-0.76 0 0
-0.75 0 0
-0.74 0 0
-0.73 0 0
-0.72 0 0
-0.71 0 0
-0.7 0 0
-0.69 0 0
-0.68 0 0
-0.67 0 0
-0.66 0 0
-0.65 0 0
-0.64 0 0
-0.63 0 0
-0.62 0 0
-0.61 0 0
-0.6 0 0
-0.59 0 0
-0.58 0 0
-0.57 0 0
-0.56 0 0
-0.55 0 0
-0.54 0 0
-0.53 0 0
-0.52 0 0
-0.51 0 0
-0.5 0 0
-0.49 0 0
-0.48 0 0
-0.47 0 0
-0.46 0 0
-0.45 0 0
-0.44 0 0
-0.43 0 0
-0.42 0 0
-0.41 0 0
-0.4 0 0
-0.39 0 0
-0.38 0 0
-0.37 0 0
-0.36 0 0
-0.35 0 0
-0.34 0 0
-0.33 0 0
-0.32 0 0
-0.31 0 0
-0.3 0 0
-0.29 0 0
-0.28 0 0
-0.27 0 0
-0.26 0 0
-0.25 0 0
-0.24 0 0
-0.23 0 0
-0.22 0 0
-0.21 0 0
-0.2 0 0
-0.19 0 0
-0.18 0 0
-0.17 0 0
-0.16 0 0
-0.15 0 0
-0.14 0 0
-0.13 0 0
-0.12 0 0
-0.11 0 0
-0.1 0 0
-0.09 0 0
-0.08 0 0
-0.07 0 0
-0.06 0 0
-0.05 0 0
-0.04 0 0
-0.03 0 0
-0.02 0 0
-0.01 0 0
1.01 0 0
1.02 0 0
1.03 0 0
1.04 0 0
1.05 0 0
1.06 0 0
1.07 0 0
1.08 0 0
1.09 0 0
1.1 0 0
1.11 0 0
1.12 0 0
1.13 0 0
1.14 0 0
1.15 0 0
1.16 0 0
1.17 0 0
1.18 0 0
1.19 0 0
1.2 0 0
1.21 0 0
1.22 0 0
1.23 0 0
1.24 0 0
1.25 0 0
1.26 0 0
1.27 0 0
1.28 0 0
1.29 0 0
1.3 0 0
1.31 0 0
1.32 0 0
1.33 0 0
1.34 0 0
1.35 0 0
1.36 0 0
1.37 0 0
1.38 0 0
1.39 0 0
1.4 0 0
1.41 0 0
1.42 0 0
1.43 0 0
1.44 0 0
1.45 0 0
1.46 0 0
1.47 0 0
1.48 0 0
1.49 0 0
1.5 0 0
1.51 0 0
1.52 0 0
1.53 0 0
1.54 0 0
1.55 0 0
1.56 0 0
1.57 0 0
1.58 0 0
1.59 0 0
1.6 0 0
1.61 0 0
1.62 0 0
1.63 0 0
1.64 0 0
1.65 0 0
1.66 0 0
1.67 0 0
1.68 0 0
1.69 0 0
1.7 0 0
1.71 0 0
1.72 0 0
1.73 0 0
1.74 0 0
1.75 0 0
1.76 0 0
1.77 0 0
1.78 0 0
1.79 0 0
1.8 0 0
1.81 0 0
1.82 0 0
1.83 0 0
1.84 0 0
1.85 0 0
1.86 0 0
1.87 0 0
1.88 0 0
1.89 0 0
1.9 0 0
1.91 0 0
1.92 0 0
1.93 0 0
1.94 0 0
1.95 0 0
1.96 0 0
1.97 0 0
1.98 0 0
1.99 0 0
2 0.010289 0
2 0.0215307 0
2 0.0338135 0
2 0.0472336 0
2 0.0618965 0
2 0.0779171 0
2 0.0954213 0
2 0.114546 0
2 0.135442 0
2 0.158274 0
2 0.183219 0
2 0.210474 0
2 0.240253 0
2 0.27279 0
2 0.308339 0
2 0.347181 0
2 0.389619 0
2 0.435987 0
2 0.486649 0
2 0.542002 0
2 0.602481 0
2 0.66856 0
2 0.740758 0
2 0.819642 0
2 0.90583 0
1.9 1 0
1.8 1 0
1.7 1 0
1.6 1 0
1.5 1 0
1.4 1 0
1.3 1 0
1.2 1 0
1.1 1 0
1 1 0
0.9 1 0
0.8 1 0
0.7 1 0
0.6 1 0
0.5 1 0
0.4 1 0
0.3 1 0
0.2 1 0
0.1 1 0
3.69793e-12 1 0
-0.1 1 0
-0.2 1 0
-0.3 1 0
-0.4 1 0
-0.5 1 0
-0.6 1 0
-0.7 1 0
-0.8 1 0
-0.9 1 0
-1 0.90583 0
-1 0.819642 0
-1 0.740758 0
-1 0.66856 0
-1 0.602481 0
-1 0.542002 0
-1 0.486649 0
-1 0.435987 0
-1 0.389619 0
-1 0.347181 0
-1 0.308339 0
-1 0.27279 0
-1 0.240253 0
-1 0.210474 0
-1 0.183219 0
-1 0.158274 0
-1 0.135442 0
-1 0.114546 0
-1 0.0954213 0
-1 0.0779171 0
-1 0.0618965 0
-1 0.0472336 0
-1 0.0338135 0
-1 0.0215307 0
-1 0.010289 0
0.00921362 0.00379763 0
0.0184561 0.00752451 0
0.0277268 0.0111804 0
0.0370253 0.0147652 0
0.0463511 0.0182786 0
0.0557034 0.0217203 0
0.0650819 0.0250903 0
0.074486 0.0283883 0
0.083915 0.0316141 0
0.0933685 0.0347675 0
0.102846 0.0378484 0
0.112347 0.0408565 0
0.12187 0.0437917 0
0.131416 0.0466538 0
0.140983 0.0494427 0
0.150572 0.0521581 0
0.160181 0.0547999 0
0.16981 0.0573681 0
0.179458 0.0598623 0
0.189125 0.0622825 0
0.198811 0.0646285 0
0.208514 0.0669001 0
0.218234 0.0690974 0
0.227971 0.07122 0
0.237724 0.073268 0
0.247493 0.0752411 0
0.257276 0.0771393 0
0.267073 0.0789625 0
0.276884 0.0807105 0
0.286708 0.0823832 0
0.296545 0.0839806 0
0.306394 0.0855025 0
0.316254 0.0869488 0
0.326125 0.0883196 0
0.336006 0.0896146 0
0.345896 0.0908339 0
0.355796 0.0919773 0
0.365704 0.0930447 0
0.375621 0.0940362 0
0.385544 0.0949517 0
0.395474 0.095791 0
0.40541 0.0965542 0
0.415352 0.0972412 0
0.425299 0.097852 0
0.43525 0.0983865 0
0.445205 0.0988447 0
0.455164 0.0992266 0
0.465125 0.0995321 0
0.475088 0.0997613 0
0.485052 0.0999141 0
0.495017 0.0999904 0
0.504983 0.0999904 0
0.514948 0.0999141 0
0.524912 0.0997613 0
0.534875 0.0995321 0
0.544836 0.0992266 0
0.554795 0.0988447 0
0.56475 0.0983865 0
0.574701 0.097852 0
0.584648 0.0972412 0
0.59459 0.0965542 0
0.604526 0.095791 0
0.614456 0.0949517 0
0.624379 0.0940362 0
0.634296 0.0930447 0
0.644204 0.0919773 0
0.654104 0.0908339 0
0.663994 0.0896146 0
0.673875 0.0883196 0
0.683746 0.0869488 0
0.693606 0.0855025 0
0.703455 0.0839806 0
0.713292 0.0823832 0
0.723116 0.0807105 0
0.732927 0.0789625 0
0.742724 0.0771393 0
0.752508 0.0752411 0
0.762276 0.073268 0
0.772029 0.07122 0
0.781766 0.0690974 0
0.791486 0.0669001 0
0.801189 0.0646285 0
0.810875 0.0622825 0
0.820542 0.0598623 0
0.83019 0.0573681 0
0.839819 0.0547999 0
0.849428 0.0521581 0
0.859017 0.0494427 0
0.868584 0.0466538 0
0.87813 0.0437917 0
0.887653 0.0408565 0
0.897154 0.0378484 0
0.906631 0.0347675 0
0.916085 0.0316141 0
0.925514 0.0283883 0
0.934918 0.0250903 0
0.944297 0.0217203 0
0.953649 0.0182786 0
0.962975 0.0147652 0
0.972273 0.0111804 0
0.981544 0.00752451 0
0.990786 0.00379763 0
-1 0.90583 0.1
-1 0.819642 0.1
-1 0.740758 0.1
-1 0.66856 0.1
-1 0.602481 0.1
-1 0.542002 0.1
-1 0.486649 0.1
-1 0.435987 0.1
-1 0.389619 0.1
-1 0.347181 0.1
-1 0.308339 0.1
-1 0.27279 0.1
-1 0.240253 0.1
-1 0.210474 0.1
-1 0.183219 0.1
-1 0.158274 0.1
-1 0.135442 0.1
-1 0.114546 0.1
-1 0.0954213 0.1
-1 0.0779171 0.1
-1 0.0618965 0.1
-1 0.0472336 0.1
-1 0.0338135 0.1
-1 0.0215307 0.1
-1 0.010289 0.1
-0.99 0 0.1
-0.98 0 0.1
-0.97 0 0.1
-0.96 0 0.1
-0.95 0 0.1
-0.94 0 0.1
-0.93 0 0.1
-0.92 0 0.1
-0.91 0 0.1
-0.9 0 0.1
-0.89 0 0.1
-0.88 0 0.1
-0.87 0 0.1
-0.86 0 0.1
-0.85 0 0.1
-0.84 0 0.1
-0.83 0 0.1
-0.82 0 0.1
-0.81 0 0.1
-0.8 0 0.1
-0.79 0 0.1
-0.78 0 0.1
-0.77 0 0.1
-0.76 0 0.1
-0.75 0 0.1
-0.74 0 0.1
-0.73 0 0.1
-0.72 0 0.1
-0.71 0 0.1
-0.7 0 0.1
-0.69 0 0.1
-0.68 0 0.1
-0.67 0 0.1
-0.66 0 0.1
-0.65 0 0.1
-0.64 0 0.1
-0.63 0 0.1
-0.62 0 0.1
-0.61 0 0.1
-0.6 0 0.1
-0.59 0 0.1
-0.58 0 0.1
-0.57 0 0.1
-0.56 0 0.1
-0.55 0 0.1
-0.54 0 0.1
-0.53 0 0.1
-0.52 0 0.1
-0.51 0 0.1
-0.5 0 0.1
-0.49 0 0.1
-0.48 0 0.1
-0.47 0 0.1
-0.46 0 0.1
-0.45 0 0.1
-0.44 0 0.1
-0.43 0 0.1
-0.42 0 0.1
-0.41 0 0.1
-0.4 0 0.1
-0.39 0 0.1
-0.38 0 0.1
-0.37 0 0.1
-0.36 0 0.1
-0.35 0 0.1
-0.34 0 0.1
-0.33 0 0.1
-0.32 0 0.1
-0.31 0 0.1
-0.3 0 0.1
-0.29 0 0.1
-0.28 0 0.1
-0.27 0 0.1
-0.26 0 0.1
-0.25 0 0.1
-0.24 0 0.1
-0.23 0 0.1
-0.22 0 0.1
-0.21 0 0.1
-0.2 0 0.1
-0.19 0 0.1
-0.18 0 0.1
-0.17 0 0.1
-0.16 0 0.1
-0.15 0 0.1
-0.14 0 0.1
-0.13 0 0.1
-0.12 0 0.1
-0.11 0 0.1
-0.1 0 0.1
-0.09 0 0.1
-0.08 0 0.1
-0.07 0 0.1
-0.06 0 0.1
-0.05 0 0.1
-0.04 0 0.1
-0.03 0 0.1
-0.02 0 0.1
-0.01 0 0.1
0.00921362 0.00379763 0.1
0.0184561 0.00752451 0.1
0.0277268 0.0111804 0.1
0.0370253 0.0147652 0.1
0.0463511 0.0182786 0.1
0.0557034 0.0217203 0.1
0.0650819 0.0250903 0.1
0.074486 0.0283883 0.1
0.083915 0.0316141 0.1
0.0933685 0.0347675 0.1
0.102846 0.0378484 0.1
0.112347 0.0408565 0.1
0.12187 0.0437917 0.1
0.131416 0.0466538 0.1
0.140983 0.0494427 0.1
0.150572 0.0521581 0.1
0.160181 0.0547999 0.1
0.16981 0.0573681 0.1
0.179458 0.0598623 0.1
0.189125 0.0622825 0.1
0.198811 0.0646285 0.1
0.208514 0.0669001 0.1
0.218234 0.0690974 0.1
0.227971 0.07122 0.1
0.237724 0.073268 0.1
0.247493 0.0752411 0.1
0.257276 0.0771393 0.1
0.267073 0.0789625 0.1
0.276884 0.0807105 0.1
0.286708 0.0823832 0.1
0.296545 0.0839806 0.1
0.306394 0.0855025 0.1
0.316254 0.0869488 0.1
0.326125 0.0883196 0.1
0.336006 0.0896146 0.1
0.345896 0.0908339 0.1
0.355796 0.0919773 0.1
0.365704 0.0930447 0.1
0.375621 0.0940362 0.1
0.385544 0.0949517 0.1
0.395474 0.095791 0.1
0.40541 0.0965542 0.1
0.415352 0.0972412 0.1
0.425299 0.097852 0.1
0.43525 0.0983865 0.1
0.445205 0.0988447 0.1
0.455164 0.0992266 0.1
0.465125 0.0995321 0.1
0.475088 0.0997613 0.1
0.485052 0.0999141 0.1
0.495017 0.0999904 0.1
0.504983 0.0999904 0.1
0.514948 0.0999141 0.1
0.524912 0.0997613 0.1
0.534875 0.0995321 0.1
0.544836 0.0992266 0.1
0.554795 0.0988447 0.1
0.56475 0.0983865 0.1
0.574701 0.097852 0.1
0.584648 0.0972412 0.1
0.59459 0.0965542 0.1
0.604526 0.095791 0.1
0.614456 0.0949517 0.1
0.624379 0.0940362 0.1
0.634296 0.0930447 0.1
0.644204 0.0919773 0.1
0.654104 0.0908339 0.1
0.663994 0.0896146 0.1
0.673875 0.0883196 0.1
0.683746 0.0869488 0.1
0.693606 0.0855025 0.1
0.703455 0.0839806 0.1
0.713292 0.0823832 0.1
0.723116 0.0807105 0.1
0.732927 0.0789625 0.1
0.742724 0.0771393 0.1
0.752508 0.0752411 0.1
0.762276 0.073268 0.1
0.772029 0.07122 0.1
0.781766 0.0690974 0.1
0.791486 0.0669001 0.1
0.801189 0.0646285 0.1
0.810875 0.0622825 0.1
0.820542 0.0598623 0.1
0.83019 0.0573681 0.1
0.839819 0.0547999 0.1
0.849428 0.0521581 0.1
0.859017 0.0494427 0.1
0.868584 0.0466538 0.1
0.87813 0.0437917 0.1
0.887653 0.0408565 0.1
0.897154 0.0378484 0.1
0.906631 0.0347675 0.1
0.916085 0.0316141 0.1
0.925514 0.0283883 0.1
0.934918 0.0250903 0.1
0.944297 0.0217203 0.1
0.953649 0.0182786 0.1
0.962975 0.0147652 0.1
0.972273 0.0111804 0.1
0.981544 0.00752451 0.1
0.990786 0.00379763 0.1
1.01 0 0.1
1.02 0 0.1
1.03 0 0.1
1.04 0 0.1
1.05 0 0.1
1.06 0 0.1
1.07 0 0.1
1.08 0 0.1
1.09 0 0.1
1.1 0 0.1
1.11 0 0.1
1.12 0 0.1
1.13 0 0.1
1.14 0 0.1
1.15 0 0.1
1.16 0 0.1
1.17 0 0.1
1.18 0 0.1
1.19 0 0.1
1.2 0 0.1
1.21 0 0.1
1.22 0 0.1
1.23 0 0.1
1.24 0 0.1
1.25 0 0.1
1.26 0 0.1
1.27 0 0.1
1.28 0 0.1
1.29 0 0.1
1.3 0 0.1
1.31 0 0.1
1.32 0 0.1
1.33 0 0.1
1.34 0 0.1
1.35 0 0.1
1.36 0 0.1
1.37 0 0.1
1.38 0 0.1
1.39 0 0.1
1.4 0 0.1
1.41 0 0.1
1.42 0 0.1
1.43 0 0.1
1.44 0 0.1
1.45 0 0.1
1.46 0 0.1
1.47 0 0.1
1.48 0 0.1
1.49 0 0.1
1.5 0 0.1
1.51 0 0.1
1.52 0 0.1
1.53 0 0.1
1.54 0 0.1
1.55 0 0.1
1.56 0 0.1
1.57 0 0.1
1.58 0 0.1
1.59 0 0.1
1.6 0 0.1
1.61 0 0.1
1.62 0 0.1
1.63 0 0.1
1.64 0 0.1
1.65 0 0.1
1.66 0 0.1
1.67 0 0.1
1.68 0 0.1
1.69 0 0.1
1.7 0 0.1
1.71 0 0.1
1.72 0 0.1
1.73 0 0.1
1.74 0 0.1
1.75 0 0.1
1.76 0 0.1
1.77 0 0.1
1.78 0 0.1
1.79 0 0.1
1.8 0 0.1
1.81 0 0.1
1.82 0 0.1
1.83 0 0.1
1.84 0 0.1
1.85 0 0.1
1.86 0 0.1
1.87 0 0.1
1.88 0 0.1
[...]
CELL_DATA 7425
SCALARS rho float
LOOKUP_TABLE default
0.638662
0.807931
0.830999
0.8375
0.803197
0.830328
0.83047
0.827542
0.827944
0.754773
0.869271
0.814246
0.827527
0.837357
0.808451
0.829204
0.80146
0.827699
0.80548
0.778982
0.840892
0.826197
0.742223
0.838087
0.806262
0.740629
0.840679
0.854335
0.803785
0.81242
0.829131
0.733048
0.805707
0.692779
0.64421
0.838058
0.805738
0.827554
0.815365
0.837541
0.747999
0.740478
0.801529
0.692051
0.655858
0.763157
0.811579
0.827515
0.715829
0.726457
0.754196
0.808166
0.817176
0.802141
0.711604
0.672066
0.833728
0.80225
0.754698
0.724334
0.749282
0.811378
0.827718
0.802318
0.802497
0.829491
0.635345
0.786552
0.674703
0.812378
0.808459
0.804218
0.887698
0.825311
0.815854
0.827971
0.808004
0.803782
0.827678
0.765293
0.828437
0.810942
0.824298
0.795603
0.843774
0.804953
0.622829
0.839176
0.640975
0.856014
0.694427
0.746677
0.851294
0.804876
0.829331
0.779732
0.840677
0.795544
0.836019
0.807236
0.82043
0.746761
0.805456
0.837791
0.642324
0.815295
0.834527
0.736633
0.827895
0.802613
0.828727
0.791923
0.796465
0.816558
0.801315
0.794254
0.840708
0.803996
0.698396
0.700908
0.80809
0.790035
0.827993
0.797751
0.865667
0.844505
0.811294
0.814982
0.692625
0.634379
0.827456
0.695649
0.640417
0.873615
0.714548
0.80335
0.816002
0.745453
0.630166
0.752276
0.753502
0.814618
0.824038
0.708318
0.80715
0.787024
0.61459
0.802918
0.788969
0.837851
0.826634
0.694222
0.807474
0.752549
0.709104
0.805769
0.81464
0.840136
0.809051
0.712221
0.804936
0.692978
0.805023
0.839562
0.831673
0.803452
0.827868
0.796925
0.810604
0.804666
0.831122
0.809659
0.80515
0.802529
0.802124
0.764549
0.808482
0.780047
0.667622
0.687524
0.803152
0.805536
0.884357
0.840859
0.687559
0.833739
0.801666
0.83279
0.803283
0.827473
0.828143
0.804977
0.811319
0.708914
0.827877
0.830455
0.781502
0.809449
0.866373
0.81145
0.816588
0.826117
0.653161
0.844546
0.621316
0.646027
0.640808
0.687858
0.833116
0.883975
0.811106
0.802367
0.848708
0.828148
0.828672
0.83193
0.827961
0.667294
0.683473
0.827534
0.643946
0.665331
0.70459
0.824192
0.827287
0.827973
0.842361
0.82855
0.869955
0.710594
0.839703
0.751265
0.809739
0.806272
0.803595
0.737768
0.748547
0.652478
0.699186
0.869927
0.881314
0.819146
0.81132
0.811336
0.816491
0.748696
0.832652
0.804433
0.835931
0.80066
0.824471
0.728348
0.828353
0.834413
0.765541
0.619887
0.802417
0.744615
0.847507
0.827377
0.734509
0.828107
0.827824
0.856588
0.823257
0.809474
0.804893
0.83604
0.86734
0.810771
0.651411
0.856348
0.81815
0.808742
0.837548
0.845216
0.827315
0.83214
0.800266
0.827933
0.872378
0.856689
0.832321
0.845704
0.805046
0.829212
0.804281
0.767218
0.739078
0.629654
0.697215
0.81451
0.827912
0.828441
0.860403
0.789081
0.675893
0.837266
0.645967
0.787109
0.804822
0.676769
0.666294
0.668451
0.827998
0.827701
0.828143
0.826381
0.836944
0.782024
0.815623
0.805592
0.828567
0.849209
0.873158
0.842708
0.805589
0.692128
0.80774
0.842253
0.716845
0.801743
0.803424
0.870664
0.829176
0.633631
0.827456
0.766066
0.858014
0.756354
0.824109
0.910456
0.80388
0.802348
0.690487
0.66832
0.71362
0.796471
0.836701
0.827837
0.827535
0.888388
0.863085
0.803328
0.809832
0.830097
0.762809
0.808139
0.884358
0.80357
0.810286
0.804736
0.803702
0.827237
0.828276
0.828636
0.684973
0.834892
0.708395
0.814208
0.687536
0.814618
0.803505
0.844527
0.759737
0.820938
0.820887
0.829039
0.802221
0.803528
0.81626
0.741501
0.828616
0.82786
0.827204
0.803288
0.749388
0.612541
0.81003
0.825767
0.804726
0.828415
0.801626
0.666284
0.850443
0.82746
0.806185
0.797839
0.827688
0.808981
0.807087
0.828595
0.811145
0.833336
0.781644
0.822522
0.811452
0.617741
0.8081
0.66946
0.846235
0.669146
0.827404
0.883003
0.681127
0.822877
0.766585
0.807822
0.878386
0.648113
0.833784
0.833178
0.805909
0.836104
0.81583
0.83417
0.840328
0.835182
0.764508
0.837626
0.768716
0.815185
0.800138
0.805579
0.774695
0.808847
0.803712
0.826232
0.775696
0.808714
0.647956
0.654927
0.733045
0.827208
0.852124
0.871063
0.839174
0.80173
0.828143
0.809113
0.829147
0.706302
0.804447
0.760121
0.832769
0.827188
0.811189
0.712557
0.749018
0.629272
0.642295
0.805141
0.646955
0.80581
0.773006
0.782679
0.734121
0.77831
0.784006
0.823468
0.827869
0.830989
0.826366
0.745742
0.689778
0.847516
0.819249
0.791952
0.815746
0.805491
0.845542
0.754167
0.862347
0.771538
0.760339
0.782291
0.824183
0.634793
0.801871
0.850036
0.81839
0.827537
0.823453
0.802925
0.796278
0.84369
0.804601
0.851251
0.737482
0.709942
0.802357
0.807079
0.832901
0.737989
0.855716
0.804941
0.828324
0.80148
0.7887
0.813986
0.635249
0.703347
0.664089
0.826457
0.814061
0.836465
0.764413
0.814647
0.827812
0.831608
0.802336
0.760413
0.810074
0.820261
0.804642
0.74482
0.827515
0.830094
0.844329
0.825602
0.835767
0.868107
0.863568
0.766863
0.642849
0.845626
0.810334
0.850625
0.827577
0.827809
0.827558
0.827535
0.702894
0.811026
0.820843
0.828421
0.803374
0.820588
0.809812
0.866158
0.801822
0.82836
0.827739
0.877494
0.637916
0.827474
0.847931
0.887637
0.621743
0.828665
0.834843
0.801484
0.819465
0.806801
0.873476
0.822594
0.84096
0.818721
0.656512
0.804091
0.806713
0.734727
0.859652
0.767281
0.807445
0.827391
0.827363
0.865277
0.800694
0.842019
0.843902
0.79944
0.829984
0.847613
0.803509
0.816168
0.812455
0.808387
0.826457
0.80376
0.852977
0.776818
0.814691
0.80549
0.825195
0.748219
0.828301
0.83008
0.76757
0.827508
0.82685
0.833082
0.835485
0.804541
0.803262
0.857198
0.774823
0.831087
0.852121
0.80783
0.636439
0.827827
0.838291
0.858913
0.825184
0.804181
0.813992
0.861464
0.786556
0.805477
0.804834
0.828291
0.759547
0.80652
0.834632
0.814078
0.800813
0.807216
0.85144
0.810136
0.852335
0.803713
0.834846
0.826569
0.806726
0.849202
0.827784
0.720556
0.830406
0.810776
0.826641
0.909009
0.803161
0.826844
0.802321
0.80295
0.828555
0.803114
0.805566
0.789958
0.755079
0.819395
0.82834
0.773833
0.805215
0.833693
0.817139
0.83318
0.810563
0.83614
0.880269
0.840339
0.676298
0.728183
0.849253
0.829297
0.851969
0.82748
0.857172
0.812869
0.82241
0.802422
0.84692
0.86745
0.860055
0.755815
0.827571
0.8328
0.751198
0.822962
0.783261
0.802197
0.755618
0.828462
0.84054
0.827646
0.867621
0.827365
0.827655
0.823378
0.827467
0.844127
0.816256
0.801364
0.814287
0.76121
0.826358
0.780905
0.841677
0.818541
0.668191
0.787193
0.8166
0.802088
0.831229
0.807237
0.827502
0.829309
0.808731
0.830737
0.80702
0.81148
0.673602
0.854901
0.835506
0.836939
0.820632
0.805661
0.723181
0.812591
0.910646
0.826787
0.805787
0.826756
0.791251
0.813049
0.826572
0.832392
0.818784
0.82768
0.828604
0.680343
0.792737
0.78246
0.827317
0.809564
0.805738
0.658757
0.811289
0.80719
0.736401
0.841976
0.829207
0.805781
0.812739
0.80164
0.829069
0.824176
0.827671
0.828436
0.728941
0.8406
0.805428
0.813184
0.847401
0.823217
0.828503
0.803453
0.761518
0.834018
0.801499
0.832433
0.796893
0.811467
0.832129
0.750417
0.828364
0.715169
0.877599
0.727672
0.853041
0.813663
0.880048
0.800281
0.804001
0.831903
0.841055
0.842497
0.835355
0.831228
0.827057
0.813441
0.808976
0.812475
0.759223
0.831998
0.803375
0.726989
0.839504
0.684996
0.80426
0.86598
0.808783
0.740458
0.80412
0.827571
0.705602
0.791946
0.830756
0.840391
0.82004
0.690082
0.760117
0.817119
0.80624
0.828337
0.804292
0.754417
0.827244
0.828283
0.827839
0.788089
0.804933
0.807311
0.809176
0.613541
0.828263
0.838346
0.659249
0.827977
0.828519
0.82773
0.830091
0.827538
0.835031
0.802861
0.799915
0.778154
0.827526
0.834051
0.829649
0.841081
0.780101
0.822781
0.758543
0.780076
0.814314
0.832225
0.827508
0.803757
0.863636
0.828289
0.813176
0.823636
0.828304
0.82796
0.845595
0.82767
0.827834
0.815976
0.827495
0.804743
0.832055
0.806239
0.833668
0.82757
0.655671
0.827559
0.843686
0.863383
0.842515
0.649446
0.828939
0.815499
0.632412
0.715524
0.71107
0.842928
0.818516
0.8157
0.82733
0.804055
0.82892
0.815665
0.630278
0.730587
0.822789
0.810042
0.828109
0.805535
0.814252
0.825623
0.831186
0.80177
0.737353
0.861739
0.804049
0.818834
0.827233
0.771964
0.648291
0.842301
0.818438
0.749176
0.803805
0.812339
0.678145
0.832475
0.827408
0.837816
0.830412
0.831885
0.807575
0.755094
0.673807
0.616607
0.835756
0.814461
0.789278
0.827941
0.794758
0.829745
0.878378
0.776121
0.83266
0.826704
0.83608
0.88822
0.827518
0.825982
0.807531
0.817972
0.727793
0.838231
0.802445
0.816276
0.803974
0.792481
0.861335
0.832901
0.847908
0.832581
0.764858
0.769428
0.808562
0.829539
0.804113
0.808439
0.807203
0.791451
0.827554
0.777811
0.826886
0.688552
0.827308
0.807202
0.742376
0.831977
0.828644
0.756108
0.806783
0.773152
0.886494
0.803368
0.828467
0.778543
0.804505
0.827577
0.80658
0.636637
0.825909
0.809893
0.814172
0.827668
0.835624
0.774443
0.81088
0.847216
0.832649
0.818759
0.844902
0.67857
0.721645
0.828339
0.759986
0.833159
0.784395
0.828422
0.804119
0.82086
0.767278
0.799355
0.781014
0.823097
0.803967
0.6627
0.786253
0.802592
0.854654
0.827614
0.838619
0.638882
0.829402
0.792294
0.865474
0.803888
0.822817
0.804689
0.798733
0.801614
0.835595
0.843502
0.826692
0.828941
0.71069
0.78909
0.826789
0.80852
0.825004
0.806758
0.704294
0.80472
0.807271
0.816339
0.832517
0.857798
0.841403
0.827567
0.80302
0.80879
0.805569
0.789399
0.651316
0.813074
0.758094
0.693716
0.83325
0.80138
0.784084
0.803434
0.768978
0.793347
0.82711
0.82773
0.814936
0.828214
0.827782
0.829642
0.827601
0.819113
0.731025
0.721786
0.670846
0.839155
0.875245
0.824724
0.845696
0.855355
0.869496
0.763799
0.827492
0.869014
0.821577
0.828614
0.826515
0.755649
0.824985
0.812427
0.811734
0.629414
0.828092
0.775383
0.827523
0.818415
0.805517
0.707994
0.827493
0.64968
0.829841
0.806295
0.831031
0.862227
0.805437
0.800727
0.832099
0.825122
0.80971
0.776068
0.641757
0.831952
0.806869
0.834863
0.836065
0.814922
0.810516
0.842882
0.745887
0.651386
0.890546
0.812736
0.828271
0.807424
0.713811
0.801496
0.803656
0.82793
0.76501
0.675282
0.887612
0.736931
0.845515
0.825983
0.842291
0.85088
0.805977
0.807534
0.827205
0.859335
0.754666
0.875879
0.827531
0.620714
0.807469
0.756796
0.860177
0.778558
0.807189
0.806537
0.802574
0.803419
0.822646
0.828483
0.860513
0.811343
0.803605
0.803433
0.803237
0.827913
0.829022
0.803424
0.82818
0.856854
0.803782
0.796513
0.803187
0.844919
0.759002
0.827515
0.827246
0.700036
0.735954
0.810345
0.833476
0.80926
0.637835
0.861891
0.826495
0.838568
0.808327
0.804923
0.802681
0.799902
0.629117
0.808864
0.828515
0.84015
0.831817
0.828225
0.811267
0.769229
0.807282
0.785002
0.795403
0.802555
0.797061
0.75869
0.804272
0.817862
0.824181
0.840545
0.854459
0.632718
0.850307
0.828605
0.824955
0.805824
0.826812
0.826814
0.898366
0.810895
0.872796
0.810025
0.778012
0.867968
0.805603
0.80323
0.834401
0.688421
0.674186
0.805264
0.806246
0.678059
0.682544
0.802827
0.834417
0.82799
0.833457
0.755173
0.827133
0.827507
0.836449
0.827928
0.816015
0.828629
0.769799
0.808919
0.828049
0.827069
0.700227
0.627415
0.82867
0.678502
0.739839
0.621379
0.849736
0.803538
0.652683
0.641041
0.836029
0.910874
0.829877
0.680868
0.827404
0.799338
0.805525
0.79339
0.826606
0.821749
0.796062
0.831878
0.813678
0.639901
0.829638
0.782243
0.828068
0.70254
0.833099
0.802712
0.827364
0.804018
0.690522
0.850695
0.817092
0.812158
0.641479
0.82896
0.803592
0.857766
0.716234
0.829149
0.684374
0.755184
0.804955
0.808581
0.763201
0.743861
0.719802
0.650084
0.693033
0.804166
0.650618
0.833468
0.668571
0.771866
0.717531
0.695588
0.654931
0.761527
0.804302
0.718161
0.832399
0.803248
0.806665
0.775613
0.893799
0.802406
0.83497
0.80564
0.828343
0.727054
0.812851
0.753968
0.832899
0.89047
0.842231
0.765771
0.833532
0.785112
0.884442
0.806751
0.772958
0.858184
0.790822
0.802861
0.810901
0.77279
0.770657
0.718299
0.807905
0.804444
0.829342
0.842709
0.646374
0.813675
0.642645
0.694027
0.69335
0.824338
0.832133
0.822518
0.80679
0.651268
0.877529
0.803435
0.803624
0.869831
0.82817
0.784307
0.827891
0.803237
0.829747
0.803774
0.736715
0.807413
0.714713
0.80173
0.81595
0.802759
0.668586
0.822131
0.820476
0.739171
0.823424
0.633759
0.626227
0.807586
0.718942
0.743619
0.623593
0.750994
0.82749
0.703562
0.78407
0.72138
0.822384
0.696717
0.776431
0.810669
0.823555
0.698479
0.803122
0.898886
0.803095
0.828967
0.67067
0.718875
0.813716
0.828254
0.827342
0.858413
0.827171
0.808602
0.807367
0.805165
0.738058
0.723169
0.656969
0.787711
0.661601
0.729725
0.823388
0.827326
0.811472
0.802855
0.67921
0.822336
0.80644
0.63852
0.649215
0.762294
0.806285
0.817958
0.62429
0.80435
0.634451
0.756296
0.652229
0.819065
0.806053
0.644704
0.647602
0.873661
0.814766
0.779563
0.745967
0.690363
0.68369
0.709124
0.82807
0.773929
0.772594
0.662363
0.771271
0.822355
0.827983
0.827927
0.828142
0.870863
0.77352
0.830399
0.80796
0.858283
0.828592
0.804001
0.827603
0.727834
0.824968
0.824206
0.827299
0.823583
0.827872
0.804941
0.829557
0.823013
0.822575
0.829005
0.803385
0.828448
0.830508
0.694039
0.830228
0.874249
0.829867
0.798882
0.677073
0.865289
0.830412
0.835384
0.80296
0.826851
0.76473
0.859849
0.680419
0.759497
0.814016
0.828234
0.806778
0.805216
0.841563
0.811611
0.809471
0.828029
0.79287
0.847294
0.850082
0.825937
0.692036
0.698733
0.828278
0.828555
0.802789
0.857211
0.854615
0.816724
0.825723
0.791888
0.827109
0.829541
0.827226
0.830388
0.818841
0.828335
0.858461
0.828429
0.826754
0.829493
0.829543
0.792953
0.826295
0.809055
0.809708
0.809404
0.830239
0.826844
0.801185
0.761174
0.826786
0.809708
0.822293
0.809766
0.863925
0.807606
0.826924
0.8277
0.809735
0.667489
0.806309
0.827856
0.82076
0.814268
0.827994
0.827379
0.82779
0.814102
0.870049
0.64341
0.828104
0.849724
0.827545
0.805189
0.812605
0.8279
0.848277
0.804263
0.806101
0.822329
0.680399
0.828201
0.813226
0.812921
0.826951
0.827786
0.827721
0.827615
0.643763
0.817228
0.750541
0.890122
0.831774
0.740157
0.711713
0.82808
0.80972
0.824008
0.675481
0.804006
0.827635
0.676796
0.803474
0.806992
0.821381
0.816425
0.86364
0.813805
0.646105
0.803841
0.781832
0.815752
0.893216
0.814525
0.819897
0.824308
0.840231
0.827601
0.833304
0.84507
0.669199
0.814397
0.684107
0.827479
0.827455
0.715913
0.827427
0.816852
0.717811
0.826057
0.729728
0.867579
0.790977
0.827613
0.828229
0.82741
0.706192
0.827535
0.663165
0.802729
0.79941
0.83306
0.82799
0.737859
0.773803
0.839808
0.827007
0.830278
0.832876
0.827581
0.835751
0.80241
0.616043
0.762976
0.776114
0.737976
0.846458
0.828269
0.838827
0.792931
0.805094
0.828007
0.828244
0.828191
0.785873
0.622371
0.80515
0.654619
0.819016
0.830108
0.803104
0.806381
0.818982
0.810565
0.796633
0.747635
0.82759
0.865295
0.824221
0.801994
0.744853
0.815878
0.795914
0.841682
0.658074
0.800987
0.818509
0.801738
0.708958
0.827495
0.822234
0.862372
0.619712
0.81096
0.804945
0.826824
0.686131
0.827759
0.804941
0.805185
0.805234
0.827706
0.827655
0.828224
0.827967
0.721689
0.807275
0.80467
0.828118
0.899743
0.82773
0.788402
0.845784
0.802519
0.804237
0.642093
0.828152
0.805205
0.831415
0.807734
0.872274
0.8254
0.858359
0.804182
0.831765
0.787972
0.628404
0.773043
0.807236
0.816586
0.818087
0.827288
0.622762
0.867646
0.863122
0.785854
0.768295
0.746227
0.818064
0.853129
0.828108
0.818638
0.828135
0.807111
0.734043
0.806164
0.801862
0.771206
0.834714
0.83378
0.867654
0.82795
0.828203
0.676432
0.812738
0.828183
0.803755
0.787168
0.822371
0.804298
0.827018
0.837078
0.803924
0.80756
0.803766
0.826086
0.847606
0.806881
0.801568
0.806188
0.773657
0.831219
0.629013
0.873738
0.805982
0.617676
0.807465
0.814222
0.825067
0.695001
0.649866
0.805143
0.808624
0.804485
0.866594
0.786926
0.825968
0.805508
0.871316
0.807579
0.807146
0.835026
0.827269
0.825849
0.832218
0.831455
0.872846
0.747527
0.85875
0.829048
0.682283
0.806286
0.805977
0.806599
0.83222
0.834052
0.807941
0.804649
0.803279
0.833501
0.806957
0.805899
0.802924
0.834931
0.806369
0.804158
0.809537
0.837728
0.804916
0.805135
0.830247
0.802153
0.828077
0.680124
0.836637
0.856854
0.808836
0.831007
0.805333
0.838666
0.846321
0.805197
0.832454
0.802897
0.812244
0.796568
0.80427
0.806918
0.809702
0.810115
0.809307
0.830054
0.827768
0.815284
0.840976
0.806727
0.803675
0.803094
0.795155
0.842824
0.805248
0.830772
0.827967
0.811288
0.809601
0.803832
0.847292
0.870176
0.802801
0.702773
0.803493
0.850458
0.82876
0.810429
0.807112
0.824418
0.852273
0.697602
0.834497
0.807274
0.85611
0.830255
0.816217
0.817925
0.813505
0.806311
0.817166
0.812729
0.634369
0.855685
0.800802
0.82758
0.861649
0.830769
0.777155
0.813092
0.827658
0.827325
0.808377
0.689782
0.814859
0.86943
0.813559
0.80301
0.791307
0.876423
0.802202
0.881942
0.817067
0.829127
0.831815
0.807209
0.807832
0.827363
0.828309
0.80849
0.827293
0.822305
0.88601
0.825695
0.813323
0.80415
0.837624
0.814749
0.844259
0.813538
0.810462
0.817886
0.828779
0.838684
0.827141
0.832878
0.837078
0.819874
0.740221
0.711462
0.82764
0.829604
0.809041
0.827141
0.660505
0.861183
0.802275
0.809611
0.826721
0.827162
0.806504
0.82671
0.803727
0.804027
0.813055
0.825
0.77668
0.796559
0.833658
0.848261
0.839276
0.803701
0.816943
0.805216
0.817501
0.809962
0.8026
0.802567
0.803376
0.820779
0.803526
0.807524
0.844545
0.836907
0.756964
0.680034
0.812876
0.742343
0.803121
0.683542
0.807242
0.811155
0.807629
0.829912
0.839272
0.827519
0.827933
0.814195
0.808187
0.886261
0.828594
0.810155
0.783529
0.686725
0.814112
0.811954
0.78163
0.827594
0.827534
0.797936
0.805849
0.806604
0.706205
0.838789
0.805534
0.79701
0.789127
0.859431
0.813872
0.807639
0.807594
0.816728
0.815121
0.652307
0.804594
0.848117
0.82754
0.804662
0.658465
0.819586
0.82751
0.828447
0.84299
0.827486
0.806913
0.832863
0.811954
0.629766
0.812618
0.762358
0.804333
0.827536
0.739225
0.827845
0.8514
0.83596
0.692232
0.894774
0.793892
0.793167
0.803187
0.787519
0.813363
0.85528
0.813278
0.805313
0.827553
0.822106
0.791542
0.793903
0.82716
0.813811
0.839037
0.831864
0.839896
0.813681
0.806548
0.82805
0.863502
0.827118
0.823645
0.82763
0.645058
0.801662
0.83396
0.837641
0.871955
0.82805
0.823942
0.651841
0.823185
0.803813
0.826534
0.82067
0.854954
0.827782
0.815235
0.886008
0.779362
0.816961
0.827448
0.822041
0.809547
0.827539
0.684879
0.805438
0.857095
0.837743
0.816021
0.825384
0.8276
0.813505
0.72798
0.8245
0.804182
0.847282
0.82997
0.81743
0.840035
0.806068
0.823751
0.82941
0.814494
0.830747
0.768878
0.859641
0.830482
0.81951
0.827848
0.827669
0.827662
0.828857
0.827824
0.823198
0.84923
0.830176
0.803763
0.82981
0.836443
0.821714
0.819054
0.803784
0.804071
0.828
0.830567
0.833846
0.82797
0.828275
0.803641
0.822566
0.828088
0.827532
0.805171
0.827734
0.827438
0.808921
0.82819
0.844486
0.805786
0.822242
0.827264
0.636304
0.827409
0.829824
0.82667
0.827086
0.832786
0.838073
0.827955
0.830419
0.723596
0.828028
0.804113
0.828193
0.824539
0.839271
0.832577
0.824915
0.839205
0.835399
0.825395
0.823359
0.825305
0.816632
0.827844
0.828182
0.824166
0.841591
0.827109
0.828223
0.803937
0.828299
0.827708
0.659781
0.687468
0.818768
0.832488
0.805368
0.832886
0.82837
0.846054
0.72898
0.827495
0.752927
0.827593
0.823232
0.827773
0.838317
0.827481
0.810448
0.828222
0.838679
0.845037
0.827148
0.738677
0.824229
0.828262
0.802663
0.803998
0.828033
0.862541
0.827505
0.827636
0.856951
0.83756
0.850479
0.674097
0.838816
0.827447
0.823614
0.829359
0.855946
0.829618
0.736856
0.802623
0.836037
0.803746
0.802646
0.809345
0.763366
0.827613
0.827327
0.752649
0.827228
0.831794
0.827355
0.82701
0.802327
0.82996
0.828242
0.82916
0.81261
0.819793
0.82695
0.691138
0.830597
0.82715
0.828341
0.688935
0.723293
0.638567
0.827864
0.669856
0.859149
0.744839
0.846949
0.826883
0.757779
0.830352
0.827902
0.758522
0.811868
0.830055
0.800297
0.82842
0.828331
0.828262
0.828188
0.821112
0.805758
0.753815
0.841623
0.831136
0.828567
0.801615
0.819976
0.807109
0.828424
0.827221
0.85956
0.829441
0.659448
0.825366
0.83036
0.830288
0.787426
0.820279
0.810276
0.823051
0.850799
0.6437
0.814576
0.802713
0.827985
0.829426
0.829428
0.827094
0.830228
0.826002
0.826886
0.805325
0.826498
0.854046
0.826818
0.798138
0.824994
0.660284
0.725225
0.828006
0.829012
0.805644
0.833191
0.743151
0.804075
0.803851
0.831496
0.674245
0.829492
0.802881
0.828089
0.870181
0.793688
0.832896
0.829771
0.828454
0.827512
0.781214
0.803936
0.827345
0.905411
0.83164
0.828694
0.836497
0.823969
0.873789
0.724779
0.683858
0.856978
0.804496
0.677439
0.854969
0.79414