# vtk DataFile Version 1.0
unstructured grid
ascii
DATASET UNSTRUCTURED_GRID
points 7812 float
-1 0 0
-1 1 0
2 0 0
2 1 0
0 0 0
1 0 0
-1 1 0.1
-1 0 0.1
0 0 0.1
1 0 0.1
2 0 0.1
2 1 0.1
-0.99 0 0
-0.98 0 0
-0.97 0 0
-0.96 0 0
-0.95 0 0
-0.94 0 0
-0.93 0 0
-0.92 0 0
-0.91 0 0
-0.9 0 0
-0.89 0 0
-0.88 0 0
-0.87 0 0
-0.86 0 0
-0.85 0 0
-0.84 0 0
-0.83 0 0
-0.82 0 0
-0.81 0 0
-0.8 0 0
-0.79 0 0
-0.78 0 0
-0.77 0 0
-0.76 0 0
-0.75 0 0
-0.74 0 0
-0.73 0 0
-0.72 0 0
-0.71 0 0
-0.7 0 0
-0.69 0 0
-0.68 0 0
-0.67 0 0
-0.66 0 0
-0.65 0 0
-0.64 0 0
-0.63 0 0
-0.62 0 0
-0.61 0 0
-0.6 0 0
-0.59 0 0
-0.58 0 0
-0.57 0 0
-0.56 0 0
-0.55 0 0
-0.54 0 0
-0.53 0 0
-0.52 0 0
-0.51 0 0
-0.5 0 0
-0.49 0 0
-0.48 0 0
-0.47 0 0
-0.46 0 0
-0.45 0 0
-0.44 0 0
-0.43 0 0
-0.42 0 0
-0.41 0 0
-0.4 0 0
-0.39 0 0
-0.38 0 0
-0.37 0 0
-0.36 0 0
-0.35 0 0
-0.34 0 0
-0.33 0 0
-0.32 0 0
-0.31 0 0
-0.3 0 0
-0.29 0 0
-0.28 0 0
-0.27 0 0
-0.26 0 0
-0.25 0 0
-0.24 0 0
-0.23 0 0
-0.22 0 0
-0.21 0 0
-0.2 0 0
-0.19 0 0
-0.18 0 0
-0.17 0 0
-0.16 0 0
-0.15 0 0
-0.14 0 0
-0.13 0 0
-0.12 0 0
-0.11 0 0
-0.1 0 0
-0.09 0 0
-0.08 0 0
-0.07 0 0
-0.06 0 0
-0.05 0 0
-0.04 0 0
-0.03 0 0
-0.02 0 0
-0.01 0 0
1.01 0 0
1.02 0 0
1.03 0 0
1.04 0 0
1.05 0 0
1.06 0 0
1.07 0 0
1.08 0 0
1.09 0 0
1.1 0 0
1.11 0 0
1.12 0 0
1.13 0 0
1.14 0 0
1.15 0 0
1.16 0 0
1.17 0 0
1.18 0 0
1.19 0 0
1.2 0 0
1.21 0 0
1.22 0 0
1.23 0 0
1.24 0 0
1.25 0 0
1.26 0 0
1.27 0 0
1.28 0 0
1.29 0 0
1.3 0 0
1.31 0 0
1.32 0 0
1.33 0 0
1.34 0 0
1.35 0 0
1.36 0 0
1.37 0 0
1.38 0 0
1.39 0 0
1.4 0 0
1.41 0 0
1.42 0 0
1.43 0 0
1.44 0 0
1.45 0 0
1.46 0 0
1.47 0 0
1.48 0 0
1.49 0 0
1.5 0 0
1.51 0 0
1.52 0 0
1.53 0 0
1.54 0 0
1.55 0 0
1.56 0 0
1.57 0 0
1.58 0 0
1.59 0 0
1.6 0 0
1.61 0 0
1.62 0 0
1.63 0 0
1.64 0 0
1.65 0 0
1.66 0 0
1.67 0 0
1.68 0 0
1.69 0 0
1.7 0 0
1.71 0 0
1.72 0 0
1.73 0 0
1.74 0 0
1.75 0 0
1.76 0 0
1.77 0 0
1.78 0 0
1.79 0 0
1.8 0 0
1.81 0 0
1.82 0 0
1.83 0 0
1.84 0 0
1.85 0 0
1.86 0 0
1.87 0 0
1.88 0 0
1.89 0 0
1.9 0 0
1.91 0 0
1.92 0 0
1.93 0 0
1.94 0 0
1.95 0 0
1.96 0 0
1.97 0 0
1.98 0 0
1.99 0 0
2 0.010289 0
2 0.0215307 0
2 0.0338135 0
2 0.0472336 0
2 0.0618965 0
2 0.0779171 0
2 0.0954213 0
2 0.114546 0
2 0.135442 0
2 0.158274 0
2 0.183219 0
2 0.210474 0
2 0.240253 0
2 0.27279 0
2 0.308339 0
2 0.347181 0
2 0.389619 0
2 0.435987 0
2 0.486649 0
2 0.542002 0
2 0.602481 0
2 0.66856 0
2 0.740758 0
2 0.819642 0
2 0.90583 0
1.9 1 0
1.8 1 0
1.7 1 0
1.6 1 0
1.5 1 0
1.4 1 0
1.3 1 0
1.2 1 0
1.1 1 0
1 1 0
0.9 1 0
0.8 1 0
0.7 1 0
0.6 1 0
0.5 1 0
0.4 1 0
0.3 1 0
0.2 1 0
0.1 1 0
3.69793e-12 1 0
-0.1 1 0
-0.2 1 0
-0.3 1 0
-0.4 1 0
-0.5 1 0
-0.6 1 0
-0.7 1 0
-0.8 1 0
-0.9 1 0
-1 0.90583 0
-1 0.819642 0
-1 0.740758 0
-1 0.66856 0
-1 0.602481 0
-1 0.542002 0
-1 0.486649 0
-1 0.435987 0
-1 0.389619 0
-1 0.347181 0
-1 0.308339 0
-1 0.27279 0
-1 0.240253 0
-1 0.210474 0
-1 0.183219 0
-1 0.158274 0
-1 0.135442 0
-1 0.114546 0
-1 0.0954213 0
-1 0.0779171 0
-1 0.0618965 0
-1 0.0472336 0
-1 0.0338135 0
-1 0.0215307 0
-1 0.010289 0
0.00921362 0.00379763 0
0.0184561 0.00752451 0
0.0277268 0.0111804 0
0.0370253 0.0147652 0
0.0463511 0.0182786 0
0.0557034 0.0217203 0
0.0650819 0.0250903 0
0.074486 0.0283883 0
0.083915 0.0316141 0
0.0933685 0.0347675 0
0.102846 0.0378484 0
0.112347 0.0408565 0
0.12187 0.0437917 0
0.131416 0.0466538 0
0.140983 0.0494427 0
0.150572 0.0521581 0
0.160181 0.0547999 0
0.16981 0.0573681 0
0.179458 0.0598623 0
0.189125 0.0622825 0
0.198811 0.0646285 0
0.208514 0.0669001 0
0.218234 0.0690974 0
0.227971 0.07122 0
0.237724 0.073268 0
0.247493 0.0752411 0
0.257276 0.0771393 0
0.267073 0.0789625 0
0.276884 0.0807105 0
0.286708 0.0823832 0
0.296545 0.0839806 0
0.306394 0.0855025 0
0.316254 0.0869488 0
0.326125 0.0883196 0
0.336006 0.0896146 0
0.345896 0.0908339 0
0.355796 0.0919773 0
0.365704 0.0930447 0
0.375621 0.0940362 0
0.385544 0.0949517 0
0.395474 0.095791 0
0.40541 0.0965542 0
0.415352 0.0972412 0
0.425299 0.097852 0
0.43525 0.0983865 0
0.445205 0.0988447 0
0.455164 0.0992266 0
0.465125 0.0995321 0
0.475088 0.0997613 0
0.485052 0.0999141 0
0.495017 0.0999904 0
0.504983 0.0999904 0
0.514948 0.0999141 0
0.524912 0.0997613 0
0.534875 0.0995321 0
0.544836 0.0992266 0
0.554795 0.0988447 0
0.56475 0.0983865 0
0.574701 0.097852 0
0.584648 0.0972412 0
0.59459 0.0965542 0
0.604526 0.095791 0
0.614456 0.0949517 0
0.624379 0.0940362 0
0.634296 0.0930447 0
0.644204 0.0919773 0
0.654104 0.0908339 0
0.663994 0.0896146 0
0.673875 0.0883196 0
0.683746 0.0869488 0
0.693606 0.0855025 0
0.703455 0.0839806 0
0.713292 0.0823832 0
0.723116 0.0807105 0
0.732927 0.0789625 0
0.742724 0.0771393 0
0.752508 0.0752411 0
0.762276 0.073268 0
0.772029 0.07122 0
0.781766 0.0690974 0
0.791486 0.0669001 0
0.801189 0.0646285 0
0.810875 0.0622825 0
0.820542 0.0598623 0
0.83019 0.0573681 0
0.839819 0.0547999 0
0.849428 0.0521581 0
0.859017 0.0494427 0
0.868584 0.0466538 0
0.87813 0.0437917 0
0.887653 0.0408565 0
0.897154 0.0378484 0
0.906631 0.0347675 0
0.916085 0.0316141 0
0.925514 0.0283883 0
0.934918 0.0250903 0
0.944297 0.0217203 0
0.953649 0.0182786 0
0.962975 0.0147652 0
0.972273 0.0111804 0
0.981544 0.00752451 0
0.990786 0.00379763 0
-1 0.90583 0.1
-1 0.819642 0.1
-1 0.740758 0.1
-1 0.66856 0.1
-1 0.602481 0.1
-1 0.542002 0.1
-1 0.486649 0.1
-1 0.435987 0.1
-1 0.389619 0.1
-1 0.347181 0.1
-1 0.308339 0.1
-1 0.27279 0.1
-1 0.240253 0.1
-1 0.210474 0.1
-1 0.183219 0.1
-1 0.158274 0.1
-1 0.135442 0.1
-1 0.114546 0.1
-1 0.0954213 0.1
-1 0.0779171 0.1
-1 0.0618965 0.1
-1 0.0472336 0.1
-1 0.0338135 0.1
-1 0.0215307 0.1
-1 0.010289 0.1
-0.99 0 0.1
-0.98 0 0.1
-0.97 0 0.1
-0.96 0 0.1
-0.95 0 0.1
-0.94 0 0.1
-0.93 0 0.1
-0.92 0 0.1
-0.91 0 0.1
-0.9 0 0.1
-0.89 0 0.1
-0.88 0 0.1
-0.87 0 0.1
-0.86 0 0.1
-0.85 0 0.1
-0.84 0 0.1
-0.83 0 0.1
-0.82 0 0.1
-0.81 0 0.1
-0.8 0 0.1
-0.79 0 0.1
-0.78 0 0.1
-0.77 0 0.1
-0.76 0 0.1
-0.75 0 0.1
-0.74 0 0.1
-0.73 0 0.1
-0.72 0 0.1
-0.71 0 0.1
-0.7 0 0.1
-0.69 0 0.1
-0.68 0 0.1
-0.67 0 0.1
-0.66 0 0.1
-0.65 0 0.1
-0.64 0 0.1
-0.63 0 0.1
-0.62 0 0.1
-0.61 0 0.1
-0.6 0 0.1
-0.59 0 0.1
-0.58 0 0.1
-0.57 0 0.1
-0.56 0 0.1
-0.55 0 0.1
-0.54 0 0.1
-0.53 0 0.1
-0.52 0 0.1
-0.51 0 0.1
-0.5 0 0.1
-0.49 0 0.1
-0.48 0 0.1
-0.47 0 0.1
-0.46 0 0.1
-0.45 0 0.1
-0.44 0 0.1
-0.43 0 0.1
-0.42 0 0.1
-0.41 0 0.1
-0.4 0 0.1
-0.39 0 0.1
-0.38 0 0.1
-0.37 0 0.1
-0.36 0 0.1
-0.35 0 0.1
-0.34 0 0.1
-0.33 0 0.1
-0.32 0 0.1
-0.31 0 0.1
-0.3 0 0.1
-0.29 0 0.1
-0.28 0 0.1
-0.27 0 0.1
-0.26 0 0.1
-0.25 0 0.1
-0.24 0 0.1
-0.23 0 0.1
-0.22 0 0.1
-0.21 0 0.1
-0.2 0 0.1
-0.19 0 0.1
-0.18 0 0.1
-0.17 0 0.1
-0.16 0 0.1
-0.15 0 0.1
-0.14 0 0.1
-0.13 0 0.1
-0.12 0 0.1
-0.11 0 0.1
-0.1 0 0.1
-0.09 0 0.1
-0.08 0 0.1
-0.07 0 0.1
-0.06 0 0.1
-0.05 0 0.1
-0.04 0 0.1
-0.03 0 0.1
-0.02 0 0.1
-0.01 0 0.1
0.00921362 0.00379763 0.1
0.0184561 0.00752451 0.1
0.0277268 0.0111804 0.1
0.0370253 0.0147652 0.1
0.0463511 0.0182786 0.1
0.0557034 0.0217203 0.1
0.0650819 0.0250903 0.1
0.074486 0.0283883 0.1
0.083915 0.0316141 0.1
0.0933685 0.0347675 0.1
0.102846 0.0378484 0.1
0.112347 0.0408565 0.1
0.12187 0.0437917 0.1
0.131416 0.0466538 0.1
0.140983 0.0494427 0.1
0.150572 0.0521581 0.1
0.160181 0.0547999 0.1
0.16981 0.0573681 0.1
0.179458 0.0598623 0.1
0.189125 0.0622825 0.1
0.198811 0.0646285 0.1
0.208514 0.0669001 0.1
0.218234 0.0690974 0.1
0.227971 0.07122 0.1
0.237724 0.073268 0.1
0.247493 0.0752411 0.1
0.257276 0.0771393 0.1
0.267073 0.0789625 0.1
0.276884 0.0807105 0.1
0.286708 0.0823832 0.1
0.296545 0.0839806 0.1
0.306394 0.0855025 0.1
0.316254 0.0869488 0.1
0.326125 0.0883196 0.1
0.336006 0.0896146 0.1
0.345896 0.0908339 0.1
0.355796 0.0919773 0.1
0.365704 0.0930447 0.1
0.375621 0.0940362 0.1
0.385544 0.0949517 0.1
0.395474 0.095791 0.1
0.40541 0.0965542 0.1
0.415352 0.0972412 0.1
0.425299 0.097852 0.1
0.43525 0.0983865 0.1
0.445205 0.0988447 0.1
0.455164 0.0992266 0.1
0.465125 0.0995321 0.1
0.475088 0.0997613 0.1
0.485052 0.0999141 0.1
0.495017 0.0999904 0.1
0.504983 0.0999904 0.1
0.514948 0.0999141 0.1
0.524912 0.0997613 0.1
0.534875 0.0995321 0.1
0.544836 0.0992266 0.1
0.554795 0.0988447 0.1
0.56475 0.0983865 0.1
0.574701 0.097852 0.1
0.584648 0.0972412 0.1
0.59459 0.0965542 0.1
0.604526 0.095791 0.1
0.614456 0.0949517 0.1
0.624379 0.0940362 0.1
0.634296 0.0930447 0.1
0.644204 0.0919773 0.1
0.654104 0.0908339 0.1
0.663994 0.0896146 0.1
0.673875 0.0883196 0.1
0.683746 0.0869488 0.1
0.693606 0.0855025 0.1
0.703455 0.0839806 0.1
0.713292 0.0823832 0.1
0.723116 0.0807105 0.1
0.732927 0.0789625 0.1
0.742724 0.0771393 0.1
0.752508 0.0752411 0.1
0.762276 0.073268 0.1
0.772029 0.07122 0.1
0.781766 0.0690974 0.1
0.791486 0.0669001 0.1
0.801189 0.0646285 0.1
0.810875 0.0622825 0.1
0.820542 0.0598623 0.1
0.83019 0.0573681 0.1
0.839819 0.0547999 0.1
0.849428 0.0521581 0.1
0.859017 0.0494427 0.1
0.868584 0.0466538 0.1
0.87813 0.0437917 0.1
0.887653 0.0408565 0.1
0.897154 0.0378484 0.1
0.906631 0.0347675 0.1
0.916085 0.0316141 0.1
0.925514 0.0283883 0.1
0.934918 0.0250903 0.1
0.944297 0.0217203 0.1
0.953649 0.0182786 0.1
0.962975 0.0147652 0.1
0.972273 0.0111804 0.1
0.981544 0.00752451 0.1
0.990786 0.00379763 0.1
1.01 0 0.1
1.02 0 0.1
1.03 0 0.1
1.04 0 0.1
1.05 0 0.1
1.06 0 0.1
1.07 0 0.1
1.08 0 0.1
1.09 0 0.1
1.1 0 0.1
1.11 0 0.1
1.12 0 0.1
1.13 0 0.1
1.14 0 0.1
1.15 0 0.1
1.16 0 0.1
1.17 0 0.1
1.18 0 0.1
1.19 0 0.1
1.2 0 0.1
1.21 0 0.1
1.22 0 0.1
1.23 0 0.1
1.24 0 0.1
1.25 0 0.1
1.26 0 0.1
1.27 0 0.1
1.28 0 0.1
1.29 0 0.1
1.3 0 0.1
1.31 0 0.1
1.32 0 0.1
1.33 0 0.1
1.34 0 0.1
1.35 0 0.1
1.36 0 0.1
1.37 0 0.1
1.38 0 0.1
1.39 0 0.1
1.4 0 0.1
1.41 0 0.1
1.42 0 0.1
1.43 0 0.1
1.44 0 0.1
1.45 0 0.1
1.46 0 0.1
1.47 0 0.1
1.48 0 0.1
1.49 0 0.1
1.5 0 0.1
1.51 0 0.1
1.52 0 0.1
1.53 0 0.1
1.54 0 0.1
1.55 0 0.1
1.56 0 0.1
1.57 0 0.1
1.58 0 0.1
1.59 0 0.1
1.6 0 0.1
1.61 0 0.1
1.62 0 0.1
1.63 0 0.1
1.64 0 0.1
1.65 0 0.1
1.66 0 0.1
1.67 0 0.1
1.68 0 0.1
1.69 0 0.1
1.7 0 0.1
1.71 0 0.1
1.72 0 0.1
1.73 0 0.1
1.74 0 0.1
1.75 0 0.1
1.76 0 0.1
1.77 0 0.1
1.78 0 0.1
1.79 0 0.1
1.8 0 0.1
1.81 0 0.1
1.82 0 0.1
1.83 0 0.1
1.84 0 0.1
1.85 0 0.1
1.86 0 0.1
1.87 0 0.1
1.88 0 0.1
[...]
CELL_DATA 7425
SCALARS rho float
LOOKUP_TABLE default
0.904052
0.855794
0.953173
0.954421
0.824797
0.952142
0.9487
0.949532
0.945625
0.925834
0.960216
0.890164
0.949005
0.954299
0.864208
0.952303
0.806854
0.946992
0.830632
0.923395
0.955632
0.920422
0.922464
0.955002
0.841973
0.923548
0.955028
0.943773
0.870991
0.882969
0.948391
0.917984
0.832759
0.916191
0.902365
0.955004
0.841207
0.94944
0.893417
0.953124
0.924873
0.921581
0.939519
0.907982
0.908718
0.923164
0.941085
0.948886
0.917572
0.912944
0.919018
0.85986
0.923935
0.812767
0.911703
0.903695
0.954022
0.807551
0.925961
0.92034
0.922549
0.884299
0.946883
0.812682
0.870229
0.95242
0.903558
0.935473
0.903934
0.88223
0.862444
0.813927
0.966043
0.919471
0.931297
0.945759
0.85749
0.865375
0.946997
0.921622
0.951615
0.882621
0.945863
0.928303
0.952436
0.836573
0.899506
0.953296
0.903686
0.95851
0.909766
0.923586
0.942804
0.822901
0.952315
0.928612
0.931243
0.910168
0.954575
0.858323
0.945015
0.917171
0.839069
0.95333
0.903621
0.894203
0.952814
0.923921
0.950726
0.818394
0.951776
0.926949
0.928579
0.905122
0.939572
0.911224
0.954985
0.811517
0.908323
0.913824
0.860898
0.936296
0.945437
0.918131
0.961581
0.932532
0.878471
0.943071
0.914344
0.899338
0.950169
0.916423
0.901498
0.949796
0.917278
0.826273
0.922843
0.925649
0.900174
0.922255
0.925704
0.891912
0.945316
0.910744
0.85266
0.925817
0.897818
0.936055
0.927215
0.954971
0.947278
0.910341
0.85798
0.918165
0.909694
0.847504
0.891335
0.955461
0.941633
0.919318
0.827082
0.908162
0.837702
0.955351
0.953293
0.80847
0.946055
0.938169
0.898699
0.835919
0.953232
0.873261
0.937105
0.817554
0.807338
0.921164
0.865172
0.928925
0.911391
0.907829
0.821645
0.939567
0.965115
0.953736
0.909664
0.954019
0.810137
0.923208
0.822056
0.947861
0.944244
0.824635
0.901335
0.909586
0.950748
0.952237
0.922958
0.940702
0.94564
0.878293
0.897366
0.945187
0.905459
0.932833
0.898422
0.903604
0.902783
0.914277
0.924176
0.965255
0.879106
0.87041
0.953567
0.945123
0.951768
0.953395
0.950947
0.904867
0.910763
0.94861
0.904278
0.910445
0.909235
0.947654
0.949613
0.945745
0.955364
0.944017
0.945945
0.912114
0.930597
0.922754
0.902915
0.840671
0.812537
0.924318
0.92215
0.90271
0.910845
0.962686
0.952
0.943739
0.87983
0.941103
0.89767
0.922159
0.953735
0.836829
0.95404
0.905799
0.945211
0.913735
0.944244
0.954165
0.920536
0.898533
0.810589
0.91625
0.937218
0.949998
0.91841
0.951195
0.950547
0.956109
0.945556
0.875544
0.823034
0.954582
0.962049
0.878443
0.902375
0.958496
0.903989
0.86256
0.954519
0.953271
0.947023
0.952507
0.917535
0.950813
0.946951
0.956178
0.92341
0.956713
0.827823
0.952291
0.816132
0.922123
0.923619
0.89993
0.908326
0.942327
0.945482
0.951621
0.941436
0.92218
0.909005
0.954862
0.903208
0.93522
0.835723
0.909567
0.904205
0.905704
0.950921
0.94691
0.945132
0.947916
0.954778
0.924672
0.903313
0.858234
0.943952
0.95744
0.94963
0.955378
0.834812
0.908899
0.941066
0.951814
0.919061
0.810325
0.809985
0.961825
0.952257
0.899476
0.947852
0.920388
0.940259
0.927347
0.945748
0.973894
0.83114
0.929784
0.914006
0.907957
0.912452
0.933674
0.954376
0.950652
0.948518
0.953731
0.944285
0.825642
0.941844
0.927956
0.928134
0.918763
0.966516
0.841434
0.878446
0.836615
0.810338
0.947162
0.951412
0.951837
0.914866
0.925539
0.918725
0.932611
0.915265
0.942285
0.809805
0.936598
0.924978
0.927875
0.945483
0.952127
0.810727
0.808696
0.931632
0.922043
0.92697
0.946067
0.94709
0.849081
0.921478
0.897379
0.879108
0.945436
0.821149
0.944302
0.929579
0.904403
0.937484
0.947646
0.841164
0.938641
0.947035
0.865121
0.852073
0.9518
0.880811
0.953717
0.919168
0.945423
0.879287
0.89961
0.864238
0.906219
0.952777
0.908406
0.950384
0.966206
0.913331
0.911797
0.930685
0.872058
0.962983
0.904668
0.953655
0.953846
0.845332
0.954566
0.895682
0.95408
0.955493
0.953818
0.921253
0.954885
0.922727
0.893132
0.901129
0.940329
0.932237
0.862583
0.828992
0.949491
0.927545
0.862302
0.904722
0.906433
0.922351
0.946801
0.957417
0.963043
0.953487
0.811301
0.944362
0.865852
0.950166
0.915835
0.829971
0.922922
0.948891
0.950349
0.88346
0.912912
0.926635
0.900816
0.900892
0.838208
0.901766
0.938736
0.922952
0.91809
0.91808
0.933015
0.933965
0.945405
0.950644
0.953158
0.945342
0.924149
0.914963
0.956353
0.944436
0.920441
0.897222
0.834155
0.956671
0.922048
0.96072
0.92237
0.921375
0.932671
0.947554
0.903251
0.811281
0.957687
0.902136
0.948743
0.945722
0.82321
0.933513
0.952647
0.819797
0.957994
0.919951
0.910722
0.80727
0.940603
0.953501
0.924157
0.959029
0.842866
0.951501
0.807289
0.921642
0.891576
0.899909
0.914872
0.906253
0.948233
0.94293
0.954064
0.928722
0.898847
0.95048
0.953229
0.816046
0.924823
0.938963
0.90711
0.819575
0.922078
0.948285
0.951911
0.935303
0.945257
0.954497
0.959688
0.959089
0.92887
0.901586
0.95279
0.873549
0.954419
0.949679
0.91869
0.948048
0.948808
0.914553
0.883121
0.945685
0.944099
0.940253
0.945069
0.872916
0.946784
0.811754
0.944055
0.950402
0.964618
0.90115
0.948017
0.934915
0.966185
0.899015
0.951829
0.925968
0.897323
0.927712
0.940861
0.963338
0.945715
0.955647
0.90417
0.905815
0.816437
0.844323
0.922465
0.957248
0.923466
0.918234
0.94937
0.946244
0.943983
0.89482
0.952811
0.956242
0.93488
0.921515
0.93457
0.826527
0.897191
0.885555
0.860264
0.949515
0.810787
0.957407
0.923943
0.930832
0.831582
0.946548
0.926243
0.944586
0.952801
0.929853
0.948279
0.948282
0.923841
0.954086
0.833661
0.816027
0.956351
0.92435
0.921968
0.957359
0.869124
0.900316
0.945688
0.955064
0.956818
0.948553
0.81485
0.932462
0.958268
0.926605
0.857685
0.833433
0.94471
0.921537
0.846882
0.926383
0.893896
0.902595
0.937891
0.957975
0.877091
0.954882
0.83082
0.954257
0.947721
0.84394
0.953891
0.945712
0.921228
0.952969
0.88222
0.947843
0.973345
0.813574
0.949047
0.806162
0.813772
0.951729
0.815407
0.831269
0.927335
0.919246
0.943867
0.944483
0.932207
0.937274
0.953562
0.905178
0.953836
0.873369
0.954571
0.963865
0.955478
0.911823
0.919026
0.957442
0.952342
0.956956
0.950479
0.957769
0.886975
0.945612
0.814253
0.95604
0.961921
0.960013
0.927488
0.949419
0.952753
0.919742
0.911477
0.925174
0.806329
0.927844
0.951631
0.955562
0.92489
0.947394
0.949817
0.947241
0.946312
0.950344
0.953844
0.899705
0.80642
0.898388
0.928249
0.945144
0.92549
0.953772
0.902935
0.905489
0.922916
0.897904
0.811193
0.953276
0.857819
0.950429
0.952365
0.863562
0.952755
0.856238
0.88293
0.91214
0.958857
0.954136
0.95477
0.90712
0.846452
0.918886
0.890732
0.974084
0.949156
0.8499
0.947734
0.919668
0.888959
0.948805
0.953636
0.906203
0.946965
0.951795
0.905221
0.936123
0.932261
0.946203
0.86864
0.849098
0.906312
0.881891
0.856523
0.924096
0.938524
0.952244
0.84011
0.885372
0.805098
0.951978
0.946477
0.947165
0.944219
0.919125
0.953291
0.903856
0.889495
0.936105
0.911449
0.951656
0.821776
0.920547
0.952478
0.93755
0.953402
0.91713
0.884414
0.953579
0.921666
0.950238
0.919254
0.964661
0.921394
0.958309
0.940754
0.963839
0.929516
0.818974
0.953511
0.937975
0.934476
0.952595
0.953291
0.950317
0.941527
0.905008
0.882416
0.921724
0.936004
0.862855
0.912962
0.952762
0.906897
0.836028
0.944012
0.861912
0.92159
0.921451
0.949425
0.909823
0.927622
0.95278
0.952128
0.944232
0.911775
0.921348
0.92064
0.854005
0.944585
0.830344
0.926823
0.949555
0.951399
0.944684
0.93542
0.824734
0.849586
0.874406
0.898037
0.944235
0.930485
0.908895
0.950931
0.9517
0.950377
0.952791
0.950041
0.954111
0.822863
0.883223
0.925455
0.918445
0.926069
0.921134
0.939909
0.916593
0.945307
0.923338
0.924118
0.891464
0.953611
0.947481
0.852913
0.945695
0.944706
0.940576
0.945504
0.951475
0.95091
0.956623
0.95009
0.945479
0.899537
0.948904
0.842531
0.95325
0.83892
0.954002
0.94788
0.908303
0.948039
0.956214
0.942988
0.936927
0.900723
0.952051
0.943369
0.898952
0.920224
0.918867
0.953921
0.944273
0.901168
0.946547
0.8124
0.952039
0.894527
0.901359
0.922337
0.911417
0.872403
0.951258
0.831748
0.890011
0.945462
0.952315
0.805622
0.922362
0.945788
0.813009
0.905219
0.948814
0.930609
0.90035
0.95589
0.902031
0.919186
0.819006
0.889983
0.912315
0.936212
0.950474
0.954971
0.952964
0.922769
0.853494
0.921876
0.908544
0.898863
0.954499
0.893888
0.927189
0.945663
0.936014
0.952646
0.963227
0.931678
0.953731
0.949122
0.954162
0.967606
0.950121
0.946636
0.891541
0.906634
0.922088
0.95505
0.81098
0.899677
0.815922
0.923161
0.96048
0.953466
0.953513
0.953687
0.922985
0.923611
0.868726
0.9519
0.813
0.865532
0.898134
0.934934
0.950373
0.917646
0.916909
0.910095
0.949439
0.890853
0.918411
0.948447
0.949807
0.926428
0.928565
0.931816
0.952983
0.850372
0.944055
0.933376
0.839199
0.949782
0.849294
0.901739
0.916102
0.941614
0.941127
0.950169
0.953132
0.920119
0.879296
0.934286
0.923196
0.903027
0.956493
0.904425
0.918514
0.944584
0.927696
0.953871
0.934288
0.944165
0.815979
0.94517
0.930011
0.88784
0.933191
0.946034
0.810027
0.905591
0.926083
0.86346
0.938687
0.949897
0.955141
0.902609
0.926079
0.927177
0.961471
0.856859
0.91106
0.839994
0.938214
0.808596
0.952797
0.951957
0.917033
0.951832
0.91039
0.935192
0.949677
0.864077
0.944936
0.85735
0.910814
0.940328
0.85211
0.898058
0.937026
0.95645
0.955749
0.947891
0.821998
0.865048
0.838609
0.915144
0.905041
0.940666
0.926714
0.914955
0.952665
0.805431
0.926347
0.823184
0.930137
0.923689
0.944137
0.936065
0.942753
0.951358
0.948845
0.947776
0.947606
0.944359
0.91943
0.919192
0.907144
0.955243
0.963705
0.94632
0.935172
0.958046
0.960357
0.920852
0.949523
0.961241
0.945963
0.943807
0.947749
0.927524
0.948282
0.886991
0.883428
0.899608
0.945277
0.922402
0.947099
0.922069
0.831255
0.910021
0.94725
0.903937
0.920775
0.8472
0.948098
0.960634
0.830135
0.895028
0.953523
0.947147
0.868243
0.922669
0.901183
0.953145
0.880026
0.92566
0.954328
0.941468
0.87497
0.953296
0.925668
0.902231
0.967784
0.941916
0.951367
0.863673
0.911613
0.808178
0.826202
0.950808
0.925401
0.907509
0.966056
0.923759
0.956576
0.946906
0.955867
0.957551
0.937655
0.852984
0.948737
0.957118
0.926325
0.962242
0.94932
0.900271
0.861341
0.922051
0.960086
0.931838
0.860378
0.848869
0.814048
0.812472
0.945225
0.944171
0.943168
0.880809
0.807032
0.839275
0.820084
0.944037
0.952166
0.806588
0.943954
0.959342
0.807771
0.93784
0.806285
0.933144
0.923222
0.948406
0.949215
0.913512
0.923734
0.907656
0.95283
0.875756
0.90045
0.942299
0.948733
0.928371
0.859675
0.824083
0.805599
0.938037
0.899443
0.900527
0.951705
0.935916
0.953479
0.944922
0.939654
0.92
0.92821
0.93023
0.919934
0.81604
0.89437
0.920574
0.828807
0.933601
0.946019
0.951752
0.93845
0.902907
0.957796
0.943742
0.919358
0.84254
0.922643
0.943975
0.970361
0.942176
0.947286
0.897421
0.932159
0.959647
0.867848
0.857079
0.952922
0.910973
0.906749
0.827979
0.838428
0.904936
0.909522
0.855305
0.953843
0.945686
0.953931
0.922562
0.947509
0.946302
0.954654
0.949889
0.901467
0.943731
0.93098
0.868485
0.951222
0.943943
0.912236
0.902007
0.943719
0.909027
0.921982
0.900202
0.957259
0.823718
0.904488
0.901944
0.949714
0.974214
0.952571
0.90875
0.949743
0.938718
0.84038
0.9276
0.916868
0.946237
0.920692
0.952544
0.941157
0.904892
0.952476
0.934129
0.951213
0.908468
0.953643
0.938881
0.949337
0.831618
0.911698
0.954459
0.944018
0.884718
0.899722
0.952091
0.822356
0.940121
0.91148
0.952241
0.91311
0.922965
0.834213
0.941176
0.924676
0.925254
0.913902
0.90231
0.913891
0.834596
0.903364
0.953941
0.907038
0.931251
0.920638
0.914963
0.905779
0.928521
0.819662
0.91416
0.953649
0.814164
0.8477
0.932421
0.96907
0.816403
0.954058
0.832452
0.944225
0.920177
0.886265
0.92685
0.953783
0.968192
0.953565
0.930207
0.953644
0.935032
0.965013
0.845492
0.931256
0.959659
0.936643
0.855554
0.880924
0.93136
0.926413
0.918217
0.857284
0.823584
0.951706
0.95557
0.901564
0.890742
0.903993
0.911168
0.915561
0.913714
0.953392
0.945368
0.854968
0.903234
0.962679
0.806118
0.806434
0.962623
0.943811
0.915002
0.943878
0.805954
0.952631
0.807073
0.922542
0.854328
0.91973
0.808411
0.943172
0.805297
0.906155
0.945804
0.944771
0.920213
0.912252
0.903085
0.900301
0.87295
0.918106
0.923303
0.900396
0.926272
0.948422
0.911307
0.921842
0.913573
0.945646
0.91297
0.932525
0.874463
0.946749
0.917138
0.807179
0.970574
0.920571
0.95211
0.91153
0.919407
0.941064
0.944828
0.949493
0.957569
0.946465
0.895248
0.877785
0.82687
0.924254
0.913364
0.906846
0.934016
0.906609
0.915646
0.945981
0.95011
0.881605
0.82096
0.908449
0.945504
0.851329
0.903826
0.90508
0.928579
0.853044
0.944122
0.901295
0.930486
0.903737
0.92282
0.906239
0.933705
0.843445
0.905183
0.903503
0.963082
0.8918
0.933641
0.925369
0.915547
0.910307
0.91252
0.95123
0.931364
0.924338
0.907657
0.931502
0.945772
0.95106
0.944422
0.951199
0.94686
0.931177
0.952677
0.90061
0.958216
0.943822
0.813088
0.946697
0.915969
0.948576
0.947938
0.950545
0.947328
0.951025
0.82579
0.952202
0.946717
0.946168
0.951844
0.86341
0.951457
0.95293
0.911971
0.95278
0.96363
0.952577
0.898491
0.909794
0.961305
0.952951
0.9544
0.820171
0.944177
0.922107
0.960043
0.911076
0.923944
0.90015
0.951353
0.857768
0.828271
0.95576
0.932086
0.867693
0.951005
0.936626
0.957006
0.956843
0.948141
0.912456
0.91604
0.951416
0.951614
0.935953
0.959369
0.957189
0.89956
0.949187
0.936611
0.949753
0.952289
0.949723
0.952904
0.903774
0.951485
0.959588
0.951601
0.950037
0.95248
0.952357
0.904414
0.94966
0.869294
0.876334
0.869957
0.952859
0.944575
0.939053
0.92172
0.94722
0.872876
0.945204
0.871014
0.958856
0.857119
0.94971
0.945456
0.870717
0.902717
0.839854
0.945225
0.907897
0.892433
0.945021
0.947761
0.946137
0.893487
0.960725
0.901013
0.944834
0.956411
0.945684
0.828285
0.883629
0.950721
0.957179
0.831887
0.853164
0.945769
0.905822
0.944651
0.886985
0.887811
0.946653
0.945765
0.946293
0.947464
0.902181
0.933099
0.922099
0.967536
0.952224
0.917546
0.915727
0.951105
0.931683
0.913004
0.907496
0.819783
0.947346
0.908249
0.825105
0.846427
0.90932
0.943999
0.960964
0.894642
0.902623
0.82269
0.925707
0.912525
0.968795
0.943043
0.918071
0.913708
0.950977
0.947598
0.953918
0.955584
0.908601
0.942673
0.910354
0.948731
0.948527
0.912393
0.948285
0.943383
0.912184
0.948835
0.919437
0.961972
0.927374
0.949786
0.944725
0.948031
0.91846
0.948408
0.904985
0.81235
0.920238
0.953363
0.950897
0.920383
0.923864
0.955353
0.947019
0.948125
0.953738
0.947739
0.954462
0.813159
0.899529
0.923006
0.918844
0.917765
0.956844
0.919006
0.936734
0.932332
0.84406
0.945615
0.944835
0.944971
0.915728
0.901244
0.834673
0.90544
0.944561
0.920941
0.820708
0.850568
0.905008
0.903274
0.937167
0.921433
0.947581
0.959657
0.946817
0.809516
0.919731
0.933233
0.906088
0.951631
0.903268
0.889974
0.943569
0.80936
0.914573
0.946258
0.946386
0.945019
0.89962
0.876129
0.827081
0.947492
0.914867
0.946365
0.825139
0.826662
0.841066
0.946789
0.947178
0.951393
0.945736
0.914638
0.848999
0.821134
0.945234
0.970574
0.946584
0.935649
0.938651
0.863146
0.8142
0.902793
0.944877
0.832175
0.922016
0.931143
0.963202
0.947602
0.943175
0.831334
0.953197
0.920122
0.902014
0.930177
0.939696
0.942454
0.908791
0.949065
0.90124
0.959801
0.943262
0.933007
0.923845
0.917407
0.902894
0.9408
0.945076
0.90321
0.945104
0.855278
0.915089
0.852198
0.809145
0.923667
0.953786
0.953997
0.959557
0.951132
0.944971
0.907843
0.889866
0.944916
0.822103
0.935552
0.920543
0.818448
0.947284
0.95479
0.905829
0.855163
0.819093
0.948561
0.956458
0.854276
0.805556
0.851787
0.924679
0.953227
0.902986
0.961714
0.836007
0.899441
0.856218
0.942758
0.914467
0.914638
0.90573
0.835604
0.867019
0.831591
0.959444
0.92626
0.949019
0.849778
0.947927
0.855144
0.850138
0.949673
0.949925
0.915738
0.953167
0.952963
0.961358
0.925288
0.957345
0.951969
0.909499
0.845222
0.85509
0.86016
0.953553
0.953581
0.85774
0.832217
0.820647
0.953907
0.850275
0.834806
0.818593
0.954268
0.840891
0.819524
0.874165
0.954278
0.841302
0.836381
0.921127
0.809346
0.951083
0.908644
0.954666
0.957497
0.863417
0.953212
0.829006
0.955114
0.956729
0.827702
0.95345
0.812133
0.883911
0.926368
0.820275
0.84934
0.870818
0.87151
0.869044
0.952505
0.95041
0.894943
0.955604
0.853474
0.812202
0.819096
0.928422
0.955164
0.827866
0.953062
0.950893
0.877404
0.869675
0.809721
0.955979
0.946249
0.817744
0.913191
0.815883
0.957677
0.951917
0.877072
0.848511
0.914364
0.956828
0.915698
0.92527
0.939627
0.94407
0.952689
0.897287
0.901386
0.888613
0.839345
0.899463
0.88449
0.901086
0.958907
0.92965
0.949539
0.96038
0.953096
0.932601
0.885791
0.949985
0.950451
0.929921
0.911695
0.893722
0.962361
0.942565
0.812605
0.934463
0.962908
0.805358
0.964927
0.943754
0.952158
0.953443
0.860097
0.856798
0.945894
0.951465
0.866329
0.947901
0.910161
0.966526
0.934697
0.895789
0.832831
0.952366
0.90451
0.932444
0.887756
0.876367
0.901712
0.951952
0.951851
0.948906
0.952199
0.928917
0.905873
0.923153
0.915054
0.94645
0.952537
0.870773
0.947652
0.90512
0.957828
0.809712
0.872348
0.94966
0.948479
0.841168
0.946819
0.823488
0.82242
0.886023
0.946826
0.930903
0.937969
0.953763
0.941794
0.931028
0.824833
0.943342
0.829427
0.918115
0.870421
0.815122
0.812989
0.815286
0.944963
0.909045
0.859777
0.956327
0.927211
0.922208
0.906343
0.924685
0.922389
0.823001
0.912767
0.848458
0.876301
0.858876
0.952701
0.929095
0.949043
0.945259
0.891007
0.894923
0.966921
0.951782
0.876211
0.921194
0.91392
0.891983
0.882997
0.921518
0.94996
0.948886
0.903312
0.904885
0.842695
0.916511
0.950843
0.832973
0.934532
0.914327
0.958078
0.892984
0.860547
0.862101
0.933205
0.893561
0.904199
0.827058
0.957222
0.948998
0.918963
0.909667
0.905124
0.949352
0.94427
0.955982
0.949049
0.845986
0.953798
0.932181
0.903042
0.883215
0.927401
0.93039
0.948276
0.920373
0.950607
0.936967
0.935161
0.912521
0.968788
0.917968
0.934945
0.926361
0.925662
0.886696
0.939125
0.887649
0.830508
0.948014
0.945287
0.913987
0.909788
0.94932
0.89015
0.935084
0.952096
0.934226
0.941687
0.93065
0.945474
0.960901
0.948781
0.912111
0.947295
0.902241
0.910659
0.952268
0.950359
0.963078
0.944389
0.912743
0.90318
0.945784
0.824073
0.947386
0.907846
0.957467
0.94611
0.902971
0.966007
0.918068
0.898291
0.947354
0.945462
0.897753
0.949645
0.911058
0.900079
0.959307
0.930949
0.896623
0.948807
0.947412
0.894105
0.918981
0.948124
0.833302
0.956987
0.952405
0.900834
0.952465
0.938856
0.947477
0.95205
0.892781
0.953036
0.927578
0.942165
0.952895
0.905012
0.945969
0.945431
0.950794
0.951679
0.945207
0.946892
0.956447
0.952718
0.826709
0.922028
0.952383
0.909174
0.904178
0.825407
0.821465
0.945584
0.953025
0.926752
0.944999
0.951265
0.827914
0.94626
0.944816
0.945998
0.852342
0.950272
0.947596
0.925707
0.944634
0.955588
0.927501
0.945811
0.917723
0.903797
0.949711
0.952505
0.949277
0.950288
0.953351
0.952731
0.951091
0.952945
0.919474
0.945557
0.823072
0.951285
0.913541
0.932784
0.953669
0.946534
0.955253
0.954394
0.94531
0.919731
0.914898
0.942607
0.946263
0.951265
0.913404
0.955753
0.94641
0.951328
0.812471
0.944557
0.946267
0.905347
0.915311
0.917268
0.953686
0.837801
0.95239
0.951523
0.937551
0.920564
0.948595
0.922446
0.948345
0.946425
0.946431
0.952161
0.94839
0.879096
0.944709
0.951436
0.940856
0.946764
0.922948
0.93457
0.951407
0.813445
0.811257
0.950993
0.959551
0.945643
0.94734
0.958313
0.950735
0.954369
0.910975
0.954591
0.949126
0.946949
0.952405
0.943638
0.952556
0.921435
0.815516
0.929008
0.830112
0.81449
0.866403
0.928665
0.947453
0.949955
0.926175
0.950001
0.924419
0.947716
0.949605
0.813994
0.952549
0.944828
0.919791
0.891386
0.944943
0.950215
0.909396
0.953016
0.949628
0.944555
0.915829
0.914332
0.900165
0.919484
0.907418
0.94125
0.923513
0.936588
0.94658
0.92221
0.948164
0.951036
0.927376
0.880432
0.952773
0.928904
0.951453
0.951469
0.951382
0.944959
0.944708
0.833926
0.926064
0.930975
0.952384
0.951616
0.80578
0.905787
0.860512
0.951589
0.948299
0.94385
0.952175
0.903184
0.948809
0.952874
0.952897
0.923203
0.906942
0.877614
0.912513
0.936378
0.904567
0.892386
0.818786
0.951009
0.952304
0.952247
0.945997
0.95284
0.949337
0.950077
0.841856
0.949753
0.958688
0.949572
0.929128
0.946967
0.90723
0.91326
0.94561
0.952083
0.834318
0.953877
0.916914
0.814246
0.810464
0.953377
0.904589
0.95247
0.820524
0.951105
0.945979
0.921885
0.953792
0.952633
0.918865
0.949219
0.922505
0.814366
0.948381
0.972186
0.923575
0.951875
0.935748
0.94528
0.948963
0.913998
0.907374
0.941622
0.832307
0.905465
0.941714