# vtk DataFile Version 1.0
unstructured grid
ascii
DATASET UNSTRUCTURED_GRID
points 7812 float
-1 0 0
-1 1 0
2 0 0
2 1 0
0 0 0
1 0 0
-1 1 0.1
-1 0 0.1
0 0 0.1
1 0 0.1
2 0 0.1
2 1 0.1
-0.99 0 0
-0.98 0 0
-0.97 0 0
-0.96 0 0
-0.95 0 0
-0.94 0 0
-0.93 0 0
-0.92 0 0
-0.91 0 0
-0.9 0 0
-0.89 0 0
-0.88 0 0
-0.87 0 0
-0.86 0 0
-0.85 0 0
-0.84 0 0
-0.83 0 0
-0.82 0 0
-0.81 0 0
-0.8 0 0
-0.79 0 0
-0.78 0 0
-0.77 0 0
-0.76 0 0
-0.75 0 0
-0.74 0 0
-0.73 0 0
-0.72 0 0
-0.71 0 0
-0.7 0 0
-0.69 0 0
-0.68 0 0
-0.67 0 0
-0.66 0 0
-0.65 0 0
-0.64 0 0
-0.63 0 0
-0.62 0 0
-0.61 0 0
-0.6 0 0
-0.59 0 0
-0.58 0 0
-0.57 0 0
-0.56 0 0
-0.55 0 0
-0.54 0 0
-0.53 0 0
-0.52 0 0
-0.51 0 0
-0.5 0 0
-0.49 0 0
-0.48 0 0
-0.47 0 0
-0.46 0 0
-0.45 0 0
-0.44 0 0
-0.43 0 0
-0.42 0 0
-0.41 0 0
-0.4 0 0
-0.39 0 0
-0.38 0 0
-0.37 0 0
-0.36 0 0
-0.35 0 0
-0.34 0 0
-0.33 0 0
-0.32 0 0
-0.31 0 0
-0.3 0 0
-0.29 0 0
-0.28 0 0
-0.27 0 0
-0.26 0 0
-0.25 0 0
-0.24 0 0
-0.23 0 0
-0.22 0 0
-0.21 0 0
-0.2 0 0
-0.19 0 0
-0.18 0 0
-0.17 0 0
-0.16 0 0
-0.15 0 0
-0.14 0 0
-0.13 0 0
-0.12 0 0
-0.11 0 0
-0.1 0 0
-0.09 0 0
-0.08 0 0
-0.07 0 0
-0.06 0 0
-0.05 0 0
-0.04 0 0
-0.03 0 0
-0.02 0 0
-0.01 0 0
1.01 0 0
1.02 0 0
1.03 0 0
1.04 0 0
1.05 0 0
1.06 0 0
1.07 0 0
1.08 0 0
1.09 0 0
1.1 0 0
1.11 0 0
1.12 0 0
1.13 0 0
1.14 0 0
1.15 0 0
1.16 0 0
1.17 0 0
1.18 0 0
1.19 0 0
1.2 0 0
1.21 0 0
1.22 0 0
1.23 0 0
1.24 0 0
1.25 0 0
1.26 0 0
1.27 0 0
1.28 0 0
1.29 0 0
1.3 0 0
1.31 0 0
1.32 0 0
1.33 0 0
1.34 0 0
1.35 0 0
1.36 0 0
1.37 0 0
1.38 0 0
1.39 0 0
1.4 0 0
1.41 0 0
1.42 0 0
1.43 0 0
1.44 0 0
1.45 0 0
1.46 0 0
1.47 0 0
1.48 0 0
1.49 0 0
1.5 0 0
1.51 0 0
1.52 0 0
1.53 0 0
1.54 0 0
1.55 0 0
1.56 0 0
1.57 0 0
1.58 0 0
1.59 0 0
1.6 0 0
1.61 0 0
1.62 0 0
1.63 0 0
1.64 0 0
1.65 0 0
1.66 0 0
1.67 0 0
1.68 0 0
1.69 0 0
1.7 0 0
1.71 0 0
1.72 0 0
1.73 0 0
1.74 0 0
1.75 0 0
1.76 0 0
1.77 0 0
1.78 0 0
1.79 0 0
1.8 0 0
1.81 0 0
1.82 0 0
1.83 0 0
1.84 0 0
1.85 0 0
1.86 0 0
1.87 0 0
1.88 0 0
1.89 0 0
1.9 0 0
1.91 0 0
1.92 0 0
1.93 0 0
1.94 0 0
1.95 0 0
1.96 0 0
1.97 0 0
1.98 0 0
1.99 0 0
2 0.010289 0
2 0.0215307 0
2 0.0338135 0
2 0.0472336 0
2 0.0618965 0
2 0.0779171 0
2 0.0954213 0
2 0.114546 0
2 0.135442 0
2 0.158274 0
2 0.183219 0
2 0.210474 0
2 0.240253 0
2 0.27279 0
2 0.308339 0
2 0.347181 0
2 0.389619 0
2 0.435987 0
2 0.486649 0
2 0.542002 0
2 0.602481 0
2 0.66856 0
2 0.740758 0
2 0.819642 0
2 0.90583 0
1.9 1 0
1.8 1 0
1.7 1 0
1.6 1 0
1.5 1 0
1.4 1 0
1.3 1 0
1.2 1 0
1.1 1 0
1 1 0
0.9 1 0
0.8 1 0
0.7 1 0
0.6 1 0
0.5 1 0
0.4 1 0
0.3 1 0
0.2 1 0
0.1 1 0
3.69793e-12 1 0
-0.1 1 0
-0.2 1 0
-0.3 1 0
-0.4 1 0
-0.5 1 0
-0.6 1 0
-0.7 1 0
-0.8 1 0
-0.9 1 0
-1 0.90583 0
-1 0.819642 0
-1 0.740758 0
-1 0.66856 0
-1 0.602481 0
-1 0.542002 0
-1 0.486649 0
-1 0.435987 0
-1 0.389619 0
-1 0.347181 0
-1 0.308339 0
-1 0.27279 0
-1 0.240253 0
-1 0.210474 0
-1 0.183219 0
-1 0.158274 0
-1 0.135442 0
-1 0.114546 0
-1 0.0954213 0
-1 0.0779171 0
-1 0.0618965 0
-1 0.0472336 0
-1 0.0338135 0
-1 0.0215307 0
-1 0.010289 0
0.00921362 0.00379763 0
0.0184561 0.00752451 0
0.0277268 0.0111804 0
0.0370253 0.0147652 0
0.0463511 0.0182786 0
0.0557034 0.0217203 0
0.0650819 0.0250903 0
0.074486 0.0283883 0
0.083915 0.0316141 0
0.0933685 0.0347675 0
0.102846 0.0378484 0
0.112347 0.0408565 0
0.12187 0.0437917 0
0.131416 0.0466538 0
0.140983 0.0494427 0
0.150572 0.0521581 0
0.160181 0.0547999 0
0.16981 0.0573681 0
0.179458 0.0598623 0
0.189125 0.0622825 0
0.198811 0.0646285 0
0.208514 0.0669001 0
0.218234 0.0690974 0
0.227971 0.07122 0
0.237724 0.073268 0
0.247493 0.0752411 0
0.257276 0.0771393 0
0.267073 0.0789625 0
0.276884 0.0807105 0
0.286708 0.0823832 0
0.296545 0.0839806 0
0.306394 0.0855025 0
0.316254 0.0869488 0
0.326125 0.0883196 0
0.336006 0.0896146 0
0.345896 0.0908339 0
0.355796 0.0919773 0
0.365704 0.0930447 0
0.375621 0.0940362 0
0.385544 0.0949517 0
0.395474 0.095791 0
0.40541 0.0965542 0
0.415352 0.0972412 0
0.425299 0.097852 0
0.43525 0.0983865 0
0.445205 0.0988447 0
0.455164 0.0992266 0
0.465125 0.0995321 0
0.475088 0.0997613 0
0.485052 0.0999141 0
0.495017 0.0999904 0
0.504983 0.0999904 0
0.514948 0.0999141 0
0.524912 0.0997613 0
0.534875 0.0995321 0
0.544836 0.0992266 0
0.554795 0.0988447 0
0.56475 0.0983865 0
0.574701 0.097852 0
0.584648 0.0972412 0
0.59459 0.0965542 0
0.604526 0.095791 0
0.614456 0.0949517 0
0.624379 0.0940362 0
0.634296 0.0930447 0
0.644204 0.0919773 0
0.654104 0.0908339 0
0.663994 0.0896146 0
0.673875 0.0883196 0
0.683746 0.0869488 0
0.693606 0.0855025 0
0.703455 0.0839806 0
0.713292 0.0823832 0
0.723116 0.0807105 0
0.732927 0.0789625 0
0.742724 0.0771393 0
0.752508 0.0752411 0
0.762276 0.073268 0
0.772029 0.07122 0
0.781766 0.0690974 0
0.791486 0.0669001 0
0.801189 0.0646285 0
0.810875 0.0622825 0
0.820542 0.0598623 0
0.83019 0.0573681 0
0.839819 0.0547999 0
0.849428 0.0521581 0
0.859017 0.0494427 0
0.868584 0.0466538 0
0.87813 0.0437917 0
0.887653 0.0408565 0
0.897154 0.0378484 0
0.906631 0.0347675 0
0.916085 0.0316141 0
0.925514 0.0283883 0
0.934918 0.0250903 0
0.944297 0.0217203 0
0.953649 0.0182786 0
0.962975 0.0147652 0
0.972273 0.0111804 0
0.981544 0.00752451 0
0.990786 0.00379763 0
-1 0.90583 0.1
-1 0.819642 0.1
-1 0.740758 0.1
-1 0.66856 0.1
-1 0.602481 0.1
-1 0.542002 0.1
-1 0.486649 0.1
-1 0.435987 0.1
-1 0.389619 0.1
-1 0.347181 0.1
-1 0.308339 0.1
-1 0.27279 0.1
-1 0.240253 0.1
-1 0.210474 0.1
-1 0.183219 0.1
-1 0.158274 0.1
-1 0.135442 0.1
-1 0.114546 0.1
-1 0.0954213 0.1
-1 0.0779171 0.1
-1 0.0618965 0.1
-1 0.0472336 0.1
-1 0.0338135 0.1
-1 0.0215307 0.1
-1 0.010289 0.1
-0.99 0 0.1
-0.98 0 0.1
-0.97 0 0.1
-0.96 0 0.1
-0.95 0 0.1
-0.94 0 0.1
-0.93 0 0.1
-0.92 0 0.1
-0.91 0 0.1
-0.9 0 0.1
-0.89 0 0.1
-0.88 0 0.1
-0.87 0 0.1
-0.86 0 0.1
-0.85 0 0.1
-0.84 0 0.1
-0.83 0 0.1
-0.82 0 0.1
-0.81 0 0.1
-0.8 0 0.1
-0.79 0 0.1
-0.78 0 0.1
-0.77 0 0.1
-0.76 0 0.1
-0.75 0 0.1
-0.74 0 0.1
-0.73 0 0.1
-0.72 0 0.1
-0.71 0 0.1
-0.7 0 0.1
-0.69 0 0.1
-0.68 0 0.1
-0.67 0 0.1
-0.66 0 0.1
-0.65 0 0.1
-0.64 0 0.1
-0.63 0 0.1
-0.62 0 0.1
-0.61 0 0.1
-0.6 0 0.1
-0.59 0 0.1
-0.58 0 0.1
-0.57 0 0.1
-0.56 0 0.1
-0.55 0 0.1
-0.54 0 0.1
-0.53 0 0.1
-0.52 0 0.1
-0.51 0 0.1
-0.5 0 0.1
-0.49 0 0.1
-0.48 0 0.1
-0.47 0 0.1
-0.46 0 0.1
-0.45 0 0.1
-0.44 0 0.1
-0.43 0 0.1
-0.42 0 0.1
-0.41 0 0.1
-0.4 0 0.1
-0.39 0 0.1
-0.38 0 0.1
-0.37 0 0.1
-0.36 0 0.1
-0.35 0 0.1
-0.34 0 0.1
-0.33 0 0.1
-0.32 0 0.1
-0.31 0 0.1
-0.3 0 0.1
-0.29 0 0.1
-0.28 0 0.1
-0.27 0 0.1
-0.26 0 0.1
-0.25 0 0.1
-0.24 0 0.1
-0.23 0 0.1
-0.22 0 0.1
-0.21 0 0.1
-0.2 0 0.1
-0.19 0 0.1
-0.18 0 0.1
-0.17 0 0.1
-0.16 0 0.1
-0.15 0 0.1
-0.14 0 0.1
-0.13 0 0.1
-0.12 0 0.1
-0.11 0 0.1
-0.1 0 0.1
-0.09 0 0.1
-0.08 0 0.1
-0.07 0 0.1
-0.06 0 0.1
-0.05 0 0.1
-0.04 0 0.1
-0.03 0 0.1
-0.02 0 0.1
-0.01 0 0.1
0.00921362 0.00379763 0.1
0.0184561 0.00752451 0.1
0.0277268 0.0111804 0.1
0.0370253 0.0147652 0.1
0.0463511 0.0182786 0.1
0.0557034 0.0217203 0.1
0.0650819 0.0250903 0.1
0.074486 0.0283883 0.1
0.083915 0.0316141 0.1
0.0933685 0.0347675 0.1
0.102846 0.0378484 0.1
0.112347 0.0408565 0.1
0.12187 0.0437917 0.1
0.131416 0.0466538 0.1
0.140983 0.0494427 0.1
0.150572 0.0521581 0.1
0.160181 0.0547999 0.1
0.16981 0.0573681 0.1
0.179458 0.0598623 0.1
0.189125 0.0622825 0.1
0.198811 0.0646285 0.1
0.208514 0.0669001 0.1
0.218234 0.0690974 0.1
0.227971 0.07122 0.1
0.237724 0.073268 0.1
0.247493 0.0752411 0.1
0.257276 0.0771393 0.1
0.267073 0.0789625 0.1
0.276884 0.0807105 0.1
0.286708 0.0823832 0.1
0.296545 0.0839806 0.1
0.306394 0.0855025 0.1
0.316254 0.0869488 0.1
0.326125 0.0883196 0.1
0.336006 0.0896146 0.1
0.345896 0.0908339 0.1
0.355796 0.0919773 0.1
0.365704 0.0930447 0.1
0.375621 0.0940362 0.1
0.385544 0.0949517 0.1
0.395474 0.095791 0.1
0.40541 0.0965542 0.1
0.415352 0.0972412 0.1
0.425299 0.097852 0.1
0.43525 0.0983865 0.1
0.445205 0.0988447 0.1
0.455164 0.0992266 0.1
0.465125 0.0995321 0.1
0.475088 0.0997613 0.1
0.485052 0.0999141 0.1
0.495017 0.0999904 0.1
0.504983 0.0999904 0.1
0.514948 0.0999141 0.1
0.524912 0.0997613 0.1
0.534875 0.0995321 0.1
0.544836 0.0992266 0.1
0.554795 0.0988447 0.1
0.56475 0.0983865 0.1
0.574701 0.097852 0.1
0.584648 0.0972412 0.1
0.59459 0.0965542 0.1
0.604526 0.095791 0.1
0.614456 0.0949517 0.1
0.624379 0.0940362 0.1
0.634296 0.0930447 0.1
0.644204 0.0919773 0.1
0.654104 0.0908339 0.1
0.663994 0.0896146 0.1
0.673875 0.0883196 0.1
0.683746 0.0869488 0.1
0.693606 0.0855025 0.1
0.703455 0.0839806 0.1
0.713292 0.0823832 0.1
0.723116 0.0807105 0.1
0.732927 0.0789625 0.1
0.742724 0.0771393 0.1
0.752508 0.0752411 0.1
0.762276 0.073268 0.1
0.772029 0.07122 0.1
0.781766 0.0690974 0.1
0.791486 0.0669001 0.1
0.801189 0.0646285 0.1
0.810875 0.0622825 0.1
0.820542 0.0598623 0.1
0.83019 0.0573681 0.1
0.839819 0.0547999 0.1
0.849428 0.0521581 0.1
0.859017 0.0494427 0.1
0.868584 0.0466538 0.1
0.87813 0.0437917 0.1
0.887653 0.0408565 0.1
0.897154 0.0378484 0.1
0.906631 0.0347675 0.1
0.916085 0.0316141 0.1
0.925514 0.0283883 0.1
0.934918 0.0250903 0.1
0.944297 0.0217203 0.1
0.953649 0.0182786 0.1
0.962975 0.0147652 0.1
0.972273 0.0111804 0.1
0.981544 0.00752451 0.1
0.990786 0.00379763 0.1
1.01 0 0.1
1.02 0 0.1
1.03 0 0.1
1.04 0 0.1
1.05 0 0.1
1.06 0 0.1
1.07 0 0.1
1.08 0 0.1
1.09 0 0.1
1.1 0 0.1
1.11 0 0.1
1.12 0 0.1
1.13 0 0.1
1.14 0 0.1
1.15 0 0.1
1.16 0 0.1
1.17 0 0.1
1.18 0 0.1
1.19 0 0.1
1.2 0 0.1
1.21 0 0.1
1.22 0 0.1
1.23 0 0.1
1.24 0 0.1
1.25 0 0.1
1.26 0 0.1
1.27 0 0.1
1.28 0 0.1
1.29 0 0.1
1.3 0 0.1
1.31 0 0.1
1.32 0 0.1
1.33 0 0.1
1.34 0 0.1
1.35 0 0.1
1.36 0 0.1
1.37 0 0.1
1.38 0 0.1
1.39 0 0.1
1.4 0 0.1
1.41 0 0.1
1.42 0 0.1
1.43 0 0.1
1.44 0 0.1
1.45 0 0.1
1.46 0 0.1
1.47 0 0.1
1.48 0 0.1
1.49 0 0.1
1.5 0 0.1
1.51 0 0.1
1.52 0 0.1
1.53 0 0.1
1.54 0 0.1
1.55 0 0.1
1.56 0 0.1
1.57 0 0.1
1.58 0 0.1
1.59 0 0.1
1.6 0 0.1
1.61 0 0.1
1.62 0 0.1
1.63 0 0.1
1.64 0 0.1
1.65 0 0.1
1.66 0 0.1
1.67 0 0.1
1.68 0 0.1
1.69 0 0.1
1.7 0 0.1
1.71 0 0.1
1.72 0 0.1
1.73 0 0.1
1.74 0 0.1
1.75 0 0.1
1.76 0 0.1
1.77 0 0.1
1.78 0 0.1
1.79 0 0.1
1.8 0 0.1
1.81 0 0.1
1.82 0 0.1
1.83 0 0.1
1.84 0 0.1
1.85 0 0.1
1.86 0 0.1
1.87 0 0.1
1.88 0 0.1
[...]
CELL_DATA 7425
SCALARS rho float
LOOKUP_TABLE default
0.60211
0.805829
0.823974
0.831061
0.80192
0.823367
0.82396
0.819762
0.81946
0.743625
0.864993
0.811362
0.819654
0.830917
0.806073
0.821952
0.800939
0.819467
0.804117
0.770206
0.834638
0.823009
0.730179
0.831639
0.804561
0.715533
0.834477
0.851831
0.801064
0.809665
0.822505
0.723176
0.804276
0.664052
0.553296
0.831607
0.804116
0.81976
0.812433
0.83125
0.726335
0.718335
0.793458
0.683358
0.604726
0.7521
0.803361
0.819618
0.690574
0.717796
0.74692
0.80595
0.813307
0.801339
0.702415
0.669696
0.826949
0.80173
0.743524
0.708054
0.724016
0.808532
0.819463
0.801528
0.799717
0.8223
0.598851
0.777316
0.669717
0.809637
0.806157
0.80355
0.884379
0.8221
0.81178
0.819504
0.805855
0.801285
0.819445
0.758602
0.821034
0.808123
0.816221
0.790475
0.838218
0.803328
0.588619
0.83303
0.565355
0.850824
0.686546
0.734972
0.848682
0.803772
0.822121
0.765203
0.837946
0.789921
0.829416
0.804989
0.812848
0.739105
0.80389
0.831506
0.609688
0.812337
0.827967
0.716395
0.820322
0.80157
0.821479
0.786679
0.791397
0.813302
0.793213
0.78835
0.83451
0.803426
0.68903
0.682201
0.805845
0.781136
0.819468
0.79213
0.860946
0.841816
0.808615
0.807508
0.670281
0.538148
0.819846
0.666995
0.547003
0.871839
0.69159
0.802021
0.812082
0.730203
0.596468
0.73462
0.733087
0.811675
0.815785
0.699135
0.8051
0.781543
0.579127
0.79338
0.78351
0.831384
0.819864
0.686474
0.805253
0.745239
0.699822
0.803938
0.81174
0.833832
0.801048
0.673825
0.803666
0.684435
0.803361
0.833213
0.824732
0.802922
0.819462
0.788468
0.807246
0.803047
0.824108
0.807041
0.795955
0.801521
0.801608
0.748348
0.806076
0.765636
0.614628
0.680558
0.801999
0.796771
0.880874
0.834824
0.680605
0.82696
0.800973
0.829774
0.802123
0.819408
0.819372
0.803811
0.807908
0.699594
0.820316
0.823494
0.773017
0.801087
0.864484
0.808787
0.813585
0.817623
0.624417
0.841845
0.587483
0.56249
0.608069
0.633117
0.830136
0.880452
0.808399
0.79959
0.843426
0.819559
0.821431
0.825009
0.820442
0.646798
0.647691
0.819585
0.569255
0.612548
0.695251
0.816695
0.81958
0.819505
0.836277
0.819729
0.868132
0.7015
0.836969
0.72664
0.806172
0.804605
0.802872
0.721165
0.730654
0.6288
0.690856
0.86545
0.879845
0.811363
0.808601
0.803036
0.813472
0.728277
0.825781
0.802769
0.829376
0.796071
0.816118
0.719709
0.819581
0.827688
0.748468
0.548533
0.801739
0.736941
0.845059
0.819746
0.724506
0.820674
0.820218
0.851774
0.815279
0.806762
0.803799
0.829438
0.862705
0.808036
0.628282
0.851192
0.814953
0.806453
0.831104
0.839698
0.819131
0.825358
0.79504
0.820375
0.870647
0.851788
0.829326
0.839767
0.803757
0.821961
0.803547
0.760596
0.713792
0.595153
0.688059
0.80653
0.8194
0.821039
0.858256
0.781952
0.654425
0.830751
0.554694
0.778196
0.803222
0.655152
0.672074
0.647789
0.820464
0.819455
0.819556
0.818484
0.830411
0.776299
0.81237
0.803411
0.819735
0.843512
0.871363
0.836656
0.804072
0.684452
0.79952
0.836632
0.699304
0.801046
0.802818
0.866409
0.821916
0.604751
0.819393
0.749106
0.855786
0.739539
0.816035
0.908078
0.802392
0.797573
0.668098
0.644831
0.704514
0.785816
0.830184
0.820262
0.819571
0.887188
0.861123
0.802023
0.802363
0.826937
0.746588
0.803728
0.88067
0.80197
0.807521
0.803095
0.803089
0.819079
0.820836
0.821304
0.650372
0.831977
0.668167
0.810048
0.653342
0.806694
0.802908
0.84195
0.73914
0.817217
0.813325
0.821783
0.801527
0.802992
0.812224
0.714102
0.825389
0.819456
0.819043
0.801367
0.738693
0.573628
0.807287
0.817369
0.803706
0.819655
0.796811
0.665155
0.84807
0.819361
0.804516
0.789383
0.819461
0.806613
0.805047
0.82123
0.808388
0.826546
0.772311
0.815621
0.808759
0.57666
0.805697
0.648793
0.84087
0.645545
0.819897
0.879238
0.623195
0.81976
0.754334
0.805241
0.874578
0.564438
0.827052
0.826356
0.804143
0.82951
0.812844
0.827431
0.834038
0.828577
0.748045
0.831146
0.762211
0.812229
0.79569
0.79726
0.76348
0.806563
0.802548
0.819001
0.759908
0.806432
0.616602
0.625925
0.704249
0.818991
0.846709
0.866633
0.833004
0.80098
0.819392
0.806736
0.822294
0.688437
0.803037
0.747896
0.826584
0.81979
0.808306
0.703369
0.733879
0.555353
0.616167
0.803474
0.621546
0.796893
0.766762
0.773635
0.724478
0.767278
0.772622
0.815373
0.820281
0.823966
0.817901
0.722207
0.635484
0.841801
0.811604
0.7853
0.812643
0.803989
0.839597
0.731262
0.857436
0.765258
0.739674
0.770065
0.816627
0.56591
0.801131
0.84438
0.815313
0.819613
0.815482
0.801697
0.78557
0.838101
0.803625
0.845673
0.724938
0.700656
0.801856
0.798804
0.826087
0.71771
0.85042
0.803092
0.820984
0.800934
0.781511
0.81098
0.606404
0.685395
0.641425
0.818619
0.80687
0.829963
0.753919
0.811487
0.820194
0.824665
0.801385
0.739833
0.801583
0.817071
0.803689
0.719117
0.819516
0.823128
0.841742
0.817166
0.829147
0.863806
0.859034
0.751153
0.615031
0.840196
0.807768
0.845402
0.819823
0.824736
0.81951
0.81962
0.683363
0.808144
0.813419
0.819621
0.79536
0.813573
0.807214
0.864174
0.801052
0.819547
0.820116
0.873448
0.609193
0.819434
0.845352
0.884314
0.550938
0.821335
0.831916
0.797444
0.815636
0.798556
0.869245
0.815515
0.834709
0.815546
0.630016
0.803211
0.804926
0.706112
0.854904
0.759986
0.803011
0.819609
0.819029
0.863306
0.796669
0.83623
0.837857
0.789328
0.826946
0.845051
0.80218
0.813096
0.809575
0.80616
0.819277
0.803131
0.847651
0.770736
0.810551
0.804084
0.818354
0.73084
0.819601
0.822951
0.757209
0.81951
0.819947
0.830054
0.828879
0.803
0.802364
0.852327
0.768564
0.828004
0.846714
0.805356
0.539709
0.819362
0.831857
0.854153
0.817695
0.803493
0.809867
0.856853
0.78101
0.80332
0.803316
0.819617
0.738653
0.804628
0.831709
0.810997
0.796395
0.798304
0.845879
0.807462
0.847273
0.802496
0.828158
0.818614
0.804955
0.843912
0.819325
0.692475
0.823314
0.807973
0.818687
0.906592
0.802369
0.819835
0.80188
0.802142
0.821194
0.802239
0.804169
0.78426
0.747836
0.811628
0.819622
0.762836
0.796075
0.826958
0.813905
0.826358
0.808019
0.829547
0.876517
0.834052
0.610435
0.714781
0.843556
0.822064
0.846606
0.819972
0.852209
0.809963
0.815438
0.801562
0.841191
0.86285
0.855031
0.739062
0.819764
0.82606
0.743561
0.81978
0.777573
0.801744
0.740002
0.821083
0.834261
0.824417
0.865679
0.819691
0.819464
0.815624
0.81992
0.838415
0.813151
0.800864
0.811126
0.744955
0.817841
0.775014
0.83573
0.815404
0.647621
0.779905
0.813538
0.801362
0.824223
0.805002
0.819955
0.822075
0.806404
0.82374
0.804912
0.80863
0.619807
0.849552
0.828901
0.830406
0.817471
0.803869
0.708386
0.809546
0.908274
0.819087
0.80374
0.818775
0.784506
0.81008
0.818834
0.8255
0.81561
0.819444
0.821239
0.6734
0.782481
0.770174
0.818982
0.807123
0.803717
0.632073
0.808465
0.805005
0.716806
0.839191
0.821973
0.80408
0.809887
0.801234
0.821892
0.817201
0.819468
0.819661
0.715614
0.834598
0.801457
0.810205
0.844904
0.820063
0.82119
0.802312
0.754646
0.827441
0.79197
0.825573
0.791197
0.808565
0.825211
0.739648
0.821405
0.676734
0.873555
0.711476
0.847595
0.805569
0.876372
0.795376
0.803008
0.824963
0.838234
0.839874
0.828903
0.824223
0.819673
0.805371
0.805247
0.809744
0.737684
0.82879
0.800925
0.718351
0.83346
0.678097
0.802616
0.864044
0.806514
0.717221
0.79919
0.819765
0.696393
0.786298
0.823752
0.834523
0.812242
0.661961
0.739809
0.813353
0.80408
0.819637
0.802862
0.742482
0.819538
0.820843
0.819168
0.779242
0.803801
0.805376
0.806486
0.574243
0.819491
0.835575
0.601233
0.820443
0.821136
0.820107
0.822962
0.819881
0.828379
0.801642
0.796343
0.771466
0.824466
0.831135
0.826627
0.838045
0.769753
0.814787
0.736383
0.774266
0.811337
0.825315
0.819378
0.801703
0.861609
0.819616
0.805028
0.815543
0.820988
0.82044
0.839661
0.81999
0.819324
0.812865
0.819607
0.802893
0.82517
0.80461
0.826883
0.819496
0.596654
0.819511
0.837626
0.861385
0.839833
0.605174
0.82166
0.807912
0.532321
0.684232
0.670314
0.837079
0.811222
0.812527
0.819057
0.803494
0.821628
0.812704
0.556112
0.701508
0.819689
0.807498
0.820692
0.804145
0.811368
0.817246
0.824314
0.801337
0.708608
0.85955
0.803457
0.8157
0.819371
0.762152
0.615858
0.836149
0.815381
0.741494
0.803037
0.809301
0.619612
0.829257
0.819934
0.831345
0.823321
0.828824
0.80553
0.732404
0.652292
0.575953
0.829135
0.8114
0.783845
0.819461
0.784511
0.822571
0.874567
0.766596
0.82579
0.819012
0.82953
0.884726
0.819877
0.817872
0.804252
0.814739
0.702988
0.831792
0.801751
0.813121
0.80311
0.78608
0.856366
0.826094
0.842583
0.825707
0.757583
0.759347
0.806033
0.822488
0.803446
0.806063
0.803641
0.780629
0.819992
0.76651
0.823744
0.670248
0.819561
0.803938
0.734124
0.825787
0.82177
0.74498
0.802053
0.762058
0.885244
0.801418
0.819657
0.767521
0.802761
0.819845
0.804668
0.603126
0.822807
0.802053
0.806109
0.820002
0.829136
0.762483
0.808124
0.844622
0.829612
0.815703
0.838919
0.671921
0.706751
0.819638
0.749042
0.826332
0.775356
0.819632
0.803258
0.813674
0.756651
0.795508
0.769456
0.815335
0.803451
0.640134
0.78067
0.800097
0.8523
0.819906
0.832205
0.554003
0.826253
0.787066
0.860751
0.8017
0.819712
0.802927
0.789737
0.801002
0.829146
0.837981
0.823602
0.821763
0.701399
0.77854
0.819665
0.806188
0.816468
0.804633
0.695301
0.796435
0.805248
0.813248
0.829221
0.853002
0.835183
0.819493
0.801847
0.806406
0.803912
0.782249
0.62312
0.80492
0.739819
0.671125
0.826572
0.800939
0.777829
0.802234
0.75871
0.787057
0.818276
0.824175
0.807114
0.820898
0.820928
0.823283
0.819477
0.811808
0.717982
0.706261
0.649518
0.832783
0.871131
0.818122
0.843185
0.850166
0.865236
0.745352
0.820513
0.864685
0.814228
0.819745
0.819638
0.739804
0.817487
0.809491
0.808885
0.544412
0.819534
0.765172
0.819327
0.81471
0.804152
0.698692
0.819329
0.621918
0.826816
0.804381
0.824799
0.857318
0.804086
0.796695
0.825183
0.81726
0.80729
0.766091
0.546818
0.825066
0.803985
0.831865
0.829492
0.806929
0.80791
0.837115
0.72847
0.581871
0.887267
0.804609
0.820824
0.805099
0.70454
0.800902
0.802346
0.820374
0.745782
0.655098
0.884243
0.721086
0.839578
0.817938
0.836139
0.845325
0.796901
0.805508
0.819342
0.85456
0.743358
0.871996
0.819711
0.576805
0.805128
0.748507
0.855153
0.765955
0.804972
0.804649
0.80173
0.802694
0.814653
0.819699
0.858438
0.808562
0.803187
0.801887
0.802156
0.819074
0.821737
0.803001
0.819331
0.851619
0.803371
0.787423
0.802767
0.842247
0.736927
0.819535
0.819462
0.686089
0.72008
0.806603
0.826805
0.806529
0.543753
0.859796
0.818757
0.835695
0.806119
0.803825
0.802286
0.790517
0.598197
0.805317
0.821131
0.837401
0.824869
0.819593
0.802904
0.754242
0.802534
0.771979
0.789379
0.801616
0.79254
0.751539
0.8029
0.813829
0.816195
0.834749
0.852124
0.573219
0.844663
0.819724
0.821717
0.804043
0.823599
0.817931
0.895415
0.803419
0.871073
0.806666
0.765429
0.863649
0.803101
0.801014
0.827815
0.669018
0.654069
0.803996
0.80463
0.672661
0.662803
0.800662
0.827729
0.819513
0.826657
0.740352
0.820384
0.819169
0.829878
0.820952
0.812847
0.819747
0.759243
0.80642
0.820673
0.818188
0.683674
0.581197
0.819786
0.658338
0.72747
0.570859
0.844115
0.802323
0.564372
0.612381
0.830044
0.908507
0.822743
0.661057
0.819693
0.790376
0.803803
0.788191
0.823442
0.814361
0.790096
0.825058
0.805573
0.60261
0.822473
0.771432
0.820771
0.693201
0.826289
0.793725
0.819583
0.802522
0.671253
0.84555
0.809738
0.809289
0.549089
0.821681
0.802436
0.855533
0.707065
0.821895
0.624547
0.73184
0.803418
0.800347
0.743082
0.72433
0.710705
0.555482
0.645266
0.802566
0.558552
0.826669
0.61762
0.761692
0.686279
0.64555
0.574294
0.750355
0.803461
0.708868
0.825507
0.802435
0.804757
0.765604
0.890626
0.801442
0.828316
0.80421
0.819568
0.712423
0.809977
0.741982
0.826051
0.887108
0.836361
0.753216
0.826772
0.774941
0.880963
0.804934
0.763057
0.853029
0.781121
0.800689
0.808086
0.762685
0.753236
0.692761
0.805766
0.803449
0.822287
0.836632
0.621373
0.810681
0.563544
0.676424
0.644281
0.82116
0.825239
0.814621
0.804713
0.625818
0.873708
0.803037
0.803242
0.865351
0.819294
0.775525
0.819021
0.802834
0.822574
0.803399
0.723064
0.805318
0.676987
0.801135
0.808131
0.802379
0.647672
0.814956
0.813394
0.727528
0.820255
0.569125
0.591139
0.804977
0.703361
0.731403
0.585536
0.732202
0.819517
0.694708
0.775875
0.712285
0.815632
0.678369
0.766476
0.808099
0.815892
0.667628
0.802652
0.89595
0.798086
0.821674
0.610692
0.701415
0.805607
0.819604
0.819594
0.853602
0.818896
0.805242
0.804589
0.803933
0.721156
0.7142
0.627361
0.776528
0.577612
0.720941
0.815527
0.819741
0.808673
0.801717
0.663541
0.81453
0.804474
0.574434
0.57139
0.75143
0.804279
0.810303
0.566708
0.799684
0.58515
0.73323
0.620165
0.815159
0.80425
0.610416
0.619774
0.86949
0.811848
0.769727
0.726584
0.644129
0.663706
0.699961
0.820797
0.764111
0.765742
0.634994
0.759185
0.81463
0.820518
0.81919
0.820661
0.869156
0.760487
0.823355
0.804368
0.853362
0.819726
0.803276
0.819331
0.718753
0.81763
0.816792
0.819993
0.816088
0.82062
0.803792
0.822447
0.815443
0.814926
0.821851
0.800944
0.821247
0.82344
0.675647
0.823134
0.870046
0.822742
0.794424
0.654799
0.860577
0.823321
0.828735
0.801862
0.818019
0.757926
0.854804
0.619282
0.737973
0.810777
0.820791
0.804623
0.803949
0.835358
0.807265
0.80705
0.82051
0.784404
0.841471
0.84455
0.818929
0.672581
0.650205
0.820855
0.821331
0.793215
0.852009
0.849484
0.813598
0.818386
0.782085
0.81948
0.822407
0.819563
0.8233
0.815691
0.820913
0.853348
0.821027
0.819393
0.822285
0.822388
0.787047
0.818947
0.806538
0.806983
0.806893
0.82313
0.818154
0.792288
0.754095
0.818694
0.807138
0.814394
0.807255
0.859455
0.80543
0.819328
0.819195
0.807227
0.666855
0.804654
0.819297
0.817578
0.811297
0.819388
0.819309
0.819402
0.811084
0.865886
0.54313
0.819459
0.844216
0.819092
0.803888
0.809845
0.820327
0.842526
0.802773
0.803962
0.815479
0.674572
0.819517
0.810363
0.80999
0.81873
0.819332
0.819367
0.819466
0.548766
0.813242
0.72877
0.886837
0.824981
0.731926
0.695509
0.820578
0.805295
0.820871
0.655302
0.802985
0.819464
0.656585
0.8022
0.805144
0.81818
0.809295
0.858819
0.810735
0.618386
0.802688
0.775963
0.812181
0.890024
0.806792
0.816405
0.821191
0.834493
0.819476
0.826487
0.839219
0.644651
0.806478
0.6643
0.819561
0.819504
0.706704
0.819438
0.809081
0.708688
0.818967
0.7131
0.862985
0.785605
0.819871
0.819559
0.819382
0.679319
0.819553
0.641835
0.801979
0.793949
0.82628
0.820451
0.723282
0.767548
0.833485
0.818852
0.823923
0.82603
0.819481
0.829132
0.801603
0.567339
0.755014
0.764389
0.729362
0.840578
0.825126
0.835968
0.78156
0.803386
0.819514
0.819596
0.819571
0.777758
0.577998
0.803751
0.566022
0.811627
0.827005
0.801989
0.804449
0.815791
0.807021
0.786963
0.735741
0.819463
0.860856
0.81717
0.801352
0.735857
0.811722
0.790563
0.835986
0.615022
0.797222
0.810768
0.801091
0.697609
0.819156
0.814909
0.860298
0.582469
0.808343
0.803774
0.818781
0.636155
0.819413
0.803827
0.803971
0.803624
0.819438
0.819457
0.820932
0.819498
0.712555
0.805356
0.803681
0.81955
0.896891
0.819425
0.778376
0.843188
0.800034
0.803523
0.613001
0.819514
0.803883
0.828353
0.803261
0.867944
0.818398
0.856185
0.802704
0.824848
0.780493
0.574794
0.759035
0.798479
0.808723
0.814794
0.819471
0.571513
0.863317
0.861109
0.773941
0.759526
0.738501
0.814895
0.85081
0.819511
0.81556
0.819542
0.805022
0.725642
0.804189
0.801233
0.764703
0.828063
0.827007
0.863352
0.82059
0.819582
0.663411
0.809766
0.819551
0.802617
0.777971
0.818947
0.803485
0.818913
0.830554
0.799714
0.805451
0.802759
0.819043
0.84189
0.804752
0.801128
0.804101
0.766522
0.824222
0.582089
0.869737
0.804443
0.562724
0.805306
0.806544
0.82192
0.647695
0.618383
0.803565
0.806158
0.803015
0.862295
0.781397
0.818829
0.803609
0.869551
0.80549
0.805198
0.828925
0.820182
0.822689
0.825364
0.824528
0.868853
0.734845
0.854002
0.821855
0.662426
0.80444
0.803902
0.804382
0.825318
0.827355
0.805769
0.803168
0.802179
0.826708
0.804982
0.804393
0.801889
0.828251
0.804687
0.80315
0.806928
0.831324
0.803121
0.803534
0.827144
0.801527
0.820576
0.660179
0.830084
0.8519
0.806529
0.823977
0.804011
0.832261
0.840442
0.803959
0.825593
0.802163
0.809413
0.790829
0.803239
0.804966
0.807197
0.80761
0.806816
0.822983
0.820138
0.812291
0.834733
0.804613
0.802972
0.802049
0.790058
0.836808
0.803959
0.823728
0.82044
0.808656
0.807115
0.803296
0.841606
0.868395
0.8018
0.68633
0.802614
0.844849
0.821454
0.807722
0.805207
0.821307
0.84696
0.648046
0.831491
0.798611
0.853712
0.823183
0.813209
0.814876
0.810591
0.804673
0.814138
0.809944
0.602929
0.850403
0.795977
0.819794
0.856725
0.823716
0.767455
0.810283
0.819952
0.82009
0.803773
0.670325
0.81183
0.864958
0.805919
0.802261
0.780411
0.872546
0.801806
0.878283
0.809792
0.821895
0.824871
0.804898
0.80568
0.818961
0.820906
0.806037
0.819258
0.81914
0.882494
0.822151
0.810192
0.802615
0.831433
0.811404
0.841575
0.810682
0.807814
0.814753
0.821451
0.832669
0.819315
0.826209
0.834241
0.816711
0.713665
0.699574
0.819319
0.822413
0.80647
0.819082
0.584372
0.856604
0.801637
0.807062
0.819163
0.819252
0.804807
0.81855
0.80253
0.802892
0.81021
0.818061
0.763094
0.788246
0.8269
0.845543
0.836512
0.802448
0.809215
0.803926
0.81385
0.80748
0.801706
0.801775
0.802516
0.813821
0.799114
0.805242
0.838549
0.833975
0.739316
0.676075
0.808627
0.714885
0.801911
0.623035
0.805336
0.808548
0.80539
0.822762
0.836414
0.819648
0.819378
0.811266
0.804825
0.882702
0.821229
0.807461
0.775225
0.627645
0.811142
0.809135
0.772697
0.819896
0.819635
0.793082
0.801871
0.804864
0.670916
0.832936
0.804118
0.78655
0.781937
0.854645
0.810858
0.805341
0.805237
0.812653
0.812169
0.56003
0.803312
0.842341
0.81966
0.799894
0.607115
0.816487
0.819703
0.819681
0.836892
0.819625
0.805074
0.826009
0.807637
0.588848
0.809869
0.744784
0.799717
0.819531
0.726504
0.820252
0.848943
0.832997
0.672892
0.891733
0.787631
0.782419
0.798056
0.780931
0.810526
0.852968
0.810379
0.803936
0.819502
0.814293
0.784941
0.787981
0.819415
0.810851
0.836221
0.825097
0.837143
0.8056
0.80199
0.81953
0.858677
0.820181
0.820512
0.819452
0.618244
0.796952
0.827399
0.831731
0.867612
0.819307
0.820835
0.557774
0.815317
0.802601
0.818508
0.817477
0.849817
0.819393
0.811975
0.88257
0.768946
0.813961
0.819301
0.814307
0.806171
0.819785
0.664337
0.801638
0.851888
0.834927
0.812969
0.818106
0.819444
0.810438
0.711266
0.817146
0.802634
0.841458
0.822899
0.814302
0.834082
0.79711
0.816321
0.822297
0.811477
0.823702
0.752187
0.857538
0.823414
0.816356
0.819429
0.819164
0.820405
0.821701
0.819266
0.81569
0.843669
0.823082
0.802441
0.826773
0.830125
0.818548
0.815978
0.802516
0.802982
0.819503
0.823492
0.830914
0.819363
0.82107
0.802265
0.814981
0.819441
0.819139
0.803187
0.820078
0.819337
0.804326
0.819505
0.838576
0.800967
0.814583
0.824115
0.578944
0.819699
0.822699
0.819598
0.819775
0.825977
0.831884
0.820576
0.823328
0.708195
0.819523
0.80296
0.820731
0.821393
0.836503
0.825704
0.818278
0.832834
0.828751
0.816987
0.820026
0.822142
0.808813
0.819475
0.820719
0.82107
0.835387
0.818833
0.82078
0.803232
0.819596
0.819352
0.575308
0.645835
0.815239
0.825602
0.803725
0.826198
0.820951
0.843554
0.714485
0.819554
0.737954
0.820773
0.81556
0.81944
0.832223
0.819507
0.807671
0.81955
0.832722
0.842193
0.818932
0.725136
0.820629
0.820923
0.801856
0.803394
0.820514
0.857839
0.81905
0.819465
0.851891
0.831583
0.84526
0.607823
0.832481
0.81961
0.81602
0.822129
0.853575
0.822426
0.724083
0.801714
0.833168
0.802293
0.801787
0.806969
0.752595
0.819464
0.819701
0.733966
0.819642
0.828802
0.819284
0.819381
0.801473
0.82286
0.819594
0.826053
0.809584
0.812301
0.819665
0.684018
0.823528
0.819487
0.819635
0.65425
0.714283
0.610762
0.824794
0.610875
0.856972
0.732714
0.844462
0.818662
0.735259
0.823999
0.820626
0.747484
0.809172
0.82292
0.795162
0.821193
0.820909
0.820839
0.819567
0.813281
0.8043
0.742368
0.838832
0.824246
0.821324
0.801165
0.816898
0.804776
0.821022
0.819271
0.857436
0.822305
0.645435
0.818019
0.823271
0.823181
0.780236
0.817181
0.807581
0.81993
0.848333
0.609723
0.811584
0.801661
0.820487
0.822246
0.82227
0.818739
0.823119
0.818646
0.819497
0.803683
0.819129
0.848637
0.819222
0.793165
0.817127
0.633344
0.71641
0.819513
0.821755
0.804145
0.826366
0.73522
0.803454
0.803412
0.824516
0.67138
0.822283
0.801761
0.820588
0.868403
0.787376
0.826047
0.8226
0.825338
0.81968
0.772606
0.803143
0.819389
0.902842
0.828665
0.821348
0.833573
0.815713
0.872112
0.715887
0.67849
0.854838
0.803206
0.673866
0.852734
0.787894
0.833457