# vtk DataFile Version 1.0
unstructured grid
ascii
DATASET UNSTRUCTURED_GRID
points 7812 float
-1 0 0
-1 1 0
2 0 0
2 1 0
0 0 0
1 0 0
-1 1 0.1
-1 0 0.1
0 0 0.1
1 0 0.1
2 0 0.1
2 1 0.1
-0.99 0 0
-0.98 0 0
-0.97 0 0
-0.96 0 0
-0.95 0 0
-0.94 0 0
-0.93 0 0
-0.92 0 0
-0.91 0 0
-0.9 0 0
-0.89 0 0
-0.88 0 0
-0.87 0 0
-0.86 0 0
-0.85 0 0
-0.84 0 0
-0.83 0 0
-0.82 0 0
-0.81 0 0
-0.8 0 0
-0.79 0 0
-0.78 0 0
-0.77 0 0
-0.76 0 0
-0.75 0 0
-0.74 0 0
-0.73 0 0
-0.72 0 0
-0.71 0 0
-0.7 0 0
-0.69 0 0
-0.68 0 0
-0.67 0 0
-0.66 0 0
-0.65 0 0
-0.64 0 0
-0.63 0 0
-0.62 0 0
-0.61 0 0
-0.6 0 0
-0.59 0 0
-0.58 0 0
-0.57 0 0
-0.56 0 0
-0.55 0 0
-0.54 0 0
-0.53 0 0
-0.52 0 0
-0.51 0 0
-0.5 0 0
-0.49 0 0
-0.48 0 0
-0.47 0 0
-0.46 0 0
-0.45 0 0
-0.44 0 0
-0.43 0 0
-0.42 0 0
-0.41 0 0
-0.4 0 0
-0.39 0 0
-0.38 0 0
-0.37 0 0
-0.36 0 0
-0.35 0 0
-0.34 0 0
-0.33 0 0
-0.32 0 0
-0.31 0 0
-0.3 0 0
-0.29 0 0
-0.28 0 0
-0.27 0 0
-0.26 0 0
-0.25 0 0
-0.24 0 0
-0.23 0 0
-0.22 0 0
-0.21 0 0
-0.2 0 0
-0.19 0 0
-0.18 0 0
-0.17 0 0
-0.16 0 0
-0.15 0 0
-0.14 0 0
-0.13 0 0
-0.12 0 0
-0.11 0 0
-0.1 0 0
-0.09 0 0
-0.08 0 0
-0.07 0 0
-0.06 0 0
-0.05 0 0
-0.04 0 0
-0.03 0 0
-0.02 0 0
-0.01 0 0
1.01 0 0
1.02 0 0
1.03 0 0
1.04 0 0
1.05 0 0
1.06 0 0
1.07 0 0
1.08 0 0
1.09 0 0
1.1 0 0
1.11 0 0
1.12 0 0
1.13 0 0
1.14 0 0
1.15 0 0
1.16 0 0
1.17 0 0
1.18 0 0
1.19 0 0
1.2 0 0
1.21 0 0
1.22 0 0
1.23 0 0
1.24 0 0
1.25 0 0
1.26 0 0
1.27 0 0
1.28 0 0
1.29 0 0
1.3 0 0
1.31 0 0
1.32 0 0
1.33 0 0
1.34 0 0
1.35 0 0
1.36 0 0
1.37 0 0
1.38 0 0
1.39 0 0
1.4 0 0
1.41 0 0
1.42 0 0
1.43 0 0
1.44 0 0
1.45 0 0
1.46 0 0
1.47 0 0
1.48 0 0
1.49 0 0
1.5 0 0
1.51 0 0
1.52 0 0
1.53 0 0
1.54 0 0
1.55 0 0
1.56 0 0
1.57 0 0
1.58 0 0
1.59 0 0
1.6 0 0
1.61 0 0
1.62 0 0
1.63 0 0
1.64 0 0
1.65 0 0
1.66 0 0
1.67 0 0
1.68 0 0
1.69 0 0
1.7 0 0
1.71 0 0
1.72 0 0
1.73 0 0
1.74 0 0
1.75 0 0
1.76 0 0
1.77 0 0
1.78 0 0
1.79 0 0
1.8 0 0
1.81 0 0
1.82 0 0
1.83 0 0
1.84 0 0
1.85 0 0
1.86 0 0
1.87 0 0
1.88 0 0
1.89 0 0
1.9 0 0
1.91 0 0
1.92 0 0
1.93 0 0
1.94 0 0
1.95 0 0
1.96 0 0
1.97 0 0
1.98 0 0
1.99 0 0
2 0.010289 0
2 0.0215307 0
2 0.0338135 0
2 0.0472336 0
2 0.0618965 0
2 0.0779171 0
2 0.0954213 0
2 0.114546 0
2 0.135442 0
2 0.158274 0
2 0.183219 0
2 0.210474 0
2 0.240253 0
2 0.27279 0
2 0.308339 0
2 0.347181 0
2 0.389619 0
2 0.435987 0
2 0.486649 0
2 0.542002 0
2 0.602481 0
2 0.66856 0
2 0.740758 0
2 0.819642 0
2 0.90583 0
1.9 1 0
1.8 1 0
1.7 1 0
1.6 1 0
1.5 1 0
1.4 1 0
1.3 1 0
1.2 1 0
1.1 1 0
1 1 0
0.9 1 0
0.8 1 0
0.7 1 0
0.6 1 0
0.5 1 0
0.4 1 0
0.3 1 0
0.2 1 0
0.1 1 0
3.69793e-12 1 0
-0.1 1 0
-0.2 1 0
-0.3 1 0
-0.4 1 0
-0.5 1 0
-0.6 1 0
-0.7 1 0
-0.8 1 0
-0.9 1 0
-1 0.90583 0
-1 0.819642 0
-1 0.740758 0
-1 0.66856 0
-1 0.602481 0
-1 0.542002 0
-1 0.486649 0
-1 0.435987 0
-1 0.389619 0
-1 0.347181 0
-1 0.308339 0
-1 0.27279 0
-1 0.240253 0
-1 0.210474 0
-1 0.183219 0
-1 0.158274 0
-1 0.135442 0
-1 0.114546 0
-1 0.0954213 0
-1 0.0779171 0
-1 0.0618965 0
-1 0.0472336 0
-1 0.0338135 0
-1 0.0215307 0
-1 0.010289 0
0.00921362 0.00379763 0
0.0184561 0.00752451 0
0.0277268 0.0111804 0
0.0370253 0.0147652 0
0.0463511 0.0182786 0
0.0557034 0.0217203 0
0.0650819 0.0250903 0
0.074486 0.0283883 0
0.083915 0.0316141 0
0.0933685 0.0347675 0
0.102846 0.0378484 0
0.112347 0.0408565 0
0.12187 0.0437917 0
0.131416 0.0466538 0
0.140983 0.0494427 0
0.150572 0.0521581 0
0.160181 0.0547999 0
0.16981 0.0573681 0
0.179458 0.0598623 0
0.189125 0.0622825 0
0.198811 0.0646285 0
0.208514 0.0669001 0
0.218234 0.0690974 0
0.227971 0.07122 0
0.237724 0.073268 0
0.247493 0.0752411 0
0.257276 0.0771393 0
0.267073 0.0789625 0
0.276884 0.0807105 0
0.286708 0.0823832 0
0.296545 0.0839806 0
0.306394 0.0855025 0
0.316254 0.0869488 0
0.326125 0.0883196 0
0.336006 0.0896146 0
0.345896 0.0908339 0
0.355796 0.0919773 0
0.365704 0.0930447 0
0.375621 0.0940362 0
0.385544 0.0949517 0
0.395474 0.095791 0
0.40541 0.0965542 0
0.415352 0.0972412 0
0.425299 0.097852 0
0.43525 0.0983865 0
0.445205 0.0988447 0
0.455164 0.0992266 0
0.465125 0.0995321 0
0.475088 0.0997613 0
0.485052 0.0999141 0
0.495017 0.0999904 0
0.504983 0.0999904 0
0.514948 0.0999141 0
0.524912 0.0997613 0
0.534875 0.0995321 0
0.544836 0.0992266 0
0.554795 0.0988447 0
0.56475 0.0983865 0
0.574701 0.097852 0
0.584648 0.0972412 0
0.59459 0.0965542 0
0.604526 0.095791 0
0.614456 0.0949517 0
0.624379 0.0940362 0
0.634296 0.0930447 0
0.644204 0.0919773 0
0.654104 0.0908339 0
0.663994 0.0896146 0
0.673875 0.0883196 0
0.683746 0.0869488 0
0.693606 0.0855025 0
0.703455 0.0839806 0
0.713292 0.0823832 0
0.723116 0.0807105 0
0.732927 0.0789625 0
0.742724 0.0771393 0
0.752508 0.0752411 0
0.762276 0.073268 0
0.772029 0.07122 0
0.781766 0.0690974 0
0.791486 0.0669001 0
0.801189 0.0646285 0
0.810875 0.0622825 0
0.820542 0.0598623 0
0.83019 0.0573681 0
0.839819 0.0547999 0
0.849428 0.0521581 0
0.859017 0.0494427 0
0.868584 0.0466538 0
0.87813 0.0437917 0
0.887653 0.0408565 0
0.897154 0.0378484 0
0.906631 0.0347675 0
0.916085 0.0316141 0
0.925514 0.0283883 0
0.934918 0.0250903 0
0.944297 0.0217203 0
0.953649 0.0182786 0
0.962975 0.0147652 0
0.972273 0.0111804 0
0.981544 0.00752451 0
0.990786 0.00379763 0
-1 0.90583 0.1
-1 0.819642 0.1
-1 0.740758 0.1
-1 0.66856 0.1
-1 0.602481 0.1
-1 0.542002 0.1
-1 0.486649 0.1
-1 0.435987 0.1
-1 0.389619 0.1
-1 0.347181 0.1
-1 0.308339 0.1
-1 0.27279 0.1
-1 0.240253 0.1
-1 0.210474 0.1
-1 0.183219 0.1
-1 0.158274 0.1
-1 0.135442 0.1
-1 0.114546 0.1
-1 0.0954213 0.1
-1 0.0779171 0.1
-1 0.0618965 0.1
-1 0.0472336 0.1
-1 0.0338135 0.1
-1 0.0215307 0.1
-1 0.010289 0.1
-0.99 0 0.1
-0.98 0 0.1
-0.97 0 0.1
-0.96 0 0.1
-0.95 0 0.1
-0.94 0 0.1
-0.93 0 0.1
-0.92 0 0.1
-0.91 0 0.1
-0.9 0 0.1
-0.89 0 0.1
-0.88 0 0.1
-0.87 0 0.1
-0.86 0 0.1
-0.85 0 0.1
-0.84 0 0.1
-0.83 0 0.1
-0.82 0 0.1
-0.81 0 0.1
-0.8 0 0.1
-0.79 0 0.1
-0.78 0 0.1
-0.77 0 0.1
-0.76 0 0.1
-0.75 0 0.1
-0.74 0 0.1
-0.73 0 0.1
-0.72 0 0.1
-0.71 0 0.1
-0.7 0 0.1
-0.69 0 0.1
-0.68 0 0.1
-0.67 0 0.1
-0.66 0 0.1
-0.65 0 0.1
-0.64 0 0.1
-0.63 0 0.1
-0.62 0 0.1
-0.61 0 0.1
-0.6 0 0.1
-0.59 0 0.1
-0.58 0 0.1
-0.57 0 0.1
-0.56 0 0.1
-0.55 0 0.1
-0.54 0 0.1
-0.53 0 0.1
-0.52 0 0.1
-0.51 0 0.1
-0.5 0 0.1
-0.49 0 0.1
-0.48 0 0.1
-0.47 0 0.1
-0.46 0 0.1
-0.45 0 0.1
-0.44 0 0.1
-0.43 0 0.1
-0.42 0 0.1
-0.41 0 0.1
-0.4 0 0.1
-0.39 0 0.1
-0.38 0 0.1
-0.37 0 0.1
-0.36 0 0.1
-0.35 0 0.1
-0.34 0 0.1
-0.33 0 0.1
-0.32 0 0.1
-0.31 0 0.1
-0.3 0 0.1
-0.29 0 0.1
-0.28 0 0.1
-0.27 0 0.1
-0.26 0 0.1
-0.25 0 0.1
-0.24 0 0.1
-0.23 0 0.1
-0.22 0 0.1
-0.21 0 0.1
-0.2 0 0.1
-0.19 0 0.1
-0.18 0 0.1
-0.17 0 0.1
-0.16 0 0.1
-0.15 0 0.1
-0.14 0 0.1
-0.13 0 0.1
-0.12 0 0.1
-0.11 0 0.1
-0.1 0 0.1
-0.09 0 0.1
-0.08 0 0.1
-0.07 0 0.1
-0.06 0 0.1
-0.05 0 0.1
-0.04 0 0.1
-0.03 0 0.1
-0.02 0 0.1
-0.01 0 0.1
0.00921362 0.00379763 0.1
0.0184561 0.00752451 0.1
0.0277268 0.0111804 0.1
0.0370253 0.0147652 0.1
0.0463511 0.0182786 0.1
0.0557034 0.0217203 0.1
0.0650819 0.0250903 0.1
0.074486 0.0283883 0.1
0.083915 0.0316141 0.1
0.0933685 0.0347675 0.1
0.102846 0.0378484 0.1
0.112347 0.0408565 0.1
0.12187 0.0437917 0.1
0.131416 0.0466538 0.1
0.140983 0.0494427 0.1
0.150572 0.0521581 0.1
0.160181 0.0547999 0.1
0.16981 0.0573681 0.1
0.179458 0.0598623 0.1
0.189125 0.0622825 0.1
0.198811 0.0646285 0.1
0.208514 0.0669001 0.1
0.218234 0.0690974 0.1
0.227971 0.07122 0.1
0.237724 0.073268 0.1
0.247493 0.0752411 0.1
0.257276 0.0771393 0.1
0.267073 0.0789625 0.1
0.276884 0.0807105 0.1
0.286708 0.0823832 0.1
0.296545 0.0839806 0.1
0.306394 0.0855025 0.1
0.316254 0.0869488 0.1
0.326125 0.0883196 0.1
0.336006 0.0896146 0.1
0.345896 0.0908339 0.1
0.355796 0.0919773 0.1
0.365704 0.0930447 0.1
0.375621 0.0940362 0.1
0.385544 0.0949517 0.1
0.395474 0.095791 0.1
0.40541 0.0965542 0.1
0.415352 0.0972412 0.1
0.425299 0.097852 0.1
0.43525 0.0983865 0.1
0.445205 0.0988447 0.1
0.455164 0.0992266 0.1
0.465125 0.0995321 0.1
0.475088 0.0997613 0.1
0.485052 0.0999141 0.1
0.495017 0.0999904 0.1
0.504983 0.0999904 0.1
0.514948 0.0999141 0.1
0.524912 0.0997613 0.1
0.534875 0.0995321 0.1
0.544836 0.0992266 0.1
0.554795 0.0988447 0.1
0.56475 0.0983865 0.1
0.574701 0.097852 0.1
0.584648 0.0972412 0.1
0.59459 0.0965542 0.1
0.604526 0.095791 0.1
0.614456 0.0949517 0.1
0.624379 0.0940362 0.1
0.634296 0.0930447 0.1
0.644204 0.0919773 0.1
0.654104 0.0908339 0.1
0.663994 0.0896146 0.1
0.673875 0.0883196 0.1
0.683746 0.0869488 0.1
0.693606 0.0855025 0.1
0.703455 0.0839806 0.1
0.713292 0.0823832 0.1
0.723116 0.0807105 0.1
0.732927 0.0789625 0.1
0.742724 0.0771393 0.1
0.752508 0.0752411 0.1
0.762276 0.073268 0.1
0.772029 0.07122 0.1
0.781766 0.0690974 0.1
0.791486 0.0669001 0.1
0.801189 0.0646285 0.1
0.810875 0.0622825 0.1
0.820542 0.0598623 0.1
0.83019 0.0573681 0.1
0.839819 0.0547999 0.1
0.849428 0.0521581 0.1
0.859017 0.0494427 0.1
0.868584 0.0466538 0.1
0.87813 0.0437917 0.1
0.887653 0.0408565 0.1
0.897154 0.0378484 0.1
0.906631 0.0347675 0.1
0.916085 0.0316141 0.1
0.925514 0.0283883 0.1
0.934918 0.0250903 0.1
0.944297 0.0217203 0.1
0.953649 0.0182786 0.1
0.962975 0.0147652 0.1
0.972273 0.0111804 0.1
0.981544 0.00752451 0.1
0.990786 0.00379763 0.1
1.01 0 0.1
1.02 0 0.1
1.03 0 0.1
1.04 0 0.1
1.05 0 0.1
1.06 0 0.1
1.07 0 0.1
1.08 0 0.1
1.09 0 0.1
1.1 0 0.1
1.11 0 0.1
1.12 0 0.1
1.13 0 0.1
1.14 0 0.1
1.15 0 0.1
1.16 0 0.1
1.17 0 0.1
1.18 0 0.1
1.19 0 0.1
1.2 0 0.1
1.21 0 0.1
1.22 0 0.1
1.23 0 0.1
1.24 0 0.1
1.25 0 0.1
1.26 0 0.1
1.27 0 0.1
1.28 0 0.1
1.29 0 0.1
1.3 0 0.1
1.31 0 0.1
1.32 0 0.1
1.33 0 0.1
1.34 0 0.1
1.35 0 0.1
1.36 0 0.1
1.37 0 0.1
1.38 0 0.1
1.39 0 0.1
1.4 0 0.1
1.41 0 0.1
1.42 0 0.1
1.43 0 0.1
1.44 0 0.1
1.45 0 0.1
1.46 0 0.1
1.47 0 0.1
1.48 0 0.1
1.49 0 0.1
1.5 0 0.1
1.51 0 0.1
1.52 0 0.1
1.53 0 0.1
1.54 0 0.1
1.55 0 0.1
1.56 0 0.1
1.57 0 0.1
1.58 0 0.1
1.59 0 0.1
1.6 0 0.1
1.61 0 0.1
1.62 0 0.1
1.63 0 0.1
1.64 0 0.1
1.65 0 0.1
1.66 0 0.1
1.67 0 0.1
1.68 0 0.1
1.69 0 0.1
1.7 0 0.1
1.71 0 0.1
1.72 0 0.1
1.73 0 0.1
1.74 0 0.1
1.75 0 0.1
1.76 0 0.1
1.77 0 0.1
1.78 0 0.1
1.79 0 0.1
1.8 0 0.1
1.81 0 0.1
1.82 0 0.1
1.83 0 0.1
1.84 0 0.1
1.85 0 0.1
1.86 0 0.1
1.87 0 0.1
1.88 0 0.1
[...]
CELL_DATA 7425
SCALARS rho float
LOOKUP_TABLE default
0.586997
0.805024
0.819479
0.827458
0.799355
0.819079
0.820856
0.814041
0.812882
0.73856
0.863458
0.810007
0.813802
0.827314
0.803652
0.81707
0.798691
0.813167
0.803458
0.767206
0.831215
0.822023
0.724708
0.827986
0.803864
0.702846
0.831148
0.848172
0.80015
0.8079
0.819312
0.725552
0.803605
0.651953
0.518947
0.827952
0.803497
0.814018
0.811117
0.82795
0.715836
0.70295
0.789921
0.70245
0.586268
0.748156
0.799239
0.813736
0.660966
0.719327
0.746299
0.80514
0.812335
0.799014
0.709937
0.619999
0.822844
0.800046
0.738431
0.700815
0.709249
0.807644
0.813136
0.799322
0.798759
0.817529
0.584195
0.773218
0.704903
0.807815
0.804127
0.803197
0.883378
0.821095
0.810818
0.812941
0.805036
0.800426
0.813143
0.75772
0.815894
0.807223
0.810192
0.788617
0.83586
0.801034
0.574282
0.829902
0.542262
0.848436
0.707158
0.729666
0.845137
0.803167
0.817318
0.758104
0.835988
0.787987
0.825562
0.80241
0.808014
0.738663
0.803277
0.828182
0.597087
0.811045
0.824309
0.707333
0.814908
0.799101
0.816628
0.784499
0.789739
0.812414
0.789653
0.786282
0.831198
0.8031
0.700306
0.629138
0.805035
0.777204
0.812845
0.790374
0.858897
0.838752
0.807679
0.804214
0.661082
0.503755
0.814386
0.654907
0.514838
0.867568
0.661264
0.799449
0.81108
0.723455
0.581839
0.724649
0.723116
0.809551
0.809545
0.707439
0.803096
0.779571
0.56531
0.78843
0.782532
0.827704
0.816707
0.704159
0.802843
0.744296
0.705347
0.803265
0.810408
0.830349
0.7975
0.651795
0.802485
0.703729
0.801039
0.829682
0.820384
0.802364
0.812965
0.784753
0.806259
0.800585
0.819633
0.804409
0.791098
0.799064
0.79983
0.739981
0.803632
0.758611
0.593835
0.707115
0.799616
0.792637
0.87977
0.831789
0.611476
0.822857
0.79857
0.827246
0.799811
0.81331
0.812506
0.803183
0.806926
0.704731
0.814923
0.819182
0.770048
0.797073
0.860999
0.807747
0.811786
0.811067
0.612739
0.838803
0.572857
0.531494
0.595343
0.600152
0.828081
0.879304
0.807512
0.798638
0.841339
0.812868
0.816601
0.820693
0.815116
0.637911
0.548384
0.813632
0.545296
0.592298
0.703581
0.811613
0.813974
0.812942
0.833078
0.812808
0.864082
0.710149
0.835168
0.712411
0.805151
0.803911
0.801939
0.71381
0.720273
0.619409
0.70581
0.86358
0.875252
0.806154
0.807681
0.798791
0.811478
0.715626
0.821535
0.800122
0.825628
0.794598
0.809753
0.721441
0.812709
0.823667
0.739631
0.528295
0.799805
0.736446
0.843246
0.814255
0.726659
0.815493
0.814752
0.849911
0.809419
0.803795
0.803245
0.825586
0.86072
0.805366
0.61917
0.848841
0.811913
0.805588
0.827478
0.837289
0.812893
0.821362
0.793474
0.814985
0.866482
0.849905
0.827266
0.836682
0.802647
0.817079
0.803186
0.759668
0.701074
0.580735
0.701134
0.802271
0.812792
0.815902
0.854594
0.779616
0.645653
0.827015
0.520524
0.774218
0.800914
0.646312
0.494768
0.639009
0.81511
0.813139
0.812867
0.812632
0.82665
0.774396
0.81146
0.802655
0.812804
0.840658
0.866979
0.833499
0.802706
0.706544
0.795829
0.834238
0.691484
0.79868
0.802031
0.864748
0.817019
0.59292
0.813298
0.740354
0.852189
0.731881
0.810015
0.907639
0.7998
0.795571
0.658855
0.635473
0.711891
0.7805
0.826474
0.814847
0.813599
0.882275
0.858049
0.799469
0.799106
0.826003
0.739103
0.802502
0.879356
0.801372
0.804626
0.800634
0.802558
0.812872
0.815636
0.816289
0.636036
0.829916
0.645269
0.808412
0.639153
0.802549
0.802222
0.840211
0.728529
0.816326
0.80849
0.816899
0.799442
0.802486
0.811217
0.696494
0.824443
0.812961
0.812834
0.80067
0.736794
0.559801
0.8064
0.810925
0.803181
0.812793
0.794668
0.502596
0.845942
0.813221
0.803839
0.785663
0.813166
0.804622
0.802979
0.816154
0.807496
0.822438
0.768543
0.812601
0.807753
0.562523
0.80305
0.64002
0.838715
0.636133
0.814613
0.877869
0.592894
0.818039
0.748871
0.804401
0.873313
0.533447
0.823051
0.822187
0.803487
0.82567
0.811017
0.823388
0.830575
0.824769
0.739567
0.827455
0.761661
0.810158
0.794216
0.793565
0.758514
0.805584
0.802081
0.814389
0.752108
0.804661
0.604305
0.614099
0.688817
0.812716
0.844148
0.8648
0.82982
0.798514
0.812542
0.804841
0.818452
0.680412
0.800931
0.742865
0.824005
0.814716
0.805318
0.712006
0.727138
0.533467
0.605501
0.801233
0.611279
0.792513
0.765329
0.769984
0.727156
0.762384
0.76745
0.809345
0.814844
0.819475
0.811369
0.710324
0.601873
0.838979
0.806853
0.783109
0.809757
0.802531
0.836502
0.717957
0.855242
0.763661
0.728156
0.764428
0.811426
0.544804
0.798762
0.841564
0.81324
0.813694
0.809626
0.799098
0.780214
0.835654
0.8031
0.842922
0.72102
0.707586
0.800295
0.79509
0.82195
0.7086
0.847914
0.800354
0.815971
0.798666
0.779135
0.808189
0.594496
0.67734
0.632321
0.812844
0.803762
0.82629
0.749185
0.810581
0.814712
0.82032
0.798911
0.729179
0.796803
0.814219
0.803192
0.702951
0.8135
0.818836
0.839973
0.810683
0.82527
0.862261
0.857237
0.743827
0.603296
0.837989
0.805755
0.843342
0.814139
0.82286
0.81343
0.813712
0.632924
0.805115
0.809237
0.812724
0.791846
0.810539
0.804701
0.860407
0.798598
0.812637
0.814628
0.871889
0.597516
0.813368
0.842334
0.883295
0.530277
0.816324
0.829888
0.796122
0.81473
0.794894
0.867564
0.812142
0.83129
0.812638
0.619247
0.80238
0.804137
0.69065
0.853105
0.759773
0.801788
0.813889
0.81262
0.859594
0.795332
0.833564
0.834666
0.784216
0.825131
0.842267
0.799679
0.810423
0.80689
0.805304
0.814772
0.802624
0.845179
0.76921
0.809765
0.803146
0.815161
0.723042
0.812798
0.818279
0.752538
0.813495
0.816292
0.827493
0.825053
0.800663
0.800616
0.850464
0.767942
0.825061
0.84416
0.804547
0.505387
0.812805
0.828218
0.852353
0.812566
0.803145
0.808508
0.855012
0.780071
0.802576
0.801186
0.812841
0.72697
0.802679
0.829957
0.807946
0.794952
0.793442
0.843151
0.806595
0.845282
0.802015
0.824185
0.812677
0.804208
0.841815
0.812774
0.679296
0.818706
0.807088
0.812749
0.90613
0.80077
0.81583
0.800449
0.800358
0.816126
0.800464
0.803349
0.783727
0.747319
0.806428
0.812802
0.757955
0.791335
0.822958
0.813004
0.822191
0.806281
0.825711
0.875279
0.830591
0.574514
0.708734
0.840705
0.817214
0.844114
0.814683
0.850064
0.807272
0.812351
0.799295
0.838361
0.860896
0.852751
0.731434
0.814004
0.822114
0.744002
0.817032
0.775894
0.800187
0.732989
0.815988
0.830809
0.823444
0.861733
0.814133
0.81321
0.810106
0.814564
0.835748
0.812186
0.798608
0.810219
0.73746
0.811258
0.774184
0.83279
0.812698
0.638708
0.777605
0.811083
0.799128
0.819758
0.802419
0.814597
0.817226
0.804417
0.81933
0.804155
0.805785
0.597037
0.847
0.82507
0.826644
0.814854
0.803214
0.701768
0.80642
0.907821
0.813509
0.800972
0.812801
0.78225
0.80719
0.813205
0.821221
0.814621
0.81314
0.816164
0.702277
0.777785
0.764511
0.812573
0.805281
0.800968
0.621226
0.805651
0.80258
0.708101
0.837134
0.817127
0.802156
0.807396
0.799357
0.817179
0.813883
0.813202
0.812785
0.709613
0.831647
0.800265
0.807345
0.842743
0.817554
0.816221
0.80013
0.753633
0.823777
0.787352
0.82137
0.789388
0.805572
0.820887
0.7375
0.81734
0.650237
0.871999
0.704252
0.844962
0.800737
0.875134
0.793651
0.801649
0.820605
0.836164
0.838375
0.825415
0.819761
0.814637
0.801069
0.804167
0.808216
0.725578
0.827202
0.800073
0.719722
0.830486
0.706734
0.799944
0.860293
0.805568
0.701211
0.797824
0.814006
0.70514
0.785653
0.819318
0.831813
0.80689
0.572438
0.72848
0.812369
0.801267
0.812835
0.800622
0.737157
0.813936
0.815643
0.812402
0.775309
0.803258
0.804481
0.803511
0.560296
0.812622
0.83407
0.579587
0.815089
0.81603
0.81462
0.818292
0.814344
0.824478
0.799022
0.795106
0.771035
0.822862
0.829631
0.825071
0.834804
0.765291
0.808924
0.724252
0.77235
0.808742
0.821009
0.813201
0.800964
0.858183
0.812839
0.80027
0.809514
0.816023
0.815113
0.83658
0.814416
0.81272
0.811967
0.813738
0.800082
0.820931
0.803755
0.822767
0.813384
0.57532
0.813432
0.834412
0.857968
0.838144
0.490417
0.816737
0.804476
0.496278
0.669202
0.642883
0.834252
0.807926
0.811637
0.812715
0.803201
0.816677
0.810923
0.534359
0.686305
0.818207
0.806614
0.815541
0.8035
0.810219
0.810824
0.820175
0.799473
0.692068
0.85582
0.803147
0.8147
0.813543
0.757721
0.485349
0.832841
0.813503
0.742021
0.802698
0.806144
0.590643
0.827477
0.814708
0.827663
0.818713
0.825912
0.80472
0.719239
0.643459
0.561915
0.825257
0.808452
0.782976
0.812884
0.779731
0.81782
0.873289
0.762312
0.821545
0.813448
0.82578
0.883541
0.814365
0.811753
0.803251
0.813851
0.691591
0.828152
0.799836
0.810099
0.802191
0.784223
0.854124
0.821979
0.840447
0.821459
0.757603
0.755855
0.80325
0.818036
0.803059
0.805233
0.802572
0.775583
0.814608
0.761509
0.821078
0.661967
0.813894
0.802947
0.735791
0.823212
0.817917
0.739927
0.80115
0.757151
0.880525
0.800714
0.812749
0.762617
0.800026
0.814194
0.80394
0.589718
0.820891
0.79861
0.801281
0.814448
0.825556
0.757057
0.805463
0.841539
0.826866
0.814064
0.835787
0.701239
0.700065
0.812835
0.744097
0.822155
0.771315
0.812742
0.802506
0.810349
0.751895
0.794178
0.764261
0.809815
0.803139
0.631093
0.77897
0.799225
0.848915
0.814289
0.828594
0.526208
0.825312
0.785094
0.858701
0.800931
0.817943
0.800223
0.785729
0.798689
0.825656
0.835726
0.821716
0.817049
0.707092
0.773768
0.815295
0.805369
0.80989
0.803898
0.707097
0.792777
0.803429
0.810587
0.827108
0.851178
0.831797
0.813382
0.799372
0.804181
0.801984
0.779597
0.611479
0.80026
0.731179
0.661797
0.822746
0.79879
0.777271
0.799922
0.754101
0.785269
0.811365
0.822119
0.803286
0.815936
0.817296
0.820617
0.813305
0.808423
0.712076
0.699307
0.6408
0.829222
0.869538
0.815319
0.8413
0.847797
0.863709
0.735534
0.816524
0.862981
0.810131
0.812779
0.816138
0.732694
0.81235
0.806587
0.806126
0.516975
0.812876
0.761117
0.813072
0.813766
0.803533
0.7057
0.813112
0.61048
0.82498
0.802228
0.822196
0.855126
0.803421
0.795351
0.820866
0.811497
0.805673
0.762194
0.509485
0.820831
0.803071
0.828851
0.825701
0.802031
0.807011
0.83442
0.720723
0.50004
0.88624
0.800524
0.815612
0.804311
0.710589
0.798571
0.799945
0.814985
0.735932
0.646395
0.883228
0.714062
0.836498
0.8119
0.832834
0.842617
0.792107
0.804733
0.813513
0.852747
0.738248
0.870677
0.813934
0.562635
0.802392
0.748954
0.852873
0.760212
0.804206
0.803944
0.799574
0.801564
0.808795
0.812814
0.855453
0.805921
0.802861
0.801303
0.799948
0.812147
0.816799
0.802611
0.812391
0.849164
0.803093
0.783392
0.802227
0.839503
0.724837
0.813544
0.813744
0.63595
0.713009
0.805527
0.822961
0.803485
0.511395
0.85622
0.813131
0.832913
0.805293
0.803306
0.801316
0.786178
0.587039
0.804277
0.816024
0.835951
0.820496
0.812857
0.798091
0.746831
0.801551
0.765688
0.787505
0.799271
0.790938
0.751061
0.800786
0.811384
0.810286
0.832155
0.84897
0.553019
0.841855
0.812749
0.820828
0.801949
0.822635
0.810982
0.894595
0.800184
0.866984
0.80567
0.759686
0.862093
0.802266
0.800232
0.824099
0.660286
0.645171
0.803386
0.803843
0.705464
0.654192
0.799889
0.823788
0.812939
0.822521
0.732836
0.817131
0.812751
0.82607
0.816882
0.811925
0.812769
0.754515
0.80383
0.815601
0.811236
0.676123
0.566257
0.812806
0.649893
0.721849
0.554909
0.841349
0.800062
0.526599
0.60062
0.82747
0.908053
0.818074
0.652199
0.814076
0.786374
0.801663
0.786326
0.820573
0.810034
0.788253
0.820988
0.800937
0.587482
0.817751
0.766602
0.815854
0.701124
0.822154
0.789576
0.813867
0.799983
0.662761
0.843474
0.806498
0.806543
0.493171
0.816757
0.800326
0.852059
0.711431
0.817011
0.58347
0.718704
0.801349
0.796606
0.732578
0.715418
0.716126
0.5066
0.588731
0.79992
0.51714
0.822533
0.519703
0.757125
0.671053
0.598614
0.54025
0.745361
0.803076
0.715372
0.821228
0.800896
0.802894
0.761128
0.889657
0.79898
0.824417
0.803416
0.812694
0.705872
0.807503
0.736621
0.821842
0.886016
0.833523
0.747635
0.822723
0.770425
0.879879
0.804185
0.7586
0.850642
0.776796
0.799915
0.805218
0.758167
0.74448
0.664807
0.804972
0.803017
0.817838
0.833436
0.611359
0.807839
0.537814
0.668485
0.61594
0.818436
0.820973
0.808914
0.803965
0.615551
0.872433
0.802671
0.80294
0.863482
0.812329
0.771969
0.812066
0.802357
0.817828
0.803141
0.716957
0.803317
0.655017
0.798943
0.804029
0.801526
0.639052
0.81147
0.810252
0.72561
0.817724
0.548887
0.576518
0.804133
0.696386
0.725866
0.571923
0.723487
0.813536
0.707839
0.772928
0.716783
0.812754
0.670089
0.762042
0.806413
0.810527
0.654329
0.801931
0.895137
0.796674
0.81672
0.584846
0.693702
0.800863
0.81285
0.813926
0.851621
0.812555
0.804237
0.803714
0.803329
0.713693
0.717616
0.615472
0.771394
0.532355
0.724022
0.809836
0.814328
0.806059
0.799198
0.534773
0.808983
0.803746
0.553728
0.543006
0.746524
0.803562
0.80611
0.549118
0.798172
0.569393
0.72028
0.607617
0.813484
0.802203
0.596873
0.608142
0.867864
0.809996
0.765344
0.717727
0.621378
0.655213
0.710016
0.815936
0.759711
0.765506
0.623871
0.753791
0.809229
0.815286
0.812359
0.815392
0.865478
0.754602
0.818859
0.803316
0.851241
0.812762
0.802765
0.812987
0.722695
0.812873
0.811915
0.815108
0.811074
0.815817
0.803263
0.817852
0.810308
0.809658
0.817192
0.800101
0.816519
0.818879
0.667359
0.818534
0.868382
0.818093
0.792903
0.645791
0.858542
0.818714
0.824821
0.799478
0.811115
0.757507
0.852503
0.55865
0.726466
0.809844
0.815586
0.803862
0.803352
0.831989
0.804953
0.805158
0.815181
0.780656
0.838499
0.841897
0.815143
0.664202
0.611769
0.815685
0.816544
0.788227
0.849584
0.847215
0.810769
0.813552
0.777689
0.814004
0.817757
0.814028
0.818701
0.813016
0.815743
0.850999
0.815889
0.814423
0.817476
0.817691
0.784858
0.81404
0.803983
0.804053
0.804553
0.818493
0.811387
0.788284
0.753994
0.812579
0.806263
0.808693
0.806361
0.857735
0.80329
0.813911
0.812598
0.805136
0.555944
0.803874
0.812641
0.814937
0.810293
0.812684
0.813207
0.812926
0.810159
0.86436
0.501149
0.812714
0.841611
0.812552
0.802944
0.808383
0.814914
0.839624
0.800381
0.80114
0.812556
0.706527
0.812731
0.808157
0.807276
0.812457
0.812784
0.812928
0.813263
0.511424
0.81184
0.715561
0.885818
0.820986
0.733478
0.670729
0.815277
0.803438
0.81865
0.646368
0.801625
0.813234
0.647858
0.799786
0.804074
0.815349
0.806219
0.856697
0.809832
0.606775
0.800778
0.775175
0.811193
0.889049
0.803222
0.815492
0.819262
0.832158
0.813301
0.822326
0.836285
0.634837
0.802562
0.655658
0.813652
0.813551
0.712644
0.813436
0.804744
0.713205
0.814849
0.701021
0.861034
0.784028
0.814204
0.812788
0.813331
0.667727
0.813557
0.633175
0.800145
0.792338
0.822221
0.815092
0.715879
0.766687
0.829984
0.812655
0.821246
0.821829
0.813339
0.825261
0.799437
0.551887
0.754916
0.759121
0.73151
0.837548
0.822266
0.83429
0.775941
0.802751
0.812924
0.812844
0.812848
0.774585
0.563621
0.803194
0.528149
0.808137
0.824188
0.799636
0.803747
0.812875
0.805994
0.782547
0.732129
0.813287
0.859106
0.813632
0.799228
0.736957
0.809521
0.788688
0.833669
0.503415
0.795956
0.80582
0.798807
0.688694
0.812738
0.810678
0.856945
0.56889
0.807314
0.803261
0.812723
0.61221
0.812984
0.803325
0.803392
0.803017
0.813096
0.813195
0.816018
0.812934
0.718022
0.804485
0.803192
0.812881
0.896141
0.813041
0.773913
0.841074
0.799166
0.803126
0.601179
0.812774
0.803349
0.82557
0.801944
0.866185
0.814754
0.853302
0.800273
0.820552
0.777834
0.558076
0.7526
0.794167
0.803851
0.813916
0.813705
0.55529
0.861746
0.857792
0.76838
0.757639
0.738493
0.81198
0.848317
0.812813
0.813652
0.812847
0.80426
0.726771
0.803488
0.799042
0.764226
0.824183
0.822915
0.861804
0.815557
0.812859
0.523582
0.80887
0.812818
0.800653
0.773903
0.818045
0.803104
0.812775
0.826807
0.798425
0.803535
0.801176
0.815094
0.839053
0.802305
0.799102
0.801421
0.766097
0.819776
0.566876
0.868341
0.803674
0.545521
0.803101
0.803063
0.819485
0.590968
0.605989
0.801497
0.803565
0.800786
0.86069
0.779868
0.814543
0.802924
0.865597
0.804698
0.804437
0.826254
0.815859
0.820009
0.821187
0.820234
0.867441
0.729178
0.8521
0.817102
0.653547
0.80249
0.803171
0.803623
0.821029
0.823418
0.80392
0.801027
0.799989
0.822586
0.803149
0.803589
0.799597
0.824295
0.803958
0.801963
0.806059
0.827782
0.800469
0.801467
0.824178
0.799525
0.815276
0.651142
0.8263
0.849788
0.804825
0.819475
0.803213
0.828662
0.83742
0.803386
0.821382
0.800484
0.806906
0.789527
0.802129
0.803108
0.806339
0.805854
0.804448
0.818445
0.814637
0.811209
0.831325
0.802112
0.8022
0.79984
0.788982
0.833709
0.803127
0.819203
0.815099
0.807065
0.804978
0.802941
0.838834
0.864609
0.799506
0.678837
0.801141
0.842078
0.816486
0.805052
0.804448
0.819645
0.844529
0.600952
0.828664
0.794416
0.850249
0.818629
0.811963
0.813229
0.80816
0.80394
0.812733
0.808722
0.591687
0.847916
0.794551
0.814065
0.854527
0.819177
0.76311
0.808589
0.814337
0.815357
0.802944
0.661567
0.809124
0.8631
0.80251
0.800659
0.775329
0.871175
0.800388
0.877029
0.806619
0.817058
0.820513
0.802149
0.803768
0.812479
0.815771
0.803397
0.813203
0.816629
0.881313
0.82065
0.809273
0.800066
0.828331
0.810455
0.838751
0.808754
0.806921
0.812036
0.816437
0.829836
0.813539
0.822441
0.832443
0.814081
0.699474
0.690421
0.812917
0.817637
0.803734
0.812999
0.513616
0.85482
0.799703
0.806206
0.813819
0.813361
0.803939
0.812354
0.800414
0.801157
0.807961
0.81465
0.756785
0.784574
0.822844
0.842569
0.834735
0.800193
0.804989
0.803343
0.812882
0.805652
0.799457
0.799731
0.800963
0.810834
0.797779
0.802677
0.835412
0.831226
0.729664
0.66041
0.807548
0.698318
0.799424
0.571629
0.804386
0.806886
0.803039
0.818056
0.833673
0.813801
0.812726
0.810237
0.803823
0.881482
0.816153
0.804723
0.772198
0.585396
0.810214
0.806548
0.769297
0.814295
0.81375
0.791434
0.800676
0.804011
0.623708
0.830374
0.803489
0.781402
0.779253
0.852653
0.809965
0.802811
0.802528
0.810124
0.811028
0.518301
0.80174
0.839414
0.8138
0.798539
0.588503
0.814465
0.813946
0.812813
0.833646
0.813793
0.803899
0.82179
0.805504
0.575604
0.808597
0.736393
0.798477
0.813507
0.722103
0.814806
0.845878
0.831553
0.664367
0.89087
0.785542
0.777324
0.796842
0.77949
0.808558
0.849847
0.807903
0.802838
0.81342
0.808742
0.782564
0.785882
0.813757
0.808239
0.834782
0.821172
0.835615
0.801196
0.799598
0.812911
0.856553
0.816363
0.818269
0.813215
0.607194
0.79549
0.823796
0.829274
0.865846
0.812466
0.818853
0.508328
0.809622
0.800532
0.81248
0.81464
0.847519
0.812917
0.81106
0.881461
0.764458
0.812505
0.813104
0.808905
0.805186
0.814102
0.655789
0.800472
0.849462
0.833449
0.810509
0.813448
0.813235
0.80954
0.698707
0.812383
0.800096
0.838489
0.818364
0.811507
0.831243
0.792627
0.811436
0.817703
0.808714
0.819179
0.744125
0.854619
0.818854
0.813683
0.81292
0.812567
0.815601
0.817043
0.812612
0.81067
0.841
0.818483
0.800089
0.825221
0.826858
0.815941
0.814411
0.800301
0.801468
0.812908
0.818913
0.829341
0.812658
0.816342
0.799759
0.809843
0.812695
0.812663
0.802482
0.814539
0.813195
0.803212
0.812718
0.835573
0.799998
0.809313
0.821425
0.559729
0.814086
0.818052
0.815408
0.81489
0.821862
0.828736
0.815502
0.818723
0.701335
0.81292
0.801287
0.815494
0.818898
0.834998
0.821458
0.815463
0.829276
0.824839
0.810538
0.819149
0.819426
0.804114
0.813019
0.815482
0.819388
0.832022
0.812492
0.815576
0.802703
0.812791
0.812913
0.52218
0.62741
0.814313
0.821332
0.801675
0.822367
0.815784
0.84179
0.708021
0.813613
0.730327
0.817303
0.810194
0.813024
0.829264
0.813523
0.804788
0.812777
0.83
0.839182
0.81266
0.719102
0.819205
0.815911
0.799862
0.803019
0.815186
0.855865
0.812508
0.813236
0.84963
0.82892
0.843202
0.573057
0.829015
0.813813
0.810775
0.817282
0.850387
0.817647
0.718309
0.799478
0.831686
0.799703
0.799669
0.805352
0.747755
0.813261
0.814218
0.725299
0.81423
0.827265
0.813181
0.813905
0.799157
0.818261
0.812842
0.823441
0.808674
0.808097
0.814853
0.705281
0.818961
0.813952
0.812827
0.639698
0.718847
0.599215
0.8232
0.529106
0.853694
0.727241
0.842722
0.81239
0.722521
0.821332
0.815763
0.742473
0.807618
0.818237
0.794386
0.816404
0.81574
0.815669
0.812843
0.807764
0.803647
0.737214
0.836027
0.820058
0.81649
0.799168
0.815363
0.801928
0.815884
0.813326
0.85449
0.817656
0.496586
0.813183
0.818673
0.818546
0.77801
0.815675
0.8067
0.818508
0.845237
0.596251
0.809028
0.799238
0.815195
0.817502
0.817572
0.812312
0.818483
0.813736
0.814459
0.803059
0.814156
0.846034
0.813806
0.791978
0.81136
0.622383
0.718759
0.812922
0.816874
0.802903
0.822192
0.735426
0.803143
0.803179
0.820092
0.617204
0.817475
0.799285
0.815289
0.864527
0.785449
0.821837
0.817858
0.822672
0.813886
0.76954
0.802406
0.813431
0.902272
0.827092
0.816304
0.832139
0.80947
0.868059
0.71943
0.685127
0.852225
0.802691
0.657816
0.850191