# vtk DataFile Version 1.0
unstructured grid
ascii
DATASET UNSTRUCTURED_GRID
points 7812 float
-1 0 0
-1 1 0
2 0 0
2 1 0
0 0 0
1 0 0
-1 1 0.1
-1 0 0.1
0 0 0.1
1 0 0.1
2 0 0.1
2 1 0.1
-0.99 0 0
-0.98 0 0
-0.97 0 0
-0.96 0 0
-0.95 0 0
-0.94 0 0
-0.93 0 0
-0.92 0 0
-0.91 0 0
-0.9 0 0
-0.89 0 0
-0.88 0 0
-0.87 0 0
-0.86 0 0
-0.85 0 0
-0.84 0 0
-0.83 0 0
-0.82 0 0
-0.81 0 0
-0.8 0 0
-0.79 0 0
-0.78 0 0
-0.77 0 0
-0.76 0 0
-0.75 0 0
-0.74 0 0
-0.73 0 0
-0.72 0 0
-0.71 0 0
-0.7 0 0
-0.69 0 0
-0.68 0 0
-0.67 0 0
-0.66 0 0
-0.65 0 0
-0.64 0 0
-0.63 0 0
-0.62 0 0
-0.61 0 0
-0.6 0 0
-0.59 0 0
-0.58 0 0
-0.57 0 0
-0.56 0 0
-0.55 0 0
-0.54 0 0
-0.53 0 0
-0.52 0 0
-0.51 0 0
-0.5 0 0
-0.49 0 0
-0.48 0 0
-0.47 0 0
-0.46 0 0
-0.45 0 0
-0.44 0 0
-0.43 0 0
-0.42 0 0
-0.41 0 0
-0.4 0 0
-0.39 0 0
-0.38 0 0
-0.37 0 0
-0.36 0 0
-0.35 0 0
-0.34 0 0
-0.33 0 0
-0.32 0 0
-0.31 0 0
-0.3 0 0
-0.29 0 0
-0.28 0 0
-0.27 0 0
-0.26 0 0
-0.25 0 0
-0.24 0 0
-0.23 0 0
-0.22 0 0
-0.21 0 0
-0.2 0 0
-0.19 0 0
-0.18 0 0
-0.17 0 0
-0.16 0 0
-0.15 0 0
-0.14 0 0
-0.13 0 0
-0.12 0 0
-0.11 0 0
-0.1 0 0
-0.09 0 0
-0.08 0 0
-0.07 0 0
-0.06 0 0
-0.05 0 0
-0.04 0 0
-0.03 0 0
-0.02 0 0
-0.01 0 0
1.01 0 0
1.02 0 0
1.03 0 0
1.04 0 0
1.05 0 0
1.06 0 0
1.07 0 0
1.08 0 0
1.09 0 0
1.1 0 0
1.11 0 0
1.12 0 0
1.13 0 0
1.14 0 0
1.15 0 0
1.16 0 0
1.17 0 0
1.18 0 0
1.19 0 0
1.2 0 0
1.21 0 0
1.22 0 0
1.23 0 0
1.24 0 0
1.25 0 0
1.26 0 0
1.27 0 0
1.28 0 0
1.29 0 0
1.3 0 0
1.31 0 0
1.32 0 0
1.33 0 0
1.34 0 0
1.35 0 0
1.36 0 0
1.37 0 0
1.38 0 0
1.39 0 0
1.4 0 0
1.41 0 0
1.42 0 0
1.43 0 0
1.44 0 0
1.45 0 0
1.46 0 0
1.47 0 0
1.48 0 0
1.49 0 0
1.5 0 0
1.51 0 0
1.52 0 0
1.53 0 0
1.54 0 0
1.55 0 0
1.56 0 0
1.57 0 0
1.58 0 0
1.59 0 0
1.6 0 0
1.61 0 0
1.62 0 0
1.63 0 0
1.64 0 0
1.65 0 0
1.66 0 0
1.67 0 0
1.68 0 0
1.69 0 0
1.7 0 0
1.71 0 0
1.72 0 0
1.73 0 0
1.74 0 0
1.75 0 0
1.76 0 0
1.77 0 0
1.78 0 0
1.79 0 0
1.8 0 0
1.81 0 0
1.82 0 0
1.83 0 0
1.84 0 0
1.85 0 0
1.86 0 0
1.87 0 0
1.88 0 0
1.89 0 0
1.9 0 0
1.91 0 0
1.92 0 0
1.93 0 0
1.94 0 0
1.95 0 0
1.96 0 0
1.97 0 0
1.98 0 0
1.99 0 0
2 0.010289 0
2 0.0215307 0
2 0.0338135 0
2 0.0472336 0
2 0.0618965 0
2 0.0779171 0
2 0.0954213 0
2 0.114546 0
2 0.135442 0
2 0.158274 0
2 0.183219 0
2 0.210474 0
2 0.240253 0
2 0.27279 0
2 0.308339 0
2 0.347181 0
2 0.389619 0
2 0.435987 0
2 0.486649 0
2 0.542002 0
2 0.602481 0
2 0.66856 0
2 0.740758 0
2 0.819642 0
2 0.90583 0
1.9 1 0
1.8 1 0
1.7 1 0
1.6 1 0
1.5 1 0
1.4 1 0
1.3 1 0
1.2 1 0
1.1 1 0
1 1 0
0.9 1 0
0.8 1 0
0.7 1 0
0.6 1 0
0.5 1 0
0.4 1 0
0.3 1 0
0.2 1 0
0.1 1 0
3.69793e-12 1 0
-0.1 1 0
-0.2 1 0
-0.3 1 0
-0.4 1 0
-0.5 1 0
-0.6 1 0
-0.7 1 0
-0.8 1 0
-0.9 1 0
-1 0.90583 0
-1 0.819642 0
-1 0.740758 0
-1 0.66856 0
-1 0.602481 0
-1 0.542002 0
-1 0.486649 0
-1 0.435987 0
-1 0.389619 0
-1 0.347181 0
-1 0.308339 0
-1 0.27279 0
-1 0.240253 0
-1 0.210474 0
-1 0.183219 0
-1 0.158274 0
-1 0.135442 0
-1 0.114546 0
-1 0.0954213 0
-1 0.0779171 0
-1 0.0618965 0
-1 0.0472336 0
-1 0.0338135 0
-1 0.0215307 0
-1 0.010289 0
0.00921362 0.00379763 0
0.0184561 0.00752451 0
0.0277268 0.0111804 0
0.0370253 0.0147652 0
0.0463511 0.0182786 0
0.0557034 0.0217203 0
0.0650819 0.0250903 0
0.074486 0.0283883 0
0.083915 0.0316141 0
0.0933685 0.0347675 0
0.102846 0.0378484 0
0.112347 0.0408565 0
0.12187 0.0437917 0
0.131416 0.0466538 0
0.140983 0.0494427 0
0.150572 0.0521581 0
0.160181 0.0547999 0
0.16981 0.0573681 0
0.179458 0.0598623 0
0.189125 0.0622825 0
0.198811 0.0646285 0
0.208514 0.0669001 0
0.218234 0.0690974 0
0.227971 0.07122 0
0.237724 0.073268 0
0.247493 0.0752411 0
0.257276 0.0771393 0
0.267073 0.0789625 0
0.276884 0.0807105 0
0.286708 0.0823832 0
0.296545 0.0839806 0
0.306394 0.0855025 0
0.316254 0.0869488 0
0.326125 0.0883196 0
0.336006 0.0896146 0
0.345896 0.0908339 0
0.355796 0.0919773 0
0.365704 0.0930447 0
0.375621 0.0940362 0
0.385544 0.0949517 0
0.395474 0.095791 0
0.40541 0.0965542 0
0.415352 0.0972412 0
0.425299 0.097852 0
0.43525 0.0983865 0
0.445205 0.0988447 0
0.455164 0.0992266 0
0.465125 0.0995321 0
0.475088 0.0997613 0
0.485052 0.0999141 0
0.495017 0.0999904 0
0.504983 0.0999904 0
0.514948 0.0999141 0
0.524912 0.0997613 0
0.534875 0.0995321 0
0.544836 0.0992266 0
0.554795 0.0988447 0
0.56475 0.0983865 0
0.574701 0.097852 0
0.584648 0.0972412 0
0.59459 0.0965542 0
0.604526 0.095791 0
0.614456 0.0949517 0
0.624379 0.0940362 0
0.634296 0.0930447 0
0.644204 0.0919773 0
0.654104 0.0908339 0
0.663994 0.0896146 0
0.673875 0.0883196 0
0.683746 0.0869488 0
0.693606 0.0855025 0
0.703455 0.0839806 0
0.713292 0.0823832 0
0.723116 0.0807105 0
0.732927 0.0789625 0
0.742724 0.0771393 0
0.752508 0.0752411 0
0.762276 0.073268 0
0.772029 0.07122 0
0.781766 0.0690974 0
0.791486 0.0669001 0
0.801189 0.0646285 0
0.810875 0.0622825 0
0.820542 0.0598623 0
0.83019 0.0573681 0
0.839819 0.0547999 0
0.849428 0.0521581 0
0.859017 0.0494427 0
0.868584 0.0466538 0
0.87813 0.0437917 0
0.887653 0.0408565 0
0.897154 0.0378484 0
0.906631 0.0347675 0
0.916085 0.0316141 0
0.925514 0.0283883 0
0.934918 0.0250903 0
0.944297 0.0217203 0
0.953649 0.0182786 0
0.962975 0.0147652 0
0.972273 0.0111804 0
0.981544 0.00752451 0
0.990786 0.00379763 0
-1 0.90583 0.1
-1 0.819642 0.1
-1 0.740758 0.1
-1 0.66856 0.1
-1 0.602481 0.1
-1 0.542002 0.1
-1 0.486649 0.1
-1 0.435987 0.1
-1 0.389619 0.1
-1 0.347181 0.1
-1 0.308339 0.1
-1 0.27279 0.1
-1 0.240253 0.1
-1 0.210474 0.1
-1 0.183219 0.1
-1 0.158274 0.1
-1 0.135442 0.1
-1 0.114546 0.1
-1 0.0954213 0.1
-1 0.0779171 0.1
-1 0.0618965 0.1
-1 0.0472336 0.1
-1 0.0338135 0.1
-1 0.0215307 0.1
-1 0.010289 0.1
-0.99 0 0.1
-0.98 0 0.1
-0.97 0 0.1
-0.96 0 0.1
-0.95 0 0.1
-0.94 0 0.1
-0.93 0 0.1
-0.92 0 0.1
-0.91 0 0.1
-0.9 0 0.1
-0.89 0 0.1
-0.88 0 0.1
-0.87 0 0.1
-0.86 0 0.1
-0.85 0 0.1
-0.84 0 0.1
-0.83 0 0.1
-0.82 0 0.1
-0.81 0 0.1
-0.8 0 0.1
-0.79 0 0.1
-0.78 0 0.1
-0.77 0 0.1
-0.76 0 0.1
-0.75 0 0.1
-0.74 0 0.1
-0.73 0 0.1
-0.72 0 0.1
-0.71 0 0.1
-0.7 0 0.1
-0.69 0 0.1
-0.68 0 0.1
-0.67 0 0.1
-0.66 0 0.1
-0.65 0 0.1
-0.64 0 0.1
-0.63 0 0.1
-0.62 0 0.1
-0.61 0 0.1
-0.6 0 0.1
-0.59 0 0.1
-0.58 0 0.1
-0.57 0 0.1
-0.56 0 0.1
-0.55 0 0.1
-0.54 0 0.1
-0.53 0 0.1
-0.52 0 0.1
-0.51 0 0.1
-0.5 0 0.1
-0.49 0 0.1
-0.48 0 0.1
-0.47 0 0.1
-0.46 0 0.1
-0.45 0 0.1
-0.44 0 0.1
-0.43 0 0.1
-0.42 0 0.1
-0.41 0 0.1
-0.4 0 0.1
-0.39 0 0.1
-0.38 0 0.1
-0.37 0 0.1
-0.36 0 0.1
-0.35 0 0.1
-0.34 0 0.1
-0.33 0 0.1
-0.32 0 0.1
-0.31 0 0.1
-0.3 0 0.1
-0.29 0 0.1
-0.28 0 0.1
-0.27 0 0.1
-0.26 0 0.1
-0.25 0 0.1
-0.24 0 0.1
-0.23 0 0.1
-0.22 0 0.1
-0.21 0 0.1
-0.2 0 0.1
-0.19 0 0.1
-0.18 0 0.1
-0.17 0 0.1
-0.16 0 0.1
-0.15 0 0.1
-0.14 0 0.1
-0.13 0 0.1
-0.12 0 0.1
-0.11 0 0.1
-0.1 0 0.1
-0.09 0 0.1
-0.08 0 0.1
-0.07 0 0.1
-0.06 0 0.1
-0.05 0 0.1
-0.04 0 0.1
-0.03 0 0.1
-0.02 0 0.1
-0.01 0 0.1
0.00921362 0.00379763 0.1
0.0184561 0.00752451 0.1
0.0277268 0.0111804 0.1
0.0370253 0.0147652 0.1
0.0463511 0.0182786 0.1
0.0557034 0.0217203 0.1
0.0650819 0.0250903 0.1
0.074486 0.0283883 0.1
0.083915 0.0316141 0.1
0.0933685 0.0347675 0.1
0.102846 0.0378484 0.1
0.112347 0.0408565 0.1
0.12187 0.0437917 0.1
0.131416 0.0466538 0.1
0.140983 0.0494427 0.1
0.150572 0.0521581 0.1
0.160181 0.0547999 0.1
0.16981 0.0573681 0.1
0.179458 0.0598623 0.1
0.189125 0.0622825 0.1
0.198811 0.0646285 0.1
0.208514 0.0669001 0.1
0.218234 0.0690974 0.1
0.227971 0.07122 0.1
0.237724 0.073268 0.1
0.247493 0.0752411 0.1
0.257276 0.0771393 0.1
0.267073 0.0789625 0.1
0.276884 0.0807105 0.1
0.286708 0.0823832 0.1
0.296545 0.0839806 0.1
0.306394 0.0855025 0.1
0.316254 0.0869488 0.1
0.326125 0.0883196 0.1
0.336006 0.0896146 0.1
0.345896 0.0908339 0.1
0.355796 0.0919773 0.1
0.365704 0.0930447 0.1
0.375621 0.0940362 0.1
0.385544 0.0949517 0.1
0.395474 0.095791 0.1
0.40541 0.0965542 0.1
0.415352 0.0972412 0.1
0.425299 0.097852 0.1
0.43525 0.0983865 0.1
0.445205 0.0988447 0.1
0.455164 0.0992266 0.1
0.465125 0.0995321 0.1
0.475088 0.0997613 0.1
0.485052 0.0999141 0.1
0.495017 0.0999904 0.1
0.504983 0.0999904 0.1
0.514948 0.0999141 0.1
0.524912 0.0997613 0.1
0.534875 0.0995321 0.1
0.544836 0.0992266 0.1
0.554795 0.0988447 0.1
0.56475 0.0983865 0.1
0.574701 0.097852 0.1
0.584648 0.0972412 0.1
0.59459 0.0965542 0.1
0.604526 0.095791 0.1
0.614456 0.0949517 0.1
0.624379 0.0940362 0.1
0.634296 0.0930447 0.1
0.644204 0.0919773 0.1
0.654104 0.0908339 0.1
0.663994 0.0896146 0.1
0.673875 0.0883196 0.1
0.683746 0.0869488 0.1
0.693606 0.0855025 0.1
0.703455 0.0839806 0.1
0.713292 0.0823832 0.1
0.723116 0.0807105 0.1
0.732927 0.0789625 0.1
0.742724 0.0771393 0.1
0.752508 0.0752411 0.1
0.762276 0.073268 0.1
0.772029 0.07122 0.1
0.781766 0.0690974 0.1
0.791486 0.0669001 0.1
0.801189 0.0646285 0.1
0.810875 0.0622825 0.1
0.820542 0.0598623 0.1
0.83019 0.0573681 0.1
0.839819 0.0547999 0.1
0.849428 0.0521581 0.1
0.859017 0.0494427 0.1
0.868584 0.0466538 0.1
0.87813 0.0437917 0.1
0.887653 0.0408565 0.1
0.897154 0.0378484 0.1
0.906631 0.0347675 0.1
0.916085 0.0316141 0.1
0.925514 0.0283883 0.1
0.934918 0.0250903 0.1
0.944297 0.0217203 0.1
0.953649 0.0182786 0.1
0.962975 0.0147652 0.1
0.972273 0.0111804 0.1
0.981544 0.00752451 0.1
0.990786 0.00379763 0.1
1.01 0 0.1
1.02 0 0.1
1.03 0 0.1
1.04 0 0.1
1.05 0 0.1
1.06 0 0.1
1.07 0 0.1
1.08 0 0.1
1.09 0 0.1
1.1 0 0.1
1.11 0 0.1
1.12 0 0.1
1.13 0 0.1
1.14 0 0.1
1.15 0 0.1
1.16 0 0.1
1.17 0 0.1
1.18 0 0.1
1.19 0 0.1
1.2 0 0.1
1.21 0 0.1
1.22 0 0.1
1.23 0 0.1
1.24 0 0.1
1.25 0 0.1
1.26 0 0.1
1.27 0 0.1
1.28 0 0.1
1.29 0 0.1
1.3 0 0.1
1.31 0 0.1
1.32 0 0.1
1.33 0 0.1
1.34 0 0.1
1.35 0 0.1
1.36 0 0.1
1.37 0 0.1
1.38 0 0.1
1.39 0 0.1
1.4 0 0.1
1.41 0 0.1
1.42 0 0.1
1.43 0 0.1
1.44 0 0.1
1.45 0 0.1
1.46 0 0.1
1.47 0 0.1
1.48 0 0.1
1.49 0 0.1
1.5 0 0.1
1.51 0 0.1
1.52 0 0.1
1.53 0 0.1
1.54 0 0.1
1.55 0 0.1
1.56 0 0.1
1.57 0 0.1
1.58 0 0.1
1.59 0 0.1
1.6 0 0.1
1.61 0 0.1
1.62 0 0.1
1.63 0 0.1
1.64 0 0.1
1.65 0 0.1
1.66 0 0.1
1.67 0 0.1
1.68 0 0.1
1.69 0 0.1
1.7 0 0.1
1.71 0 0.1
1.72 0 0.1
1.73 0 0.1
1.74 0 0.1
1.75 0 0.1
1.76 0 0.1
1.77 0 0.1
1.78 0 0.1
1.79 0 0.1
1.8 0 0.1
1.81 0 0.1
1.82 0 0.1
1.83 0 0.1
1.84 0 0.1
1.85 0 0.1
1.86 0 0.1
1.87 0 0.1
1.88 0 0.1
[...]
CELL_DATA 7425
SCALARS rho float
LOOKUP_TABLE default
0.628536
0.806782
0.830611
0.837489
0.802529
0.830063
0.830498
0.826125
0.825462
0.753622
0.869725
0.812767
0.825962
0.837346
0.807194
0.828564
0.801273
0.825584
0.804738
0.775385
0.840935
0.824723
0.740843
0.83806
0.805321
0.735078
0.840746
0.853459
0.80231
0.810992
0.829138
0.728042
0.804924
0.686215
0.629206
0.83803
0.804817
0.826113
0.813873
0.837605
0.743607
0.73345
0.80112
0.68582
0.641507
0.758693
0.811278
0.825915
0.707742
0.722072
0.750746
0.806958
0.815433
0.801767
0.706341
0.664981
0.833534
0.802055
0.753547
0.721763
0.742882
0.809895
0.82557
0.80195
0.800997
0.828932
0.625088
0.785864
0.667894
0.810958
0.807228
0.803876
0.888363
0.823823
0.814064
0.825511
0.806831
0.80241
0.825562
0.762161
0.827591
0.80947
0.822555
0.793338
0.843972
0.804079
0.613821
0.839276
0.622216
0.856316
0.687979
0.74538
0.850359
0.804292
0.828749
0.77767
0.839515
0.792977
0.835923
0.806043
0.819957
0.743085
0.80457
0.837851
0.63462
0.813793
0.834498
0.73273
0.826796
0.802088
0.828115
0.789609
0.794217
0.81496
0.8009
0.791585
0.840779
0.803722
0.692713
0.692915
0.806867
0.789426
0.825451
0.795243
0.866066
0.843417
0.809887
0.814739
0.688061
0.61931
0.826318
0.68902
0.624925
0.873135
0.706646
0.802651
0.814227
0.743121
0.622045
0.746292
0.749526
0.813137
0.822029
0.702991
0.806042
0.784571
0.604133
0.802368
0.786456
0.837814
0.826599
0.68756
0.80629
0.749105
0.703995
0.804736
0.813156
0.840161
0.808683
0.702615
0.804253
0.686781
0.804128
0.839573
0.831367
0.803244
0.825496
0.796423
0.808916
0.803798
0.830746
0.808303
0.80468
0.802026
0.801933
0.759097
0.807213
0.778024
0.653486
0.680931
0.802556
0.805058
0.884988
0.840984
0.680139
0.833545
0.801365
0.831462
0.802682
0.825614
0.825264
0.804355
0.809621
0.703816
0.8268
0.830175
0.778017
0.809082
0.865787
0.810051
0.815089
0.823669
0.646633
0.843457
0.612509
0.629893
0.633136
0.675101
0.831792
0.884601
0.809685
0.800866
0.848938
0.825514
0.828078
0.831639
0.826948
0.663463
0.673679
0.825851
0.625723
0.651125
0.699247
0.823459
0.825998
0.825512
0.842461
0.825595
0.869402
0.705115
0.838529
0.745129
0.807971
0.805351
0.803259
0.73506
0.742439
0.647577
0.692875
0.870375
0.881008
0.818416
0.809895
0.811027
0.814989
0.742171
0.832394
0.803543
0.835875
0.798468
0.822292
0.723984
0.825467
0.834254
0.760001
0.599329
0.802119
0.740924
0.846527
0.826207
0.729516
0.827226
0.826675
0.856929
0.821736
0.808084
0.804308
0.835946
0.867757
0.80937
0.646645
0.856656
0.816635
0.807505
0.837529
0.845433
0.825282
0.831999
0.797904
0.826858
0.871883
0.857005
0.830985
0.845839
0.804351
0.828571
0.803888
0.764124
0.733501
0.621735
0.691441
0.814266
0.82539
0.827597
0.859651
0.786062
0.671632
0.837212
0.631001
0.786504
0.803961
0.67247
0.658004
0.66452
0.826957
0.825566
0.825511
0.824825
0.836882
0.779443
0.81402
0.804376
0.825597
0.849402
0.872677
0.842819
0.804761
0.685667
0.807334
0.842436
0.713932
0.801439
0.803167
0.871147
0.828523
0.627068
0.825601
0.760556
0.857215
0.753525
0.822377
0.911326
0.803089
0.800267
0.685945
0.663421
0.708377
0.795618
0.836656
0.826738
0.825829
0.888222
0.862438
0.802643
0.809567
0.828701
0.76016
0.806121
0.884964
0.802645
0.808876
0.803856
0.803437
0.825245
0.827377
0.827895
0.676386
0.833609
0.698289
0.812395
0.679045
0.814386
0.803254
0.843478
0.755531
0.819299
0.820407
0.8284
0.801915
0.803316
0.81449
0.734029
0.827185
0.825491
0.825208
0.802197
0.744653
0.600754
0.808584
0.823472
0.804186
0.825543
0.799528
0.65754
0.849511
0.82555
0.805257
0.79734
0.825581
0.807719
0.805985
0.827803
0.809702
0.833142
0.7779
0.822414
0.810039
0.605101
0.806836
0.665526
0.846452
0.664217
0.826438
0.883594
0.667466
0.821389
0.765115
0.806428
0.878942
0.632008
0.833636
0.832955
0.804911
0.836014
0.814332
0.834002
0.840359
0.835105
0.75903
0.837586
0.765632
0.813703
0.797984
0.805136
0.773487
0.807613
0.803039
0.825818
0.773215
0.807488
0.640556
0.64834
0.726228
0.825129
0.852379
0.87152
0.839266
0.801393
0.82529
0.807845
0.829063
0.703333
0.803692
0.755346
0.832798
0.826413
0.809737
0.707086
0.746731
0.609247
0.636737
0.804241
0.641596
0.805345
0.770139
0.779013
0.729219
0.777155
0.78279
0.821738
0.826747
0.830605
0.823951
0.740696
0.67708
0.847707
0.818848
0.789088
0.814238
0.804673
0.845674
0.747818
0.862707
0.768652
0.754403
0.78086
0.823347
0.61547
0.801539
0.850238
0.816887
0.825893
0.821935
0.802288
0.795415
0.843891
0.804092
0.851471
0.73195
0.704732
0.802174
0.806659
0.832694
0.734072
0.855997
0.803952
0.827587
0.801277
0.785653
0.812498
0.628721
0.700349
0.659477
0.82499
0.813858
0.836433
0.76342
0.813067
0.826644
0.831303
0.801869
0.756206
0.809721
0.818761
0.80414
0.737645
0.825756
0.829827
0.843267
0.823257
0.835664
0.868554
0.863987
0.764393
0.636849
0.845834
0.808985
0.85087
0.826199
0.826391
0.825722
0.825905
0.694869
0.809573
0.82066
0.825498
0.802981
0.820441
0.808462
0.865548
0.801472
0.82542
0.826567
0.878028
0.631331
0.825654
0.846912
0.888304
0.601597
0.827927
0.833555
0.799475
0.817776
0.806375
0.873971
0.822501
0.841004
0.817215
0.650802
0.803652
0.805733
0.727959
0.860003
0.763882
0.80541
0.825976
0.825109
0.864637
0.798685
0.842191
0.844008
0.798737
0.8286
0.846591
0.802809
0.814668
0.811002
0.807178
0.826103
0.803485
0.85325
0.774043
0.812873
0.804725
0.825144
0.745225
0.825512
0.829585
0.766612
0.825751
0.826799
0.831757
0.835401
0.803715
0.802818
0.85752
0.771867
0.829734
0.852377
0.806483
0.621363
0.825374
0.838268
0.859259
0.824394
0.803819
0.812171
0.861866
0.783997
0.804269
0.804017
0.825538
0.753565
0.805493
0.833338
0.812571
0.798674
0.806804
0.851664
0.808719
0.85262
0.803006
0.834705
0.824911
0.805752
0.849432
0.82534
0.714207
0.829952
0.809306
0.824983
0.90987
0.802784
0.826711
0.802178
0.802564
0.827771
0.802684
0.804807
0.787373
0.751649
0.818669
0.825526
0.772692
0.804747
0.833545
0.815556
0.832959
0.809219
0.836052
0.880839
0.840371
0.662326
0.72644
0.849446
0.828681
0.852234
0.826509
0.857513
0.811409
0.822294
0.80201
0.847108
0.867873
0.860392
0.753013
0.82611
0.832678
0.747429
0.821487
0.780697
0.802047
0.753172
0.827654
0.840574
0.826195
0.867044
0.826126
0.825602
0.822243
0.826431
0.844318
0.81471
0.801192
0.812703
0.758573
0.823873
0.778156
0.84182
0.817038
0.664342
0.784111
0.815101
0.801762
0.830856
0.806049
0.826465
0.828693
0.807488
0.830402
0.805855
0.810039
0.659725
0.855171
0.83542
0.836875
0.819139
0.804645
0.721051
0.811085
0.911521
0.825532
0.804696
0.825051
0.788346
0.81157
0.825265
0.832118
0.817234
0.82556
0.827812
0.673679
0.79184
0.781007
0.825062
0.808265
0.804659
0.65295
0.809855
0.806023
0.732723
0.840868
0.828594
0.804857
0.811293
0.801527
0.828556
0.824105
0.8256
0.825544
0.727212
0.840733
0.803486
0.811704
0.846398
0.821746
0.8278
0.802861
0.758307
0.833987
0.800874
0.832198
0.794348
0.810009
0.831832
0.745686
0.828207
0.705338
0.878133
0.725133
0.853289
0.813294
0.88064
0.798119
0.803491
0.831589
0.839927
0.8414
0.835372
0.830859
0.826319
0.813181
0.807148
0.811052
0.753326
0.830646
0.802028
0.722629
0.839629
0.678386
0.803383
0.865352
0.807556
0.733301
0.801911
0.826111
0.700239
0.789398
0.830406
0.840546
0.819156
0.681011
0.754106
0.815393
0.805093
0.825548
0.803528
0.753038
0.825958
0.827383
0.8251
0.787496
0.804319
0.806252
0.807795
0.601621
0.82538
0.837142
0.643685
0.826938
0.827701
0.826558
0.829596
0.826317
0.83492
0.80223
0.798072
0.775103
0.826103
0.832746
0.82826
0.83992
0.776031
0.821266
0.753472
0.777454
0.812834
0.831937
0.825551
0.802603
0.862986
0.825537
0.812838
0.821903
0.827608
0.826945
0.84573
0.826409
0.825318
0.814425
0.825909
0.803755
0.831804
0.805346
0.833468
0.825694
0.639713
0.825723
0.843786
0.862714
0.841421
0.638633
0.828268
0.815256
0.617209
0.7081
0.700796
0.843093
0.81834
0.814124
0.825164
0.803767
0.828228
0.814176
0.61016
0.723808
0.821301
0.80869
0.827257
0.804775
0.812772
0.82336
0.830988
0.801638
0.730293
0.861026
0.803745
0.817298
0.825698
0.771143
0.637551
0.842375
0.816936
0.74537
0.80337
0.810837
0.66431
0.831135
0.826498
0.83778
0.829957
0.830543
0.806457
0.748794
0.669557
0.60409
0.835652
0.812961
0.786774
0.825463
0.793896
0.829199
0.878936
0.775367
0.832403
0.825467
0.836022
0.888865
0.826325
0.824108
0.805846
0.816397
0.722397
0.838208
0.802136
0.814758
0.803546
0.789716
0.861684
0.832706
0.848135
0.832323
0.761414
0.765345
0.807244
0.829188
0.803787
0.807153
0.805415
0.790434
0.826488
0.773493
0.825462
0.685502
0.825953
0.805519
0.738221
0.832003
0.828557
0.754963
0.804699
0.771977
0.886296
0.802261
0.825529
0.777396
0.803573
0.826236
0.80552
0.628918
0.824463
0.809554
0.813803
0.826429
0.835618
0.769982
0.809471
0.846188
0.831318
0.817252
0.845024
0.671915
0.719499
0.825549
0.758881
0.832933
0.783758
0.825511
0.803692
0.820727
0.766244
0.797401
0.77973
0.821964
0.80373
0.658104
0.783745
0.80122
0.853783
0.826308
0.838605
0.621447
0.827995
0.789974
0.865873
0.802664
0.821335
0.803746
0.798121
0.801366
0.835611
0.843689
0.825258
0.828428
0.705587
0.788094
0.826506
0.807256
0.822535
0.805574
0.698578
0.804276
0.806173
0.814834
0.831168
0.858137
0.841456
0.825692
0.802414
0.807526
0.804669
0.786316
0.645056
0.812763
0.754797
0.689091
0.833169
0.801246
0.781261
0.802808
0.768037
0.790625
0.824174
0.826247
0.814701
0.827521
0.827739
0.829633
0.82565
0.818955
0.72938
0.719461
0.66663
0.839157
0.875762
0.824658
0.844669
0.855656
0.869955
0.758096
0.827364
0.869481
0.821416
0.825595
0.826477
0.753112
0.824189
0.810958
0.810292
0.61147
0.825502
0.771367
0.825467
0.816728
0.804767
0.702758
0.825485
0.64352
0.82846
0.805259
0.831048
0.862588
0.804703
0.798719
0.831806
0.823686
0.808417
0.77212
0.627307
0.831704
0.805335
0.833578
0.835994
0.814509
0.809138
0.843061
0.742862
0.64021
0.89123
0.812454
0.82736
0.806148
0.708716
0.801261
0.802965
0.826857
0.761309
0.671522
0.888264
0.734454
0.84565
0.824208
0.842367
0.851105
0.805531
0.806423
0.825668
0.85968
0.753469
0.87642
0.826051
0.607223
0.806235
0.752883
0.860514
0.776994
0.805964
0.805484
0.80217
0.803082
0.82114
0.825578
0.859801
0.809925
0.803456
0.802543
0.802682
0.824951
0.828339
0.803285
0.825198
0.857148
0.803617
0.795869
0.803056
0.843836
0.753947
0.825786
0.825835
0.692346
0.733492
0.808532
0.833388
0.807863
0.62226
0.861169
0.825193
0.837355
0.807125
0.804324
0.802568
0.799246
0.621466
0.807096
0.827696
0.839008
0.831495
0.82553
0.810916
0.76407
0.805191
0.783407
0.79276
0.802093
0.794848
0.7553
0.80354
0.816169
0.822586
0.840708
0.853587
0.615399
0.850512
0.825571
0.823458
0.804858
0.825346
0.823824
0.89912
0.810625
0.872304
0.808336
0.776463
0.868412
0.804231
0.801989
0.834355
0.68502
0.670516
0.804575
0.805361
0.671302
0.678941
0.801614
0.834291
0.825515
0.83325
0.749758
0.827114
0.825242
0.836371
0.827771
0.814445
0.825593
0.768786
0.807611
0.827267
0.824074
0.697675
0.613225
0.82563
0.674664
0.738377
0.605724
0.849947
0.802902
0.638634
0.63445
0.83613
0.911751
0.829384
0.677323
0.826103
0.798737
0.804593
0.791089
0.825178
0.82152
0.793449
0.831707
0.813374
0.629579
0.829113
0.781158
0.827413
0.697195
0.832893
0.802154
0.825952
0.803221
0.687084
0.85097
0.816879
0.810709
0.629444
0.828289
0.80299
0.856963
0.711347
0.828508
0.671559
0.749549
0.804126
0.808186
0.759114
0.740202
0.714735
0.637799
0.682189
0.803312
0.637117
0.83326
0.658057
0.770951
0.710137
0.684258
0.639964
0.76035
0.803834
0.712869
0.832125
0.802857
0.805628
0.774737
0.894507
0.80193
0.83486
0.804862
0.825454
0.724971
0.811397
0.752581
0.832659
0.891141
0.842391
0.764207
0.833363
0.784188
0.88507
0.805752
0.772113
0.858494
0.790029
0.801644
0.809473
0.771887
0.767616
0.71022
0.806734
0.803881
0.828995
0.842811
0.641142
0.812192
0.625074
0.691156
0.681364
0.822879
0.831868
0.821194
0.80564
0.645858
0.878082
0.80331
0.803494
0.870278
0.825153
0.780686
0.824889
0.803116
0.829203
0.803629
0.734891
0.806282
0.705265
0.801492
0.815737
0.802657
0.664507
0.822027
0.820335
0.733855
0.821952
0.614985
0.616849
0.806177
0.716598
0.742193
0.612087
0.747564
0.825773
0.69762
0.780696
0.716497
0.822283
0.693634
0.775563
0.809312
0.822574
0.691143
0.802957
0.899644
0.800848
0.828272
0.655768
0.715944
0.813381
0.825534
0.825985
0.858776
0.825007
0.806897
0.80588
0.804499
0.735237
0.718477
0.650096
0.786567
0.648457
0.725103
0.822063
0.826235
0.810046
0.802271
0.670456
0.821194
0.805346
0.620357
0.632638
0.761212
0.805163
0.81776
0.606384
0.802277
0.619544
0.750722
0.644444
0.817379
0.805076
0.636181
0.64155
0.874166
0.813287
0.778728
0.742329
0.678673
0.679946
0.703379
0.827459
0.773099
0.769408
0.656296
0.76984
0.821365
0.827059
0.825098
0.827181
0.870375
0.771822
0.830017
0.806167
0.858633
0.825577
0.80366
0.825433
0.722982
0.824475
0.82364
0.826679
0.82292
0.827307
0.804309
0.829119
0.822259
0.82171
0.828529
0.802037
0.827931
0.830083
0.690936
0.829781
0.87475
0.82939
0.796707
0.672544
0.865689
0.829958
0.835266
0.802398
0.823925
0.761483
0.860181
0.668668
0.754829
0.812403
0.827332
0.805585
0.804525
0.841621
0.809757
0.808183
0.827012
0.792367
0.847457
0.850313
0.825857
0.688475
0.687285
0.827407
0.827994
0.802234
0.857511
0.854923
0.815214
0.825165
0.791077
0.825957
0.829067
0.826012
0.829939
0.817336
0.827462
0.85878
0.827584
0.826075
0.828906
0.829036
0.790246
0.825672
0.807739
0.808313
0.808086
0.829767
0.824106
0.800612
0.757749
0.82491
0.808341
0.820977
0.808427
0.864351
0.806438
0.825835
0.825194
0.808412
0.660171
0.805402
0.82527
0.819263
0.812757
0.825341
0.825516
0.825447
0.812572
0.870538
0.630219
0.825395
0.849959
0.825116
0.804487
0.811169
0.826802
0.848458
0.803467
0.804965
0.822209
0.673658
0.825436
0.811771
0.811453
0.824875
0.825348
0.825427
0.825626
0.62935
0.81548
0.743923
0.890803
0.831635
0.735987
0.704501
0.827089
0.8078
0.822541
0.6718
0.803478
0.825612
0.673034
0.802806
0.80598
0.819889
0.816239
0.864018
0.812252
0.640102
0.803237
0.779091
0.814052
0.89392
0.814266
0.818272
0.822841
0.840359
0.825647
0.833085
0.845231
0.66397
0.814147
0.680489
0.825847
0.825773
0.710845
0.825686
0.816621
0.712933
0.825888
0.723178
0.868003
0.788574
0.826254
0.825483
0.82561
0.700174
0.825801
0.658932
0.802382
0.796984
0.832889
0.826943
0.731977
0.770851
0.839828
0.825027
0.830274
0.832639
0.825667
0.83565
0.802031
0.600992
0.759292
0.771697
0.73358
0.846606
0.826867
0.837646
0.791873
0.804121
0.82551
0.825527
0.825513
0.782474
0.608758
0.804352
0.640582
0.818852
0.828736
0.802531
0.805299
0.817474
0.808815
0.795886
0.742584
0.825635
0.865735
0.824149
0.801723
0.740471
0.814116
0.79342
0.841822
0.64778
0.799075
0.817997
0.801466
0.702265
0.825229
0.822036
0.861694
0.608615
0.809578
0.804291
0.82502
0.673533
0.825477
0.804325
0.804525
0.804314
0.825538
0.825591
0.827571
0.825505
0.716639
0.806224
0.804139
0.825514
0.900516
0.825508
0.787521
0.844764
0.801151
0.803878
0.635402
0.825451
0.804453
0.830067
0.805735
0.872751
0.825336
0.8576
0.803393
0.831486
0.784823
0.612037
0.771069
0.806808
0.81616
0.816492
0.825821
0.606934
0.86809
0.862444
0.784534
0.7645
0.742509
0.816554
0.852269
0.825464
0.817129
0.825496
0.805959
0.729859
0.805054
0.8016
0.768122
0.834612
0.833592
0.868102
0.827202
0.825524
0.667607
0.811216
0.82549
0.803161
0.786486
0.820799
0.803852
0.825112
0.837021
0.801889
0.80642
0.803249
0.82597
0.847795
0.805742
0.801433
0.805075
0.770415
0.83086
0.614658
0.874256
0.80514
0.600425
0.806306
0.81396
0.823615
0.684138
0.642403
0.80429
0.807331
0.803698
0.867052
0.784435
0.825732
0.804435
0.870823
0.806436
0.806076
0.835109
0.827006
0.82441
0.831996
0.831179
0.873368
0.745956
0.85912
0.828506
0.678729
0.805283
0.804817
0.805368
0.831942
0.833929
0.806768
0.803853
0.802713
0.8333
0.805883
0.805077
0.8024
0.834798
0.805444
0.803637
0.808148
0.837735
0.803954
0.804269
0.82888
0.80189
0.827087
0.676595
0.836567
0.857194
0.807596
0.830616
0.804619
0.838656
0.84647
0.804519
0.832214
0.802558
0.810805
0.794057
0.803735
0.805857
0.808364
0.808787
0.807999
0.829648
0.826583
0.813769
0.841023
0.805597
0.803352
0.802563
0.792833
0.842946
0.804554
0.830368
0.826939
0.809904
0.80829
0.803599
0.847491
0.869641
0.802299
0.700251
0.803058
0.850671
0.828056
0.809038
0.806066
0.822946
0.852547
0.686294
0.833202
0.80685
0.855279
0.829837
0.814703
0.816413
0.812038
0.805411
0.815652
0.811282
0.626823
0.855969
0.798648
0.826152
0.862006
0.830356
0.776357
0.811643
0.826354
0.826816
0.806346
0.686369
0.813366
0.869878
0.813289
0.802661
0.79027
0.876975
0.802091
0.882544
0.816863
0.828522
0.831502
0.805988
0.806671
0.825011
0.827469
0.807203
0.825487
0.820822
0.886646
0.824173
0.811743
0.803331
0.837719
0.813107
0.843167
0.812078
0.809064
0.81638
0.828037
0.838812
0.825666
0.832816
0.835841
0.818373
0.734099
0.704824
0.825396
0.82904
0.807705
0.825303
0.649165
0.861584
0.802004
0.808249
0.825707
0.825554
0.805573
0.824733
0.8031
0.803432
0.811607
0.824947
0.774856
0.796094
0.833485
0.847251
0.838089
0.803042
0.816733
0.804506
0.815806
0.808646
0.802165
0.802195
0.802954
0.820639
0.801427
0.806314
0.844665
0.835656
0.751109
0.673065
0.810982
0.735279
0.802493
0.671094
0.806198
0.809783
0.806435
0.829395
0.83807
0.825959
0.825351
0.8127
0.806476
0.886891
0.827802
0.80877
0.780112
0.673989
0.812601
0.810521
0.778021
0.826306
0.825929
0.795625
0.803912
0.805649
0.696734
0.83893
0.804753
0.796183
0.786024
0.859803
0.812341
0.80642
0.806352
0.815013
0.813621
0.638798
0.803907
0.848292
0.825965
0.802495
0.64417
0.818082
0.826052
0.825567
0.843082
0.825943
0.805905
0.832618
0.810107
0.617532
0.811185
0.759305
0.802259
0.825767
0.733692
0.826716
0.850457
0.834711
0.688777
0.895505
0.791146
0.792201
0.800935
0.784642
0.811912
0.854423
0.811817
0.804565
0.825713
0.820964
0.788643
0.791219
0.825816
0.812334
0.837858
0.831751
0.838735
0.813413
0.804584
0.825514
0.86388
0.827037
0.822177
0.825597
0.639279
0.799449
0.833945
0.837741
0.872428
0.825209
0.822476
0.639543
0.821858
0.803176
0.824768
0.819171
0.855263
0.825438
0.813625
0.886655
0.775295
0.815457
0.825467
0.821055
0.807842
0.826163
0.680916
0.803551
0.857394
0.836523
0.814522
0.824951
0.825601
0.811951
0.721387
0.824008
0.803356
0.847445
0.829567
0.815924
0.840178
0.805611
0.823184
0.828973
0.813005
0.830344
0.766081
0.858903
0.830058
0.818011
0.825459
0.825162
0.827097
0.828384
0.82524
0.822535
0.849454
0.829729
0.803065
0.828418
0.836507
0.82023
0.81754
0.803115
0.803502
0.825497
0.83013
0.832537
0.825316
0.827759
0.802914
0.821816
0.825376
0.825188
0.80405
0.826509
0.825525
0.806886
0.825424
0.844633
0.803658
0.82138
0.825845
0.619601
0.82611
0.829348
0.826471
0.826467
0.832591
0.838165
0.827171
0.829966
0.721284
0.825514
0.803506
0.827262
0.823085
0.83809
0.83232
0.824841
0.839208
0.835282
0.823097
0.821822
0.823861
0.81629
0.825526
0.82725
0.822698
0.84165
0.824944
0.827321
0.80361
0.825507
0.825413
0.647378
0.676748
0.817122
0.832218
0.804478
0.832804
0.827501
0.845049
0.72692
0.825826
0.747429
0.827566
0.822254
0.825508
0.838433
0.825761
0.809033
0.825474
0.838813
0.843967
0.825072
0.736871
0.822679
0.827527
0.802281
0.803717
0.827016
0.862935
0.825073
0.825614
0.857276
0.83768
0.850725
0.660022
0.838844
0.825943
0.822747
0.828745
0.855117
0.829051
0.73528
0.802179
0.834775
0.802975
0.802232
0.808072
0.762298
0.825623
0.826167
0.749219
0.826139
0.83044
0.825491
0.825859
0.801919
0.829516
0.825525
0.82777
0.811065
0.819604
0.82639
0.684431
0.830167
0.825937
0.825544
0.680353
0.718429
0.632531
0.82644
0.658855
0.85838
0.743429
0.845946
0.824807
0.752015
0.830345
0.827291
0.757401
0.810457
0.829551
0.798008
0.827859
0.827459
0.82739
0.825509
0.820029
0.804957
0.752577
0.840473
0.830914
0.82797
0.801473
0.81847
0.80588
0.827579
0.825548
0.858832
0.828968
0.649819
0.82481
0.829912
0.829816
0.784377
0.818768
0.808855
0.821556
0.849847
0.635325
0.813091
0.802182
0.827005
0.828887
0.828921
0.824815
0.829756
0.825379
0.826146
0.804392
0.825817
0.854302
0.825731
0.795879
0.823553
0.654412
0.720715
0.825508
0.828374
0.804826
0.832966
0.739307
0.803746
0.803631
0.831146
0.667177
0.828905
0.802307
0.8271
0.869649
0.790955
0.832655
0.829229
0.827056
0.826013
0.777691
0.803554
0.825657
0.906242
0.830288
0.827928
0.835271
0.821957
0.873347
0.720098
0.676964
0.856208
0.803753
0.670451