# vtk DataFile Version 1.0
unstructured grid
ascii
DATASET UNSTRUCTURED_GRID
points 7812 float
-1 0 0
-1 1 0
2 0 0
2 1 0
0 0 0
1 0 0
-1 1 0.1
-1 0 0.1
0 0 0.1
1 0 0.1
2 0 0.1
2 1 0.1
-0.99 0 0
-0.98 0 0
-0.97 0 0
-0.96 0 0
-0.95 0 0
-0.94 0 0
-0.93 0 0
-0.92 0 0
-0.91 0 0
-0.9 0 0
-0.89 0 0
-0.88 0 0
-0.87 0 0
-0.86 0 0
-0.85 0 0
-0.84 0 0
-0.83 0 0
-0.82 0 0
-0.81 0 0
-0.8 0 0
-0.79 0 0
-0.78 0 0
-0.77 0 0
-0.76 0 0
-0.75 0 0
-0.74 0 0
-0.73 0 0
-0.72 0 0
-0.71 0 0
-0.7 0 0
-0.69 0 0
-0.68 0 0
-0.67 0 0
-0.66 0 0
-0.65 0 0
-0.64 0 0
-0.63 0 0
-0.62 0 0
-0.61 0 0
-0.6 0 0
-0.59 0 0
-0.58 0 0
-0.57 0 0
-0.56 0 0
-0.55 0 0
-0.54 0 0
-0.53 0 0
-0.52 0 0
-0.51 0 0
-0.5 0 0
-0.49 0 0
-0.48 0 0
-0.47 0 0
-0.46 0 0
-0.45 0 0
-0.44 0 0
-0.43 0 0
-0.42 0 0
-0.41 0 0
-0.4 0 0
-0.39 0 0
-0.38 0 0
-0.37 0 0
-0.36 0 0
-0.35 0 0
-0.34 0 0
-0.33 0 0
-0.32 0 0
-0.31 0 0
-0.3 0 0
-0.29 0 0
-0.28 0 0
-0.27 0 0
-0.26 0 0
-0.25 0 0
-0.24 0 0
-0.23 0 0
-0.22 0 0
-0.21 0 0
-0.2 0 0
-0.19 0 0
-0.18 0 0
-0.17 0 0
-0.16 0 0
-0.15 0 0
-0.14 0 0
-0.13 0 0
-0.12 0 0
-0.11 0 0
-0.1 0 0
-0.09 0 0
-0.08 0 0
-0.07 0 0
-0.06 0 0
-0.05 0 0
-0.04 0 0
-0.03 0 0
-0.02 0 0
-0.01 0 0
1.01 0 0
1.02 0 0
1.03 0 0
1.04 0 0
1.05 0 0
1.06 0 0
1.07 0 0
1.08 0 0
1.09 0 0
1.1 0 0
1.11 0 0
1.12 0 0
1.13 0 0
1.14 0 0
1.15 0 0
1.16 0 0
1.17 0 0
1.18 0 0
1.19 0 0
1.2 0 0
1.21 0 0
1.22 0 0
1.23 0 0
1.24 0 0
1.25 0 0
1.26 0 0
1.27 0 0
1.28 0 0
1.29 0 0
1.3 0 0
1.31 0 0
1.32 0 0
1.33 0 0
1.34 0 0
1.35 0 0
1.36 0 0
1.37 0 0
1.38 0 0
1.39 0 0
1.4 0 0
1.41 0 0
1.42 0 0
1.43 0 0
1.44 0 0
1.45 0 0
1.46 0 0
1.47 0 0
1.48 0 0
1.49 0 0
1.5 0 0
1.51 0 0
1.52 0 0
1.53 0 0
1.54 0 0
1.55 0 0
1.56 0 0
1.57 0 0
1.58 0 0
1.59 0 0
1.6 0 0
1.61 0 0
1.62 0 0
1.63 0 0
1.64 0 0
1.65 0 0
1.66 0 0
1.67 0 0
1.68 0 0
1.69 0 0
1.7 0 0
1.71 0 0
1.72 0 0
1.73 0 0
1.74 0 0
1.75 0 0
1.76 0 0
1.77 0 0
1.78 0 0
1.79 0 0
1.8 0 0
1.81 0 0
1.82 0 0
1.83 0 0
1.84 0 0
1.85 0 0
1.86 0 0
1.87 0 0
1.88 0 0
1.89 0 0
1.9 0 0
1.91 0 0
1.92 0 0
1.93 0 0
1.94 0 0
1.95 0 0
1.96 0 0
1.97 0 0
1.98 0 0
1.99 0 0
2 0.010289 0
2 0.0215307 0
2 0.0338135 0
2 0.0472336 0
2 0.0618965 0
2 0.0779171 0
2 0.0954213 0
2 0.114546 0
2 0.135442 0
2 0.158274 0
2 0.183219 0
2 0.210474 0
2 0.240253 0
2 0.27279 0
2 0.308339 0
2 0.347181 0
2 0.389619 0
2 0.435987 0
2 0.486649 0
2 0.542002 0
2 0.602481 0
2 0.66856 0
2 0.740758 0
2 0.819642 0
2 0.90583 0
1.9 1 0
1.8 1 0
1.7 1 0
1.6 1 0
1.5 1 0
1.4 1 0
1.3 1 0
1.2 1 0
1.1 1 0
1 1 0
0.9 1 0
0.8 1 0
0.7 1 0
0.6 1 0
0.5 1 0
0.4 1 0
0.3 1 0
0.2 1 0
0.1 1 0
3.69793e-12 1 0
-0.1 1 0
-0.2 1 0
-0.3 1 0
-0.4 1 0
-0.5 1 0
-0.6 1 0
-0.7 1 0
-0.8 1 0
-0.9 1 0
-1 0.90583 0
-1 0.819642 0
-1 0.740758 0
-1 0.66856 0
-1 0.602481 0
-1 0.542002 0
-1 0.486649 0
-1 0.435987 0
-1 0.389619 0
-1 0.347181 0
-1 0.308339 0
-1 0.27279 0
-1 0.240253 0
-1 0.210474 0
-1 0.183219 0
-1 0.158274 0
-1 0.135442 0
-1 0.114546 0
-1 0.0954213 0
-1 0.0779171 0
-1 0.0618965 0
-1 0.0472336 0
-1 0.0338135 0
-1 0.0215307 0
-1 0.010289 0
0.00921362 0.00379763 0
0.0184561 0.00752451 0
0.0277268 0.0111804 0
0.0370253 0.0147652 0
0.0463511 0.0182786 0
0.0557034 0.0217203 0
0.0650819 0.0250903 0
0.074486 0.0283883 0
0.083915 0.0316141 0
0.0933685 0.0347675 0
0.102846 0.0378484 0
0.112347 0.0408565 0
0.12187 0.0437917 0
0.131416 0.0466538 0
0.140983 0.0494427 0
0.150572 0.0521581 0
0.160181 0.0547999 0
0.16981 0.0573681 0
0.179458 0.0598623 0
0.189125 0.0622825 0
0.198811 0.0646285 0
0.208514 0.0669001 0
0.218234 0.0690974 0
0.227971 0.07122 0
0.237724 0.073268 0
0.247493 0.0752411 0
0.257276 0.0771393 0
0.267073 0.0789625 0
0.276884 0.0807105 0
0.286708 0.0823832 0
0.296545 0.0839806 0
0.306394 0.0855025 0
0.316254 0.0869488 0
0.326125 0.0883196 0
0.336006 0.0896146 0
0.345896 0.0908339 0
0.355796 0.0919773 0
0.365704 0.0930447 0
0.375621 0.0940362 0
0.385544 0.0949517 0
0.395474 0.095791 0
0.40541 0.0965542 0
0.415352 0.0972412 0
0.425299 0.097852 0
0.43525 0.0983865 0
0.445205 0.0988447 0
0.455164 0.0992266 0
0.465125 0.0995321 0
0.475088 0.0997613 0
0.485052 0.0999141 0
0.495017 0.0999904 0
0.504983 0.0999904 0
0.514948 0.0999141 0
0.524912 0.0997613 0
0.534875 0.0995321 0
0.544836 0.0992266 0
0.554795 0.0988447 0
0.56475 0.0983865 0
0.574701 0.097852 0
0.584648 0.0972412 0
0.59459 0.0965542 0
0.604526 0.095791 0
0.614456 0.0949517 0
0.624379 0.0940362 0
0.634296 0.0930447 0
0.644204 0.0919773 0
0.654104 0.0908339 0
0.663994 0.0896146 0
0.673875 0.0883196 0
0.683746 0.0869488 0
0.693606 0.0855025 0
0.703455 0.0839806 0
0.713292 0.0823832 0
0.723116 0.0807105 0
0.732927 0.0789625 0
0.742724 0.0771393 0
0.752508 0.0752411 0
0.762276 0.073268 0
0.772029 0.07122 0
0.781766 0.0690974 0
0.791486 0.0669001 0
0.801189 0.0646285 0
0.810875 0.0622825 0
0.820542 0.0598623 0
0.83019 0.0573681 0
0.839819 0.0547999 0
0.849428 0.0521581 0
0.859017 0.0494427 0
0.868584 0.0466538 0
0.87813 0.0437917 0
0.887653 0.0408565 0
0.897154 0.0378484 0
0.906631 0.0347675 0
0.916085 0.0316141 0
0.925514 0.0283883 0
0.934918 0.0250903 0
0.944297 0.0217203 0
0.953649 0.0182786 0
0.962975 0.0147652 0
0.972273 0.0111804 0
0.981544 0.00752451 0
0.990786 0.00379763 0
-1 0.90583 0.1
-1 0.819642 0.1
-1 0.740758 0.1
-1 0.66856 0.1
-1 0.602481 0.1
-1 0.542002 0.1
-1 0.486649 0.1
-1 0.435987 0.1
-1 0.389619 0.1
-1 0.347181 0.1
-1 0.308339 0.1
-1 0.27279 0.1
-1 0.240253 0.1
-1 0.210474 0.1
-1 0.183219 0.1
-1 0.158274 0.1
-1 0.135442 0.1
-1 0.114546 0.1
-1 0.0954213 0.1
-1 0.0779171 0.1
-1 0.0618965 0.1
-1 0.0472336 0.1
-1 0.0338135 0.1
-1 0.0215307 0.1
-1 0.010289 0.1
-0.99 0 0.1
-0.98 0 0.1
-0.97 0 0.1
-0.96 0 0.1
-0.95 0 0.1
-0.94 0 0.1
-0.93 0 0.1
-0.92 0 0.1
-0.91 0 0.1
-0.9 0 0.1
-0.89 0 0.1
-0.88 0 0.1
-0.87 0 0.1
-0.86 0 0.1
-0.85 0 0.1
-0.84 0 0.1
-0.83 0 0.1
-0.82 0 0.1
-0.81 0 0.1
-0.8 0 0.1
-0.79 0 0.1
-0.78 0 0.1
-0.77 0 0.1
-0.76 0 0.1
-0.75 0 0.1
-0.74 0 0.1
-0.73 0 0.1
-0.72 0 0.1
-0.71 0 0.1
-0.7 0 0.1
-0.69 0 0.1
-0.68 0 0.1
-0.67 0 0.1
-0.66 0 0.1
-0.65 0 0.1
-0.64 0 0.1
-0.63 0 0.1
-0.62 0 0.1
-0.61 0 0.1
-0.6 0 0.1
-0.59 0 0.1
-0.58 0 0.1
-0.57 0 0.1
-0.56 0 0.1
-0.55 0 0.1
-0.54 0 0.1
-0.53 0 0.1
-0.52 0 0.1
-0.51 0 0.1
-0.5 0 0.1
-0.49 0 0.1
-0.48 0 0.1
-0.47 0 0.1
-0.46 0 0.1
-0.45 0 0.1
-0.44 0 0.1
-0.43 0 0.1
-0.42 0 0.1
-0.41 0 0.1
-0.4 0 0.1
-0.39 0 0.1
-0.38 0 0.1
-0.37 0 0.1
-0.36 0 0.1
-0.35 0 0.1
-0.34 0 0.1
-0.33 0 0.1
-0.32 0 0.1
-0.31 0 0.1
-0.3 0 0.1
-0.29 0 0.1
-0.28 0 0.1
-0.27 0 0.1
-0.26 0 0.1
-0.25 0 0.1
-0.24 0 0.1
-0.23 0 0.1
-0.22 0 0.1
-0.21 0 0.1
-0.2 0 0.1
-0.19 0 0.1
-0.18 0 0.1
-0.17 0 0.1
-0.16 0 0.1
-0.15 0 0.1
-0.14 0 0.1
-0.13 0 0.1
-0.12 0 0.1
-0.11 0 0.1
-0.1 0 0.1
-0.09 0 0.1
-0.08 0 0.1
-0.07 0 0.1
-0.06 0 0.1
-0.05 0 0.1
-0.04 0 0.1
-0.03 0 0.1
-0.02 0 0.1
-0.01 0 0.1
0.00921362 0.00379763 0.1
0.0184561 0.00752451 0.1
0.0277268 0.0111804 0.1
0.0370253 0.0147652 0.1
0.0463511 0.0182786 0.1
0.0557034 0.0217203 0.1
0.0650819 0.0250903 0.1
0.074486 0.0283883 0.1
0.083915 0.0316141 0.1
0.0933685 0.0347675 0.1
0.102846 0.0378484 0.1
0.112347 0.0408565 0.1
0.12187 0.0437917 0.1
0.131416 0.0466538 0.1
0.140983 0.0494427 0.1
0.150572 0.0521581 0.1
0.160181 0.0547999 0.1
0.16981 0.0573681 0.1
0.179458 0.0598623 0.1
0.189125 0.0622825 0.1
0.198811 0.0646285 0.1
0.208514 0.0669001 0.1
0.218234 0.0690974 0.1
0.227971 0.07122 0.1
0.237724 0.073268 0.1
0.247493 0.0752411 0.1
0.257276 0.0771393 0.1
0.267073 0.0789625 0.1
0.276884 0.0807105 0.1
0.286708 0.0823832 0.1
0.296545 0.0839806 0.1
0.306394 0.0855025 0.1
0.316254 0.0869488 0.1
0.326125 0.0883196 0.1
0.336006 0.0896146 0.1
0.345896 0.0908339 0.1
0.355796 0.0919773 0.1
0.365704 0.0930447 0.1
0.375621 0.0940362 0.1
0.385544 0.0949517 0.1
0.395474 0.095791 0.1
0.40541 0.0965542 0.1
0.415352 0.0972412 0.1
0.425299 0.097852 0.1
0.43525 0.0983865 0.1
0.445205 0.0988447 0.1
0.455164 0.0992266 0.1
0.465125 0.0995321 0.1
0.475088 0.0997613 0.1
0.485052 0.0999141 0.1
0.495017 0.0999904 0.1
0.504983 0.0999904 0.1
0.514948 0.0999141 0.1
0.524912 0.0997613 0.1
0.534875 0.0995321 0.1
0.544836 0.0992266 0.1
0.554795 0.0988447 0.1
0.56475 0.0983865 0.1
0.574701 0.097852 0.1
0.584648 0.0972412 0.1
0.59459 0.0965542 0.1
0.604526 0.095791 0.1
0.614456 0.0949517 0.1
0.624379 0.0940362 0.1
0.634296 0.0930447 0.1
0.644204 0.0919773 0.1
0.654104 0.0908339 0.1
0.663994 0.0896146 0.1
0.673875 0.0883196 0.1
0.683746 0.0869488 0.1
0.693606 0.0855025 0.1
0.703455 0.0839806 0.1
0.713292 0.0823832 0.1
0.723116 0.0807105 0.1
0.732927 0.0789625 0.1
0.742724 0.0771393 0.1
0.752508 0.0752411 0.1
0.762276 0.073268 0.1
0.772029 0.07122 0.1
0.781766 0.0690974 0.1
0.791486 0.0669001 0.1
0.801189 0.0646285 0.1
0.810875 0.0622825 0.1
0.820542 0.0598623 0.1
0.83019 0.0573681 0.1
0.839819 0.0547999 0.1
0.849428 0.0521581 0.1
0.859017 0.0494427 0.1
0.868584 0.0466538 0.1
0.87813 0.0437917 0.1
0.887653 0.0408565 0.1
0.897154 0.0378484 0.1
0.906631 0.0347675 0.1
0.916085 0.0316141 0.1
0.925514 0.0283883 0.1
0.934918 0.0250903 0.1
0.944297 0.0217203 0.1
0.953649 0.0182786 0.1
0.962975 0.0147652 0.1
0.972273 0.0111804 0.1
0.981544 0.00752451 0.1
0.990786 0.00379763 0.1
1.01 0 0.1
1.02 0 0.1
1.03 0 0.1
1.04 0 0.1
1.05 0 0.1
1.06 0 0.1
1.07 0 0.1
1.08 0 0.1
1.09 0 0.1
1.1 0 0.1
1.11 0 0.1
1.12 0 0.1
1.13 0 0.1
1.14 0 0.1
1.15 0 0.1
1.16 0 0.1
1.17 0 0.1
1.18 0 0.1
1.19 0 0.1
1.2 0 0.1
1.21 0 0.1
1.22 0 0.1
1.23 0 0.1
1.24 0 0.1
1.25 0 0.1
1.26 0 0.1
1.27 0 0.1
1.28 0 0.1
1.29 0 0.1
1.3 0 0.1
1.31 0 0.1
1.32 0 0.1
1.33 0 0.1
1.34 0 0.1
1.35 0 0.1
1.36 0 0.1
1.37 0 0.1
1.38 0 0.1
1.39 0 0.1
1.4 0 0.1
1.41 0 0.1
1.42 0 0.1
1.43 0 0.1
1.44 0 0.1
1.45 0 0.1
1.46 0 0.1
1.47 0 0.1
1.48 0 0.1
1.49 0 0.1
1.5 0 0.1
1.51 0 0.1
1.52 0 0.1
1.53 0 0.1
1.54 0 0.1
1.55 0 0.1
1.56 0 0.1
1.57 0 0.1
1.58 0 0.1
1.59 0 0.1
1.6 0 0.1
1.61 0 0.1
1.62 0 0.1
1.63 0 0.1
1.64 0 0.1
1.65 0 0.1
1.66 0 0.1
1.67 0 0.1
1.68 0 0.1
1.69 0 0.1
1.7 0 0.1
1.71 0 0.1
1.72 0 0.1
1.73 0 0.1
1.74 0 0.1
1.75 0 0.1
1.76 0 0.1
1.77 0 0.1
1.78 0 0.1
1.79 0 0.1
1.8 0 0.1
1.81 0 0.1
1.82 0 0.1
1.83 0 0.1
1.84 0 0.1
1.85 0 0.1
1.86 0 0.1
1.87 0 0.1
1.88 0 0.1
[...]
CELL_DATA 7425
SCALARS rho float
LOOKUP_TABLE default
0.603179
0.8058
0.824385
0.831388
0.801953
0.823759
0.824232
0.820276
0.820029
0.744041
0.86513
0.811303
0.820177
0.831244
0.806067
0.822399
0.800983
0.820019
0.804111
0.770191
0.834949
0.822915
0.730627
0.831971
0.804544
0.716306
0.834779
0.851778
0.801027
0.809622
0.822785
0.722971
0.804268
0.664936
0.556207
0.83194
0.804096
0.820275
0.81237
0.831547
0.727015
0.718793
0.793754
0.682705
0.606056
0.752114
0.803711
0.820144
0.691262
0.71766
0.746832
0.805915
0.813211
0.801378
0.702096
0.66792
0.827324
0.801765
0.743943
0.708619
0.724711
0.808475
0.820018
0.801566
0.799684
0.822737
0.59992
0.777655
0.668353
0.809596
0.806142
0.803553
0.884472
0.822007
0.811673
0.820072
0.805824
0.801252
0.819998
0.758515
0.821502
0.808068
0.816758
0.79041
0.838425
0.803346
0.589693
0.833311
0.567158
0.85104
0.685716
0.735406
0.84863
0.803773
0.82256
0.765694
0.837853
0.789878
0.829767
0.804993
0.813287
0.739021
0.803873
0.831806
0.610684
0.812273
0.828298
0.71704
0.820813
0.801608
0.821922
0.786624
0.791323
0.813225
0.793511
0.788311
0.834809
0.803432
0.688637
0.682605
0.80581
0.781462
0.820039
0.792071
0.861132
0.841765
0.808565
0.807785
0.670987
0.54118
0.820341
0.667866
0.549752
0.871781
0.692159
0.802054
0.811989
0.730721
0.597595
0.734886
0.733734
0.811632
0.816335
0.698794
0.805095
0.781492
0.580122
0.793788
0.783405
0.831719
0.820137
0.685599
0.805253
0.745161
0.699575
0.803914
0.811679
0.834149
0.801343
0.675026
0.803672
0.683781
0.803378
0.833534
0.825129
0.802939
0.820026
0.788778
0.807177
0.80307
0.824518
0.807032
0.796362
0.801559
0.801644
0.748577
0.80607
0.766124
0.616077
0.679564
0.802031
0.797112
0.880976
0.835096
0.679573
0.827335
0.801016
0.82972
0.802154
0.819948
0.819955
0.803811
0.807835
0.699354
0.820806
0.823888
0.773002
0.801422
0.864411
0.808738
0.813527
0.818191
0.625314
0.841792
0.588576
0.565005
0.609072
0.635032
0.830059
0.880558
0.808347
0.799557
0.843608
0.820133
0.821873
0.825403
0.820926
0.647492
0.650504
0.820115
0.571105
0.613964
0.694943
0.817158
0.820086
0.820073
0.836567
0.820314
0.868078
0.701094
0.836872
0.72732
0.8061
0.804589
0.80289
0.721726
0.730924
0.629554
0.690129
0.86562
0.879785
0.811837
0.80855
0.803397
0.813418
0.728664
0.82617
0.802795
0.829717
0.796014
0.816675
0.719572
0.820164
0.828055
0.748733
0.550125
0.801774
0.736859
0.844949
0.820243
0.724316
0.821146
0.820713
0.851939
0.815805
0.806762
0.803798
0.829789
0.862885
0.808025
0.629015
0.851404
0.814931
0.806418
0.831433
0.83991
0.81968
0.825722
0.794974
0.820864
0.870592
0.851953
0.82925
0.840047
0.803761
0.822407
0.803548
0.760512
0.714575
0.596285
0.687614
0.8069
0.81997
0.821508
0.858205
0.781913
0.655114
0.831091
0.557644
0.778528
0.80324
0.655846
0.669419
0.648476
0.820949
0.820008
0.82013
0.819008
0.830754
0.776244
0.812295
0.803379
0.820321
0.84377
0.871308
0.836941
0.804073
0.683594
0.799826
0.836842
0.699911
0.801088
0.802837
0.86656
0.822364
0.605642
0.819933
0.749366
0.855735
0.740089
0.816571
0.908124
0.802422
0.797508
0.668811
0.645571
0.704174
0.786234
0.830522
0.820753
0.820103
0.887126
0.86104
0.802056
0.802638
0.826833
0.74712
0.803647
0.880792
0.801954
0.807517
0.803117
0.803103
0.819626
0.821309
0.821762
0.651397
0.831898
0.669428
0.809954
0.654351
0.807053
0.802926
0.841839
0.73977
0.817115
0.813765
0.822229
0.801565
0.803008
0.812116
0.71483
0.825287
0.82002
0.81959
0.801346
0.738624
0.574632
0.807236
0.817931
0.803707
0.820237
0.796751
0.664557
0.847971
0.819904
0.804498
0.789693
0.820013
0.806594
0.805044
0.821693
0.808335
0.826921
0.772332
0.815878
0.80871
0.577688
0.805698
0.64948
0.841058
0.646289
0.820378
0.879365
0.625102
0.819685
0.754766
0.805195
0.874693
0.566973
0.827417
0.826737
0.80412
0.82986
0.812788
0.8278
0.834352
0.828924
0.748283
0.831482
0.762102
0.812184
0.795639
0.797566
0.763876
0.80653
0.802539
0.819421
0.760428
0.806411
0.617552
0.626832
0.705126
0.819542
0.84694
0.8668
0.833291
0.801024
0.819974
0.806713
0.822641
0.689064
0.803057
0.74795
0.826805
0.820253
0.8083
0.702974
0.734395
0.557065
0.617012
0.803488
0.622364
0.797256
0.766699
0.773651
0.724277
0.767667
0.773024
0.815909
0.820774
0.824377
0.818467
0.722935
0.637394
0.842055
0.812034
0.785257
0.812621
0.803991
0.839877
0.731805
0.857635
0.765204
0.740115
0.770493
0.817101
0.567539
0.801173
0.844635
0.815259
0.820141
0.816007
0.801733
0.785991
0.838316
0.803628
0.845922
0.724879
0.700371
0.801889
0.799111
0.826465
0.718355
0.850647
0.803115
0.821442
0.800978
0.781474
0.81096
0.607298
0.686024
0.642148
0.819137
0.807133
0.830296
0.754309
0.811417
0.82069
0.825063
0.801425
0.740462
0.801999
0.817041
0.80369
0.719764
0.820051
0.82352
0.841635
0.817729
0.829501
0.863943
0.859195
0.751674
0.615962
0.840389
0.80774
0.845581
0.820334
0.824657
0.820049
0.820147
0.683838
0.808139
0.813792
0.820206
0.795654
0.81383
0.807202
0.86411
0.801095
0.820132
0.820613
0.873591
0.610069
0.819972
0.845296
0.884409
0.55254
0.821793
0.831835
0.797393
0.815535
0.798859
0.869398
0.815806
0.83502
0.81552
0.630864
0.803224
0.804909
0.706985
0.855063
0.75988
0.80293
0.820123
0.819588
0.863247
0.796622
0.836467
0.838147
0.789739
0.826863
0.844987
0.802211
0.813068
0.809557
0.806127
0.819688
0.803145
0.847873
0.770672
0.810444
0.804082
0.818629
0.731409
0.820181
0.823378
0.757594
0.820044
0.820273
0.829999
0.829228
0.803022
0.802391
0.852491
0.768451
0.827964
0.846944
0.805312
0.542785
0.81993
0.832188
0.854312
0.818163
0.803494
0.809761
0.857019
0.780906
0.803287
0.803333
0.820196
0.739103
0.804627
0.831618
0.810984
0.796342
0.798719
0.846126
0.807411
0.847447
0.802487
0.828521
0.819144
0.804936
0.844094
0.819892
0.693347
0.823736
0.807917
0.819216
0.90664
0.802396
0.820196
0.801913
0.802171
0.821656
0.802267
0.804166
0.784158
0.747755
0.812101
0.820203
0.763229
0.79647
0.827323
0.813828
0.826739
0.807985
0.829897
0.876629
0.834366
0.612843
0.715271
0.843814
0.822507
0.84683
0.820452
0.852402
0.809944
0.8157
0.801599
0.841446
0.863027
0.855237
0.739612
0.820281
0.826419
0.743421
0.819743
0.777511
0.801778
0.740525
0.821548
0.834575
0.824318
0.86562
0.820193
0.820013
0.816123
0.820407
0.838653
0.813081
0.800909
0.811055
0.745493
0.81841
0.774903
0.835994
0.815373
0.648317
0.779864
0.813501
0.801402
0.824632
0.805008
0.820441
0.822519
0.806387
0.824144
0.80488
0.80862
0.621343
0.849783
0.82925
0.830749
0.817434
0.803845
0.708915
0.809539
0.908321
0.819591
0.803757
0.819307
0.784465
0.810066
0.819341
0.825891
0.815533
0.819997
0.821702
0.672353
0.782854
0.770602
0.819541
0.807096
0.803735
0.632921
0.808456
0.805006
0.717437
0.839091
0.822416
0.804086
0.809863
0.801274
0.822324
0.817488
0.820019
0.820244
0.7161
0.834862
0.801391
0.810189
0.844809
0.820018
0.821644
0.802341
0.754572
0.827773
0.792345
0.825957
0.791141
0.808558
0.825606
0.739586
0.821774
0.677958
0.873697
0.712039
0.847833
0.805999
0.876485
0.795301
0.803025
0.825362
0.838135
0.839761
0.829218
0.824631
0.820132
0.805743
0.805175
0.809696
0.738183
0.828679
0.800895
0.718222
0.833726
0.677111
0.802643
0.863987
0.806481
0.717732
0.799112
0.820281
0.69605
0.786199
0.824158
0.834763
0.812728
0.663593
0.740222
0.813262
0.804095
0.820217
0.802884
0.742912
0.820043
0.821316
0.819746
0.779571
0.803798
0.805355
0.806488
0.575256
0.820074
0.835469
0.602738
0.820929
0.821602
0.820604
0.82339
0.820381
0.828735
0.801679
0.796308
0.771369
0.82438
0.831037
0.826537
0.837994
0.769801
0.815313
0.737016
0.774215
0.811311
0.82571
0.819923
0.801679
0.861538
0.820194
0.805449
0.81608
0.821442
0.820924
0.83994
0.820494
0.819894
0.812794
0.820132
0.802918
0.825558
0.804599
0.827259
0.820037
0.59816
0.82005
0.837917
0.861319
0.839721
0.615025
0.82211
0.808201
0.535617
0.68519
0.671636
0.837331
0.811501
0.812454
0.819612
0.803496
0.82208
0.812649
0.557806
0.702407
0.819609
0.807454
0.821162
0.804137
0.811307
0.817806
0.824691
0.801376
0.709461
0.859491
0.803459
0.815624
0.819893
0.762519
0.623525
0.836449
0.815321
0.74135
0.803035
0.809294
0.621489
0.829153
0.820409
0.83168
0.823743
0.828785
0.805503
0.732938
0.652987
0.57697
0.829489
0.811384
0.783736
0.820029
0.78489
0.823005
0.874683
0.766952
0.826178
0.819515
0.829872
0.884836
0.820375
0.818414
0.804191
0.81466
0.703754
0.832123
0.801786
0.813102
0.803125
0.786021
0.856569
0.82647
0.842769
0.826096
0.757466
0.759349
0.806033
0.822896
0.803452
0.806024
0.803576
0.781023
0.820481
0.766581
0.823699
0.670902
0.820071
0.803878
0.733958
0.826008
0.822117
0.745395
0.801955
0.762451
0.885182
0.801397
0.820242
0.767912
0.802787
0.820354
0.804643
0.604172
0.822733
0.80234
0.806539
0.820504
0.82946
0.762575
0.808111
0.844569
0.829565
0.815635
0.839203
0.670822
0.707286
0.820218
0.749448
0.826714
0.775693
0.820216
0.80327
0.813958
0.757041
0.795471
0.76986
0.815835
0.803458
0.640853
0.780605
0.800069
0.852246
0.820412
0.832533
0.556298
0.826151
0.787006
0.860936
0.801673
0.81964
0.802952
0.790064
0.801046
0.829461
0.838178
0.823527
0.822194
0.701149
0.778917
0.820063
0.80615
0.817037
0.804599
0.69482
0.796738
0.805238
0.813218
0.829132
0.853162
0.83549
0.820034
0.801882
0.806394
0.80392
0.782228
0.62402
0.80533
0.740405
0.671839
0.826919
0.800983
0.777733
0.802264
0.759089
0.786995
0.818861
0.824089
0.80744
0.821352
0.821251
0.82351
0.820022
0.812096
0.718462
0.706812
0.650205
0.833107
0.871276
0.818361
0.843081
0.850379
0.865372
0.74568
0.820873
0.864839
0.814594
0.820333
0.819947
0.740329
0.817956
0.809478
0.808872
0.546642
0.820107
0.765201
0.819877
0.814615
0.804144
0.698409
0.819877
0.622802
0.826735
0.804384
0.825022
0.857517
0.804081
0.796647
0.825578
0.817778
0.807259
0.766114
0.55027
0.825453
0.803935
0.831824
0.829837
0.807368
0.807863
0.837355
0.729038
0.59246
0.887363
0.804956
0.821299
0.80506
0.704283
0.800947
0.802375
0.820862
0.74638
0.655777
0.884337
0.721629
0.839857
0.818475
0.836439
0.84557
0.797304
0.805481
0.819864
0.85472
0.743777
0.872115
0.820229
0.577881
0.805134
0.748389
0.855359
0.766389
0.804936
0.804623
0.801766
0.802715
0.815179
0.820283
0.858356
0.808548
0.8032
0.801873
0.802187
0.81966
0.822188
0.803017
0.819917
0.851841
0.80338
0.787753
0.802787
0.842185
0.737556
0.820068
0.819976
0.685973
0.720628
0.806528
0.827155
0.806531
0.546508
0.859741
0.819265
0.835642
0.806086
0.803821
0.802312
0.790868
0.599079
0.805248
0.821597
0.837285
0.825269
0.820169
0.803327
0.754428
0.802439
0.772435
0.789323
0.801654
0.792505
0.751449
0.802921
0.813771
0.816723
0.834978
0.852063
0.574672
0.844917
0.820312
0.821625
0.80405
0.823502
0.818518
0.895494
0.803691
0.871016
0.806599
0.765865
0.863787
0.803061
0.800988
0.828153
0.669696
0.65476
0.803992
0.804619
0.671377
0.663473
0.800639
0.828089
0.820081
0.827035
0.740503
0.820668
0.819728
0.830225
0.821321
0.812774
0.820335
0.75963
0.806415
0.821135
0.818775
0.684276
0.582308
0.820374
0.658999
0.727929
0.572051
0.844365
0.802352
0.567716
0.613255
0.830267
0.908555
0.823171
0.661745
0.820199
0.790703
0.803813
0.78813
0.823404
0.81475
0.790038
0.825429
0.805982
0.603699
0.822905
0.771816
0.82122
0.692901
0.826667
0.794064
0.820097
0.80255
0.671912
0.845733
0.810011
0.809274
0.557897
0.822131
0.802463
0.855479
0.706856
0.822341
0.626952
0.732489
0.803434
0.800658
0.743693
0.724958
0.71041
0.563335
0.647546
0.802594
0.562823
0.827047
0.625083
0.762069
0.68724
0.647662
0.577005
0.750761
0.803458
0.708533
0.825898
0.802461
0.804754
0.765973
0.890718
0.801482
0.828672
0.804205
0.820151
0.712946
0.809952
0.742416
0.826436
0.88721
0.836614
0.753654
0.827142
0.775305
0.881063
0.804914
0.763426
0.853245
0.781472
0.800666
0.808078
0.763057
0.753794
0.693447
0.805734
0.803443
0.822694
0.836922
0.622176
0.810663
0.565599
0.677052
0.645895
0.821119
0.825629
0.815136
0.804682
0.626633
0.873824
0.803052
0.803254
0.865521
0.819881
0.775538
0.819608
0.802853
0.823008
0.803408
0.723554
0.805311
0.678166
0.801177
0.808487
0.802405
0.648351
0.815258
0.81366
0.727428
0.820208
0.570672
0.592245
0.80493
0.703914
0.731854
0.586499
0.732809
0.82005
0.694142
0.77586
0.712057
0.815877
0.679017
0.766841
0.808063
0.816379
0.668558
0.802673
0.896028
0.79801
0.822127
0.612444
0.702011
0.806028
0.820181
0.820104
0.85378
0.819451
0.805178
0.804538
0.80393
0.721721
0.714013
0.62827
0.776926
0.581765
0.720725
0.816041
0.820232
0.808656
0.801753
0.66448
0.815032
0.804447
0.575984
0.573615
0.751833
0.804249
0.810672
0.568015
0.799593
0.58633
0.733867
0.621124
0.815063
0.804256
0.611457
0.620683
0.869638
0.811797
0.770087
0.727204
0.645539
0.664368
0.699489
0.821242
0.764475
0.765637
0.635854
0.759609
0.815121
0.820994
0.819771
0.82114
0.869084
0.760932
0.823766
0.8043
0.853553
0.820313
0.803287
0.819887
0.718508
0.818065
0.817237
0.820439
0.816546
0.821059
0.803787
0.822867
0.815911
0.815405
0.822277
0.800913
0.821679
0.823857
0.676296
0.823555
0.870198
0.823167
0.79438
0.655506
0.860762
0.823743
0.829092
0.801896
0.818604
0.757815
0.855013
0.622882
0.73861
0.810706
0.821265
0.80459
0.803944
0.835663
0.807207
0.807026
0.820994
0.784718
0.84174
0.844789
0.819266
0.673232
0.652026
0.821326
0.821769
0.793626
0.852229
0.849688
0.813573
0.818827
0.782439
0.819976
0.822832
0.820063
0.823721
0.815658
0.821384
0.853561
0.821495
0.819846
0.822725
0.822818
0.787022
0.819395
0.806531
0.806981
0.806878
0.823554
0.818732
0.792615
0.753968
0.819236
0.807093
0.814909
0.807212
0.85961
0.805423
0.819819
0.819765
0.807205
0.664852
0.804641
0.819869
0.81754
0.811234
0.819963
0.819849
0.819965
0.81102
0.866023
0.548387
0.820036
0.844451
0.819658
0.803889
0.809795
0.820818
0.842788
0.802797
0.803978
0.815727
0.673365
0.820096
0.810328
0.80997
0.819281
0.819898
0.819927
0.820013
0.552306
0.813135
0.729224
0.886933
0.825345
0.731758
0.695595
0.82106
0.805217
0.820812
0.655996
0.803002
0.820012
0.657265
0.802231
0.805128
0.818147
0.809556
0.859012
0.810669
0.619297
0.802711
0.775852
0.812098
0.890116
0.807093
0.816314
0.821121
0.834694
0.82002
0.826867
0.839484
0.645421
0.806812
0.664972
0.820088
0.820034
0.706439
0.819971
0.809464
0.708469
0.819339
0.713238
0.863162
0.785532
0.820381
0.820138
0.819919
0.680145
0.820086
0.64252
0.802011
0.793882
0.826651
0.820938
0.72334
0.76744
0.833803
0.819399
0.824152
0.826415
0.820024
0.829486
0.80164
0.568518
0.75491
0.764472
0.729176
0.840852
0.825085
0.835856
0.78199
0.803365
0.820083
0.820173
0.820147
0.777757
0.579088
0.803737
0.569489
0.811925
0.826961
0.802023
0.804421
0.815764
0.806948
0.787318
0.735716
0.820008
0.861014
0.81748
0.801392
0.735707
0.811655
0.790523
0.836186
0.623328
0.797179
0.811216
0.801133
0.697201
0.819716
0.815289
0.860225
0.583444
0.808297
0.803767
0.819318
0.637675
0.819974
0.803822
0.803967
0.803604
0.819993
0.820007
0.821381
0.820066
0.712265
0.805334
0.803681
0.820123
0.896964
0.819983
0.778735
0.843086
0.800006
0.803528
0.613891
0.82009
0.803871
0.828308
0.803156
0.868104
0.81872
0.856101
0.80273
0.825241
0.780468
0.576053
0.759507
0.798838
0.809162
0.814713
0.819989
0.572728
0.863457
0.86104
0.774363
0.75947
0.738413
0.814871
0.850716
0.820086
0.815498
0.820117
0.804991
0.72552
0.80416
0.801273
0.764587
0.828416
0.827381
0.86349
0.82105
0.820158
0.664093
0.809704
0.820128
0.802642
0.778307
0.818854
0.803483
0.819456
0.830895
0.79965
0.80544
0.80278
0.819398
0.842146
0.804757
0.80117
0.804114
0.766428
0.824629
0.583222
0.869863
0.804434
0.56399
0.805302
0.806837
0.821869
0.649894
0.619336
0.803578
0.806155
0.803036
0.862439
0.781326
0.819218
0.803583
0.869485
0.805461
0.805173
0.829156
0.820576
0.822645
0.825746
0.824921
0.868981
0.735301
0.854172
0.82229
0.663116
0.804441
0.803871
0.804347
0.825711
0.827713
0.805754
0.803186
0.802209
0.827085
0.804975
0.804385
0.801923
0.828612
0.804672
0.803164
0.806881
0.831645
0.803143
0.803546
0.827105
0.801564
0.821057
0.660881
0.830429
0.85209
0.806505
0.82439
0.80401
0.832588
0.840715
0.803953
0.825978
0.802193
0.809392
0.790748
0.803251
0.804961
0.807153
0.807578
0.806804
0.823398
0.820636
0.812226
0.835042
0.80462
0.802989
0.802081
0.789955
0.837087
0.803959
0.824142
0.820924
0.808615
0.807095
0.803306
0.841856
0.868333
0.801835
0.686927
0.802637
0.8451
0.821908
0.807712
0.805184
0.821228
0.847179
0.650112
0.831443
0.79896
0.853654
0.8236
0.813142
0.81481
0.810562
0.804659
0.814071
0.80989
0.603856
0.850628
0.795887
0.820309
0.856924
0.824132
0.767815
0.810235
0.820458
0.820522
0.803672
0.671005
0.811806
0.865127
0.806204
0.802289
0.780806
0.872671
0.801839
0.878399
0.81006
0.822338
0.82527
0.804905
0.805668
0.819524
0.821374
0.806036
0.819796
0.819096
0.882604
0.822042
0.810125
0.802642
0.831711
0.811328
0.841515
0.810637
0.807766
0.814724
0.821908
0.83292
0.819833
0.82655
0.834146
0.816675
0.714474
0.699241
0.819877
0.82285
0.806467
0.819622
0.594239
0.856763
0.801674
0.807016
0.819649
0.819778
0.804794
0.819097
0.802556
0.802912
0.810177
0.818359
0.763558
0.788554
0.827271
0.845476
0.836413
0.802476
0.809587
0.803919
0.81376
0.807451
0.801742
0.80181
0.802541
0.814074
0.799048
0.805245
0.838834
0.833923
0.739592
0.674583
0.808535
0.715655
0.801945
0.62586
0.805316
0.808509
0.805387
0.823193
0.836358
0.820171
0.819951
0.811205
0.80476
0.882815
0.821692
0.807454
0.775214
0.630032
0.811079
0.809117
0.772701
0.820401
0.820161
0.793037
0.801805
0.804849
0.672297
0.83316
0.804108
0.786956
0.781918
0.854824
0.810794
0.805341
0.805241
0.812598
0.812105
0.564578
0.803324
0.842606
0.820184
0.799819
0.60846
0.816427
0.82022
0.820264
0.837186
0.820147
0.80506
0.826394
0.807572
0.589879
0.809816
0.745354
0.799612
0.820066
0.726462
0.820745
0.848884
0.832882
0.673553
0.891815
0.787585
0.782818
0.79797
0.780857
0.810484
0.852905
0.810352
0.803937
0.820041
0.814795
0.78491
0.787945
0.819925
0.810827
0.836107
0.825454
0.837031
0.805983
0.801941
0.820101
0.85887
0.820523
0.820456
0.820001
0.61911
0.79689
0.827725
0.831943
0.867773
0.819888
0.820767
0.565839
0.815831
0.802626
0.819043
0.817447
0.850024
0.819956
0.8119
0.882674
0.768996
0.813895
0.819848
0.814798
0.806103
0.820296
0.665003
0.801575
0.852107
0.83482
0.812934
0.818531
0.819991
0.810372
0.711408
0.817581
0.80266
0.841727
0.823313
0.814275
0.834335
0.797483
0.816766
0.822717
0.811456
0.824116
0.752728
0.857458
0.823831
0.816322
0.819994
0.819733
0.820844
0.822127
0.819838
0.816148
0.84391
0.823503
0.802469
0.826681
0.830419
0.818508
0.815907
0.802542
0.802999
0.820073
0.823911
0.830815
0.819938
0.821503
0.802295
0.815449
0.820018
0.819702
0.803159
0.820579
0.81988
0.804235
0.820084
0.838847
0.800872
0.815062
0.824069
0.580356
0.820205
0.823125
0.819978
0.820222
0.826353
0.832166
0.821039
0.82375
0.708738
0.820093
0.802978
0.821208
0.821344
0.836393
0.826092
0.818519
0.833158
0.829108
0.817549
0.819933
0.8221
0.809234
0.820037
0.821195
0.820992
0.835692
0.819388
0.821254
0.803244
0.820176
0.819913
0.581631
0.647055
0.815149
0.825993
0.803736
0.826546
0.821421
0.843441
0.715
0.820083
0.738102
0.821079
0.816048
0.819999
0.832486
0.820039
0.807666
0.820129
0.832962
0.842129
0.819483
0.72562
0.820519
0.82138
0.80189
0.803402
0.820998
0.858017
0.819616
0.820013
0.852095
0.831816
0.84544
0.610193
0.832796
0.82013
0.816497
0.822572
0.853505
0.822864
0.724551
0.80175
0.833064
0.802323
0.801822
0.80694
0.752991
0.82001
0.820197
0.734564
0.820133
0.828707
0.819824
0.819877
0.801511
0.823281
0.820171
0.826003
0.809521
0.812675
0.820105
0.683058
0.823946
0.819987
0.820216
0.65528
0.714036
0.611682
0.824706
0.616975
0.856907
0.733159
0.844353
0.819213
0.735838
0.824227
0.821071
0.747895
0.809127
0.823349
0.795062
0.82163
0.82138
0.82131
0.820143
0.813781
0.80429
0.742789
0.838774
0.824628
0.821766
0.801207
0.816826
0.804787
0.82149
0.819801
0.857353
0.82273
0.648866
0.81846
0.823692
0.823605
0.780192
0.817106
0.807531
0.819848
0.848276
0.610759
0.811556
0.801698
0.820968
0.82268
0.8227
0.819299
0.823543
0.819095
0.819957
0.803663
0.819583
0.848872
0.819713
0.79306
0.817645
0.634201
0.716259
0.820082
0.822202
0.804144
0.826747
0.735128
0.803455
0.803415
0.824921
0.669713
0.822723
0.801796
0.82107
0.868344
0.78732
0.826432
0.823034
0.82529
0.820199
0.772595
0.803157
0.819919
0.9029
0.828572
0.821808
0.833457
0.816263
0.872047
0.715683
0.677246
0.854744
0.803194
0.672341
0.852639