# vtk DataFile Version 1.0
unstructured grid
ascii
DATASET UNSTRUCTURED_GRID
points 7812 float
-1 0 0
-1 1 0
2 0 0
2 1 0
0 0 0
1 0 0
-1 1 0.1
-1 0 0.1
0 0 0.1
1 0 0.1
2 0 0.1
2 1 0.1
-0.99 0 0
-0.98 0 0
-0.97 0 0
-0.96 0 0
-0.95 0 0
-0.94 0 0
-0.93 0 0
-0.92 0 0
-0.91 0 0
-0.9 0 0
-0.89 0 0
-0.88 0 0
-0.87 0 0
-0.86 0 0
-0.85 0 0
-0.84 0 0
-0.83 0 0
-0.82 0 0
-0.81 0 0
-0.8 0 0
-0.79 0 0
-0.78 0 0
-0.77 0 0
-0.76 0 0
-0.75 0 0
-0.74 0 0
-0.73 0 0
-0.72 0 0
-0.71 0 0
-0.7 0 0
-0.69 0 0
-0.68 0 0
-0.67 0 0
-0.66 0 0
-0.65 0 0
-0.64 0 0
-0.63 0 0
-0.62 0 0
-0.61 0 0
-0.6 0 0
-0.59 0 0
-0.58 0 0
-0.57 0 0
-0.56 0 0
-0.55 0 0
-0.54 0 0
-0.53 0 0
-0.52 0 0
-0.51 0 0
-0.5 0 0
-0.49 0 0
-0.48 0 0
-0.47 0 0
-0.46 0 0
-0.45 0 0
-0.44 0 0
-0.43 0 0
-0.42 0 0
-0.41 0 0
-0.4 0 0
-0.39 0 0
-0.38 0 0
-0.37 0 0
-0.36 0 0
-0.35 0 0
-0.34 0 0
-0.33 0 0
-0.32 0 0
-0.31 0 0
-0.3 0 0
-0.29 0 0
-0.28 0 0
-0.27 0 0
-0.26 0 0
-0.25 0 0
-0.24 0 0
-0.23 0 0
-0.22 0 0
-0.21 0 0
-0.2 0 0
-0.19 0 0
-0.18 0 0
-0.17 0 0
-0.16 0 0
-0.15 0 0
-0.14 0 0
-0.13 0 0
-0.12 0 0
-0.11 0 0
-0.1 0 0
-0.09 0 0
-0.08 0 0
-0.07 0 0
-0.06 0 0
-0.05 0 0
-0.04 0 0
-0.03 0 0
-0.02 0 0
-0.01 0 0
1.01 0 0
1.02 0 0
1.03 0 0
1.04 0 0
1.05 0 0
1.06 0 0
1.07 0 0
1.08 0 0
1.09 0 0
1.1 0 0
1.11 0 0
1.12 0 0
1.13 0 0
1.14 0 0
1.15 0 0
1.16 0 0
1.17 0 0
1.18 0 0
1.19 0 0
1.2 0 0
1.21 0 0
1.22 0 0
1.23 0 0
1.24 0 0
1.25 0 0
1.26 0 0
1.27 0 0
1.28 0 0
1.29 0 0
1.3 0 0
1.31 0 0
1.32 0 0
1.33 0 0
1.34 0 0
1.35 0 0
1.36 0 0
1.37 0 0
1.38 0 0
1.39 0 0
1.4 0 0
1.41 0 0
1.42 0 0
1.43 0 0
1.44 0 0
1.45 0 0
1.46 0 0
1.47 0 0
1.48 0 0
1.49 0 0
1.5 0 0
1.51 0 0
1.52 0 0
1.53 0 0
1.54 0 0
1.55 0 0
1.56 0 0
1.57 0 0
1.58 0 0
1.59 0 0
1.6 0 0
1.61 0 0
1.62 0 0
1.63 0 0
1.64 0 0
1.65 0 0
1.66 0 0
1.67 0 0
1.68 0 0
1.69 0 0
1.7 0 0
1.71 0 0
1.72 0 0
1.73 0 0
1.74 0 0
1.75 0 0
1.76 0 0
1.77 0 0
1.78 0 0
1.79 0 0
1.8 0 0
1.81 0 0
1.82 0 0
1.83 0 0
1.84 0 0
1.85 0 0
1.86 0 0
1.87 0 0
1.88 0 0
1.89 0 0
1.9 0 0
1.91 0 0
1.92 0 0
1.93 0 0
1.94 0 0
1.95 0 0
1.96 0 0
1.97 0 0
1.98 0 0
1.99 0 0
2 0.010289 0
2 0.0215307 0
2 0.0338135 0
2 0.0472336 0
2 0.0618965 0
2 0.0779171 0
2 0.0954213 0
2 0.114546 0
2 0.135442 0
2 0.158274 0
2 0.183219 0
2 0.210474 0
2 0.240253 0
2 0.27279 0
2 0.308339 0
2 0.347181 0
2 0.389619 0
2 0.435987 0
2 0.486649 0
2 0.542002 0
2 0.602481 0
2 0.66856 0
2 0.740758 0
2 0.819642 0
2 0.90583 0
1.9 1 0
1.8 1 0
1.7 1 0
1.6 1 0
1.5 1 0
1.4 1 0
1.3 1 0
1.2 1 0
1.1 1 0
1 1 0
0.9 1 0
0.8 1 0
0.7 1 0
0.6 1 0
0.5 1 0
0.4 1 0
0.3 1 0
0.2 1 0
0.1 1 0
3.69793e-12 1 0
-0.1 1 0
-0.2 1 0
-0.3 1 0
-0.4 1 0
-0.5 1 0
-0.6 1 0
-0.7 1 0
-0.8 1 0
-0.9 1 0
-1 0.90583 0
-1 0.819642 0
-1 0.740758 0
-1 0.66856 0
-1 0.602481 0
-1 0.542002 0
-1 0.486649 0
-1 0.435987 0
-1 0.389619 0
-1 0.347181 0
-1 0.308339 0
-1 0.27279 0
-1 0.240253 0
-1 0.210474 0
-1 0.183219 0
-1 0.158274 0
-1 0.135442 0
-1 0.114546 0
-1 0.0954213 0
-1 0.0779171 0
-1 0.0618965 0
-1 0.0472336 0
-1 0.0338135 0
-1 0.0215307 0
-1 0.010289 0
0.00921362 0.00379763 0
0.0184561 0.00752451 0
0.0277268 0.0111804 0
0.0370253 0.0147652 0
0.0463511 0.0182786 0
0.0557034 0.0217203 0
0.0650819 0.0250903 0
0.074486 0.0283883 0
0.083915 0.0316141 0
0.0933685 0.0347675 0
0.102846 0.0378484 0
0.112347 0.0408565 0
0.12187 0.0437917 0
0.131416 0.0466538 0
0.140983 0.0494427 0
0.150572 0.0521581 0
0.160181 0.0547999 0
0.16981 0.0573681 0
0.179458 0.0598623 0
0.189125 0.0622825 0
0.198811 0.0646285 0
0.208514 0.0669001 0
0.218234 0.0690974 0
0.227971 0.07122 0
0.237724 0.073268 0
0.247493 0.0752411 0
0.257276 0.0771393 0
0.267073 0.0789625 0
0.276884 0.0807105 0
0.286708 0.0823832 0
0.296545 0.0839806 0
0.306394 0.0855025 0
0.316254 0.0869488 0
0.326125 0.0883196 0
0.336006 0.0896146 0
0.345896 0.0908339 0
0.355796 0.0919773 0
0.365704 0.0930447 0
0.375621 0.0940362 0
0.385544 0.0949517 0
0.395474 0.095791 0
0.40541 0.0965542 0
0.415352 0.0972412 0
0.425299 0.097852 0
0.43525 0.0983865 0
0.445205 0.0988447 0
0.455164 0.0992266 0
0.465125 0.0995321 0
0.475088 0.0997613 0
0.485052 0.0999141 0
0.495017 0.0999904 0
0.504983 0.0999904 0
0.514948 0.0999141 0
0.524912 0.0997613 0
0.534875 0.0995321 0
0.544836 0.0992266 0
0.554795 0.0988447 0
0.56475 0.0983865 0
0.574701 0.097852 0
0.584648 0.0972412 0
0.59459 0.0965542 0
0.604526 0.095791 0
0.614456 0.0949517 0
0.624379 0.0940362 0
0.634296 0.0930447 0
0.644204 0.0919773 0
0.654104 0.0908339 0
0.663994 0.0896146 0
0.673875 0.0883196 0
0.683746 0.0869488 0
0.693606 0.0855025 0
0.703455 0.0839806 0
0.713292 0.0823832 0
0.723116 0.0807105 0
0.732927 0.0789625 0
0.742724 0.0771393 0
0.752508 0.0752411 0
0.762276 0.073268 0
0.772029 0.07122 0
0.781766 0.0690974 0
0.791486 0.0669001 0
0.801189 0.0646285 0
0.810875 0.0622825 0
0.820542 0.0598623 0
0.83019 0.0573681 0
0.839819 0.0547999 0
0.849428 0.0521581 0
0.859017 0.0494427 0
0.868584 0.0466538 0
0.87813 0.0437917 0
0.887653 0.0408565 0
0.897154 0.0378484 0
0.906631 0.0347675 0
0.916085 0.0316141 0
0.925514 0.0283883 0
0.934918 0.0250903 0
0.944297 0.0217203 0
0.953649 0.0182786 0
0.962975 0.0147652 0
0.972273 0.0111804 0
0.981544 0.00752451 0
0.990786 0.00379763 0
-1 0.90583 0.1
-1 0.819642 0.1
-1 0.740758 0.1
-1 0.66856 0.1
-1 0.602481 0.1
-1 0.542002 0.1
-1 0.486649 0.1
-1 0.435987 0.1
-1 0.389619 0.1
-1 0.347181 0.1
-1 0.308339 0.1
-1 0.27279 0.1
-1 0.240253 0.1
-1 0.210474 0.1
-1 0.183219 0.1
-1 0.158274 0.1
-1 0.135442 0.1
-1 0.114546 0.1
-1 0.0954213 0.1
-1 0.0779171 0.1
-1 0.0618965 0.1
-1 0.0472336 0.1
-1 0.0338135 0.1
-1 0.0215307 0.1
-1 0.010289 0.1
-0.99 0 0.1
-0.98 0 0.1
-0.97 0 0.1
-0.96 0 0.1
-0.95 0 0.1
-0.94 0 0.1
-0.93 0 0.1
-0.92 0 0.1
-0.91 0 0.1
-0.9 0 0.1
-0.89 0 0.1
-0.88 0 0.1
-0.87 0 0.1
-0.86 0 0.1
-0.85 0 0.1
-0.84 0 0.1
-0.83 0 0.1
-0.82 0 0.1
-0.81 0 0.1
-0.8 0 0.1
-0.79 0 0.1
-0.78 0 0.1
-0.77 0 0.1
-0.76 0 0.1
-0.75 0 0.1
-0.74 0 0.1
-0.73 0 0.1
-0.72 0 0.1
-0.71 0 0.1
-0.7 0 0.1
-0.69 0 0.1
-0.68 0 0.1
-0.67 0 0.1
-0.66 0 0.1
-0.65 0 0.1
-0.64 0 0.1
-0.63 0 0.1
-0.62 0 0.1
-0.61 0 0.1
-0.6 0 0.1
-0.59 0 0.1
-0.58 0 0.1
-0.57 0 0.1
-0.56 0 0.1
-0.55 0 0.1
-0.54 0 0.1
-0.53 0 0.1
-0.52 0 0.1
-0.51 0 0.1
-0.5 0 0.1
-0.49 0 0.1
-0.48 0 0.1
-0.47 0 0.1
-0.46 0 0.1
-0.45 0 0.1
-0.44 0 0.1
-0.43 0 0.1
-0.42 0 0.1
-0.41 0 0.1
-0.4 0 0.1
-0.39 0 0.1
-0.38 0 0.1
-0.37 0 0.1
-0.36 0 0.1
-0.35 0 0.1
-0.34 0 0.1
-0.33 0 0.1
-0.32 0 0.1
-0.31 0 0.1
-0.3 0 0.1
-0.29 0 0.1
-0.28 0 0.1
-0.27 0 0.1
-0.26 0 0.1
-0.25 0 0.1
-0.24 0 0.1
-0.23 0 0.1
-0.22 0 0.1
-0.21 0 0.1
-0.2 0 0.1
-0.19 0 0.1
-0.18 0 0.1
-0.17 0 0.1
-0.16 0 0.1
-0.15 0 0.1
-0.14 0 0.1
-0.13 0 0.1
-0.12 0 0.1
-0.11 0 0.1
-0.1 0 0.1
-0.09 0 0.1
-0.08 0 0.1
-0.07 0 0.1
-0.06 0 0.1
-0.05 0 0.1
-0.04 0 0.1
-0.03 0 0.1
-0.02 0 0.1
-0.01 0 0.1
0.00921362 0.00379763 0.1
0.0184561 0.00752451 0.1
0.0277268 0.0111804 0.1
0.0370253 0.0147652 0.1
0.0463511 0.0182786 0.1
0.0557034 0.0217203 0.1
0.0650819 0.0250903 0.1
0.074486 0.0283883 0.1
0.083915 0.0316141 0.1
0.0933685 0.0347675 0.1
0.102846 0.0378484 0.1
0.112347 0.0408565 0.1
0.12187 0.0437917 0.1
0.131416 0.0466538 0.1
0.140983 0.0494427 0.1
0.150572 0.0521581 0.1
0.160181 0.0547999 0.1
0.16981 0.0573681 0.1
0.179458 0.0598623 0.1
0.189125 0.0622825 0.1
0.198811 0.0646285 0.1
0.208514 0.0669001 0.1
0.218234 0.0690974 0.1
0.227971 0.07122 0.1
0.237724 0.073268 0.1
0.247493 0.0752411 0.1
0.257276 0.0771393 0.1
0.267073 0.0789625 0.1
0.276884 0.0807105 0.1
0.286708 0.0823832 0.1
0.296545 0.0839806 0.1
0.306394 0.0855025 0.1
0.316254 0.0869488 0.1
0.326125 0.0883196 0.1
0.336006 0.0896146 0.1
0.345896 0.0908339 0.1
0.355796 0.0919773 0.1
0.365704 0.0930447 0.1
0.375621 0.0940362 0.1
0.385544 0.0949517 0.1
0.395474 0.095791 0.1
0.40541 0.0965542 0.1
0.415352 0.0972412 0.1
0.425299 0.097852 0.1
0.43525 0.0983865 0.1
0.445205 0.0988447 0.1
0.455164 0.0992266 0.1
0.465125 0.0995321 0.1
0.475088 0.0997613 0.1
0.485052 0.0999141 0.1
0.495017 0.0999904 0.1
0.504983 0.0999904 0.1
0.514948 0.0999141 0.1
0.524912 0.0997613 0.1
0.534875 0.0995321 0.1
0.544836 0.0992266 0.1
0.554795 0.0988447 0.1
0.56475 0.0983865 0.1
0.574701 0.097852 0.1
0.584648 0.0972412 0.1
0.59459 0.0965542 0.1
0.604526 0.095791 0.1
0.614456 0.0949517 0.1
0.624379 0.0940362 0.1
0.634296 0.0930447 0.1
0.644204 0.0919773 0.1
0.654104 0.0908339 0.1
0.663994 0.0896146 0.1
0.673875 0.0883196 0.1
0.683746 0.0869488 0.1
0.693606 0.0855025 0.1
0.703455 0.0839806 0.1
0.713292 0.0823832 0.1
0.723116 0.0807105 0.1
0.732927 0.0789625 0.1
0.742724 0.0771393 0.1
0.752508 0.0752411 0.1
0.762276 0.073268 0.1
0.772029 0.07122 0.1
0.781766 0.0690974 0.1
0.791486 0.0669001 0.1
0.801189 0.0646285 0.1
0.810875 0.0622825 0.1
0.820542 0.0598623 0.1
0.83019 0.0573681 0.1
0.839819 0.0547999 0.1
0.849428 0.0521581 0.1
0.859017 0.0494427 0.1
0.868584 0.0466538 0.1
0.87813 0.0437917 0.1
0.887653 0.0408565 0.1
0.897154 0.0378484 0.1
0.906631 0.0347675 0.1
0.916085 0.0316141 0.1
0.925514 0.0283883 0.1
0.934918 0.0250903 0.1
0.944297 0.0217203 0.1
0.953649 0.0182786 0.1
0.962975 0.0147652 0.1
0.972273 0.0111804 0.1
0.981544 0.00752451 0.1
0.990786 0.00379763 0.1
1.01 0 0.1
1.02 0 0.1
1.03 0 0.1
1.04 0 0.1
1.05 0 0.1
1.06 0 0.1
1.07 0 0.1
1.08 0 0.1
1.09 0 0.1
1.1 0 0.1
1.11 0 0.1
1.12 0 0.1
1.13 0 0.1
1.14 0 0.1
1.15 0 0.1
1.16 0 0.1
1.17 0 0.1
1.18 0 0.1
1.19 0 0.1
1.2 0 0.1
1.21 0 0.1
1.22 0 0.1
1.23 0 0.1
1.24 0 0.1
1.25 0 0.1
1.26 0 0.1
1.27 0 0.1
1.28 0 0.1
1.29 0 0.1
1.3 0 0.1
1.31 0 0.1
1.32 0 0.1
1.33 0 0.1
1.34 0 0.1
1.35 0 0.1
1.36 0 0.1
1.37 0 0.1
1.38 0 0.1
1.39 0 0.1
1.4 0 0.1
1.41 0 0.1
1.42 0 0.1
1.43 0 0.1
1.44 0 0.1
1.45 0 0.1
1.46 0 0.1
1.47 0 0.1
1.48 0 0.1
1.49 0 0.1
1.5 0 0.1
1.51 0 0.1
1.52 0 0.1
1.53 0 0.1
1.54 0 0.1
1.55 0 0.1
1.56 0 0.1
1.57 0 0.1
1.58 0 0.1
1.59 0 0.1
1.6 0 0.1
1.61 0 0.1
1.62 0 0.1
1.63 0 0.1
1.64 0 0.1
1.65 0 0.1
1.66 0 0.1
1.67 0 0.1
1.68 0 0.1
1.69 0 0.1
1.7 0 0.1
1.71 0 0.1
1.72 0 0.1
1.73 0 0.1
1.74 0 0.1
1.75 0 0.1
1.76 0 0.1
1.77 0 0.1
1.78 0 0.1
1.79 0 0.1
1.8 0 0.1
1.81 0 0.1
1.82 0 0.1
1.83 0 0.1
1.84 0 0.1
1.85 0 0.1
1.86 0 0.1
1.87 0 0.1
1.88 0 0.1
[...]
CELL_DATA 7425
SCALARS rho float
LOOKUP_TABLE default
0.587343
0.805044
0.819584
0.827545
0.799466
0.81918
0.820933
0.814169
0.813025
0.738683
0.863501
0.810049
0.813932
0.827401
0.803753
0.817183
0.798796
0.813305
0.803475
0.767286
0.831299
0.822061
0.72484
0.828074
0.803881
0.703176
0.83123
0.848335
0.800173
0.807961
0.819391
0.725436
0.803621
0.652239
0.519605
0.828041
0.803512
0.814146
0.811159
0.828031
0.716105
0.703434
0.790009
0.701852
0.586686
0.748262
0.799341
0.813866
0.662056
0.71922
0.746329
0.80516
0.812368
0.799119
0.709678
0.635758
0.822941
0.800123
0.738554
0.70099
0.709673
0.807667
0.813275
0.799422
0.798783
0.81764
0.584529
0.773319
0.704503
0.807881
0.804206
0.803206
0.883409
0.821134
0.810858
0.813084
0.805057
0.800447
0.813281
0.757789
0.816011
0.807247
0.810326
0.788719
0.835921
0.801131
0.57461
0.829979
0.542757
0.848497
0.70626
0.729794
0.845297
0.803183
0.817429
0.758289
0.836079
0.788038
0.825654
0.802519
0.808127
0.738648
0.803292
0.828263
0.597373
0.811086
0.824398
0.707556
0.81503
0.79921
0.81674
0.784564
0.78984
0.812439
0.789741
0.786337
0.831279
0.803108
0.699888
0.631586
0.805055
0.777301
0.812989
0.790422
0.858951
0.838901
0.807704
0.804297
0.661299
0.504421
0.814509
0.655194
0.515462
0.867768
0.662442
0.79956
0.811114
0.72362
0.58217
0.724944
0.723374
0.809636
0.809682
0.707175
0.803176
0.779629
0.565632
0.788553
0.782547
0.827793
0.816786
0.704345
0.802944
0.744308
0.705072
0.803282
0.81045
0.830434
0.797588
0.652368
0.802526
0.703129
0.801138
0.829767
0.820486
0.802382
0.813106
0.784845
0.806286
0.80069
0.819738
0.804521
0.791218
0.799173
0.799911
0.740219
0.803734
0.758793
0.594309
0.70586
0.799721
0.79274
0.879803
0.831865
0.619937
0.822954
0.79868
0.827374
0.799912
0.813444
0.812654
0.803199
0.806953
0.704441
0.815045
0.819284
0.770127
0.797173
0.861203
0.807776
0.811851
0.81121
0.613008
0.838954
0.573192
0.5321
0.595632
0.600913
0.828179
0.879337
0.807534
0.798661
0.841394
0.813013
0.816713
0.820795
0.815236
0.638123
0.550196
0.813764
0.545811
0.59276
0.703291
0.81173
0.8141
0.813084
0.833156
0.812957
0.864271
0.709787
0.835245
0.712819
0.805179
0.803928
0.801973
0.713989
0.720584
0.619623
0.70527
0.86363
0.875469
0.806274
0.807704
0.798896
0.811554
0.716008
0.821635
0.800233
0.825718
0.794637
0.809893
0.721394
0.812857
0.823763
0.739883
0.528734
0.799892
0.736408
0.843321
0.814379
0.726547
0.815611
0.814875
0.849961
0.80955
0.803915
0.803259
0.825678
0.860773
0.80548
0.619377
0.848902
0.812032
0.80561
0.827565
0.837351
0.81303
0.821458
0.793517
0.815106
0.866676
0.849956
0.827365
0.836758
0.802685
0.817191
0.803195
0.759737
0.701404
0.58106
0.700687
0.802375
0.812935
0.816019
0.854765
0.779678
0.645858
0.827105
0.521171
0.774316
0.801012
0.646519
0.496053
0.639218
0.815231
0.813277
0.813012
0.812762
0.82674
0.774448
0.811486
0.802674
0.812953
0.840729
0.867171
0.833577
0.802755
0.705683
0.795922
0.8343
0.691673
0.798788
0.802059
0.864793
0.817132
0.593195
0.813433
0.740603
0.852354
0.732072
0.810148
0.907657
0.799911
0.795683
0.659072
0.635688
0.711547
0.780633
0.826564
0.814969
0.813731
0.882499
0.858234
0.79958
0.799187
0.826044
0.739292
0.802538
0.879393
0.801386
0.804745
0.800739
0.802574
0.813009
0.815754
0.816404
0.636371
0.830016
0.645856
0.808488
0.639485
0.802651
0.802245
0.840278
0.728815
0.816358
0.808603
0.817012
0.799537
0.802501
0.811264
0.697017
0.824483
0.813102
0.812971
0.800687
0.736834
0.560122
0.806422
0.811065
0.803194
0.812941
0.794765
0.503902
0.846049
0.813356
0.803855
0.785755
0.813304
0.8047
0.803062
0.81627
0.807519
0.822535
0.768645
0.812677
0.807781
0.562852
0.803161
0.640228
0.838771
0.636349
0.814733
0.877908
0.593575
0.818099
0.749005
0.804421
0.87335
0.534048
0.823147
0.822286
0.803503
0.825762
0.811083
0.823484
0.830659
0.82486
0.739808
0.827544
0.761659
0.810241
0.794254
0.793657
0.758637
0.80561
0.802092
0.814497
0.752313
0.804726
0.604588
0.614372
0.689226
0.812854
0.844213
0.864849
0.829898
0.798626
0.81269
0.804912
0.818545
0.680605
0.801021
0.743007
0.824071
0.814832
0.80544
0.711583
0.727303
0.533937
0.605743
0.801328
0.611512
0.792622
0.765396
0.770082
0.727021
0.762505
0.767579
0.809479
0.814967
0.81958
0.811511
0.710634
0.602659
0.839049
0.806965
0.783169
0.809881
0.802585
0.836578
0.718346
0.855299
0.763701
0.728491
0.764569
0.811545
0.545263
0.79887
0.841634
0.813326
0.813825
0.809757
0.799212
0.780349
0.835717
0.803114
0.842991
0.721154
0.70734
0.800365
0.795183
0.822048
0.708825
0.847978
0.80047
0.816086
0.798771
0.779199
0.80831
0.594773
0.677533
0.632531
0.812973
0.80384
0.826379
0.7493
0.810606
0.814835
0.820422
0.799021
0.729467
0.796919
0.814345
0.803204
0.703432
0.813633
0.818938
0.840047
0.810825
0.825363
0.862304
0.857285
0.744013
0.603564
0.838047
0.805832
0.843396
0.814266
0.822938
0.813564
0.813843
0.635132
0.805234
0.809338
0.812872
0.791933
0.810616
0.804808
0.860605
0.798708
0.812786
0.814752
0.871932
0.597788
0.813501
0.842494
0.883326
0.530729
0.816439
0.829986
0.796157
0.814761
0.794986
0.86761
0.812226
0.831373
0.812763
0.619492
0.802408
0.804157
0.691062
0.853154
0.759761
0.801824
0.814017
0.81276
0.859787
0.795366
0.833632
0.834744
0.784344
0.825206
0.842424
0.799788
0.810542
0.807007
0.805325
0.814878
0.802639
0.845242
0.769285
0.809793
0.803175
0.815241
0.723235
0.812945
0.818387
0.752652
0.813628
0.816381
0.827623
0.825145
0.800763
0.800692
0.850514
0.767923
0.825186
0.844225
0.804567
0.506042
0.812948
0.828306
0.852401
0.812684
0.803154
0.808546
0.855061
0.780083
0.802594
0.801276
0.812987
0.727309
0.802756
0.83003
0.808065
0.79499
0.793561
0.84322
0.806617
0.845334
0.802027
0.82428
0.812809
0.804226
0.84187
0.812917
0.679622
0.818813
0.807111
0.812881
0.906149
0.800838
0.815926
0.800513
0.800436
0.816242
0.800541
0.803372
0.783732
0.747375
0.806548
0.812949
0.758075
0.791452
0.823054
0.81303
0.82229
0.806343
0.825803
0.875315
0.830676
0.575247
0.708879
0.840776
0.817326
0.844177
0.814803
0.85012
0.807389
0.812429
0.799397
0.838432
0.860948
0.85281
0.731624
0.814133
0.822209
0.743933
0.81716
0.775979
0.800257
0.733162
0.816105
0.830893
0.823485
0.861936
0.814258
0.813348
0.81023
0.814686
0.835815
0.812214
0.798713
0.810244
0.737649
0.811401
0.774172
0.832864
0.81282
0.63892
0.777667
0.811193
0.79923
0.819862
0.802528
0.814718
0.817338
0.804494
0.819433
0.804173
0.805905
0.597558
0.847064
0.825162
0.826734
0.814976
0.80323
0.701926
0.806534
0.907839
0.813634
0.801087
0.812934
0.78231
0.807312
0.813331
0.821322
0.814653
0.813278
0.81628
0.701403
0.777902
0.764654
0.812713
0.805348
0.801083
0.621473
0.805769
0.802682
0.708314
0.837238
0.817239
0.802234
0.807504
0.799445
0.817289
0.813965
0.813339
0.812933
0.709757
0.831721
0.800298
0.807467
0.842854
0.817675
0.816335
0.800225
0.753689
0.823866
0.787467
0.821469
0.789438
0.805694
0.820989
0.737549
0.817438
0.650984
0.872042
0.704426
0.845029
0.800853
0.875169
0.793755
0.801703
0.820708
0.83627
0.838432
0.8255
0.819865
0.814753
0.801174
0.804197
0.808267
0.725929
0.827258
0.800094
0.719613
0.83056
0.705383
0.800057
0.860485
0.805594
0.701709
0.797864
0.814135
0.704842
0.785663
0.819422
0.831882
0.807012
0.574927
0.728809
0.812401
0.801384
0.812982
0.800718
0.737286
0.814061
0.815761
0.812548
0.775406
0.803272
0.804505
0.803631
0.56062
0.81277
0.834125
0.580093
0.815211
0.816146
0.814743
0.8184
0.814468
0.824572
0.799136
0.795137
0.771028
0.822917
0.829684
0.825125
0.834945
0.765412
0.809054
0.724593
0.772397
0.808857
0.82111
0.813337
0.800981
0.858384
0.812986
0.800384
0.809648
0.816138
0.815233
0.836657
0.814541
0.812863
0.811992
0.813868
0.800199
0.821031
0.803779
0.822865
0.813519
0.575813
0.813566
0.834491
0.858162
0.838208
0.491202
0.81685
0.804562
0.496945
0.669576
0.643639
0.834322
0.808009
0.811662
0.812854
0.803208
0.816791
0.810986
0.534826
0.686701
0.818256
0.806636
0.815658
0.803516
0.810254
0.810965
0.820273
0.799559
0.692526
0.856011
0.803155
0.814731
0.813673
0.75783
0.486149
0.832922
0.813574
0.741947
0.802706
0.806259
0.591287
0.827556
0.814827
0.827752
0.81882
0.826039
0.80474
0.719624
0.643666
0.562241
0.82535
0.808574
0.782975
0.813027
0.779851
0.81793
0.873326
0.762417
0.821646
0.813573
0.82587
0.883575
0.814489
0.811888
0.803277
0.813877
0.691874
0.82824
0.799922
0.810222
0.802223
0.784273
0.854182
0.822076
0.840503
0.82156
0.757583
0.755948
0.803366
0.81814
0.803069
0.805254
0.802601
0.77571
0.81473
0.761645
0.821208
0.662164
0.814021
0.802973
0.735645
0.823278
0.81801
0.740049
0.801177
0.757272
0.880758
0.800731
0.812898
0.762739
0.800141
0.81432
0.803958
0.590023
0.820971
0.798696
0.801396
0.814572
0.825643
0.757207
0.805577
0.841696
0.826996
0.814119
0.835865
0.700355
0.700225
0.812982
0.744217
0.822253
0.771415
0.81289
0.80253
0.810432
0.752011
0.794212
0.76439
0.80994
0.803147
0.631301
0.779058
0.799246
0.849081
0.814415
0.828681
0.526763
0.825352
0.785175
0.858754
0.800949
0.818008
0.800337
0.785829
0.798796
0.825741
0.835785
0.821794
0.817159
0.70687
0.773887
0.815398
0.805389
0.810033
0.803916
0.70663
0.792868
0.803498
0.810707
0.827228
0.851227
0.83188
0.813516
0.79948
0.804271
0.802062
0.779668
0.611747
0.800373
0.731399
0.662017
0.822838
0.798891
0.777272
0.800023
0.754213
0.785318
0.811514
0.822235
0.803381
0.81605
0.817385
0.820685
0.813441
0.808508
0.712218
0.699474
0.641004
0.829308
0.869582
0.81539
0.841383
0.847858
0.863752
0.735816
0.81662
0.863027
0.81023
0.812929
0.816224
0.73287
0.812467
0.806709
0.806245
0.517538
0.81302
0.761227
0.813209
0.813798
0.803548
0.705433
0.813249
0.610743
0.825057
0.802317
0.822263
0.855183
0.803438
0.795385
0.820968
0.811626
0.805729
0.7623
0.510181
0.820931
0.803095
0.828981
0.825792
0.802147
0.807034
0.834488
0.720914
0.500769
0.886271
0.800625
0.815731
0.80433
0.710388
0.798678
0.80005
0.815107
0.736197
0.646602
0.883258
0.714232
0.836574
0.812034
0.832915
0.842685
0.792225
0.804752
0.813643
0.852796
0.738371
0.870715
0.814063
0.562962
0.802507
0.748899
0.852931
0.760356
0.804225
0.803961
0.799671
0.801608
0.808926
0.812962
0.855632
0.806034
0.80287
0.801317
0.800045
0.812296
0.816912
0.802622
0.81254
0.849227
0.803101
0.783492
0.802245
0.839656
0.725177
0.813676
0.813872
0.639101
0.71318
0.805558
0.823053
0.803604
0.512026
0.856402
0.813257
0.833056
0.805314
0.803318
0.801356
0.786287
0.587296
0.804305
0.816141
0.836006
0.820599
0.813003
0.798207
0.74704
0.80158
0.76585
0.787556
0.799376
0.790979
0.751111
0.800876
0.81151
0.810417
0.832221
0.849144
0.553466
0.841925
0.812899
0.820859
0.802035
0.822674
0.811131
0.894621
0.800265
0.867186
0.805697
0.75983
0.862136
0.802287
0.800251
0.824188
0.660496
0.645384
0.803401
0.803863
0.704574
0.654398
0.799908
0.823882
0.813082
0.822619
0.733055
0.817212
0.812891
0.826161
0.81698
0.811952
0.812919
0.754631
0.803939
0.815717
0.811386
0.676303
0.566598
0.812956
0.650093
0.721985
0.555285
0.841418
0.800161
0.527289
0.600895
0.827536
0.908071
0.818182
0.652412
0.814202
0.786473
0.801752
0.786427
0.820701
0.810138
0.788303
0.821085
0.801049
0.587829
0.817861
0.766722
0.815967
0.70076
0.822252
0.78968
0.813994
0.800092
0.662964
0.843529
0.80658
0.806661
0.493925
0.81687
0.800418
0.852233
0.711274
0.817124
0.58436
0.719077
0.801436
0.7967
0.732864
0.71564
0.715858
0.507323
0.590287
0.800032
0.517855
0.822631
0.520722
0.757237
0.671434
0.599853
0.540901
0.745483
0.803085
0.715028
0.821329
0.800961
0.802967
0.761238
0.889687
0.799089
0.824511
0.803438
0.812843
0.706029
0.80761
0.736751
0.821942
0.886048
0.833594
0.747772
0.82282
0.770537
0.879911
0.804203
0.758709
0.850703
0.776903
0.799934
0.805338
0.758277
0.744713
0.665822
0.804992
0.803027
0.817942
0.833514
0.611586
0.80796
0.538346
0.668674
0.616622
0.818566
0.821074
0.809042
0.803983
0.615783
0.872469
0.802681
0.802949
0.863532
0.812479
0.772064
0.812216
0.802373
0.817938
0.803148
0.717104
0.803396
0.655595
0.799045
0.80413
0.80156
0.639254
0.811557
0.810332
0.725663
0.817847
0.549332
0.57685
0.804154
0.696553
0.726
0.572242
0.723706
0.813668
0.707286
0.773008
0.716626
0.812826
0.670287
0.762151
0.806471
0.810649
0.654646
0.801957
0.895163
0.796714
0.816833
0.585428
0.693888
0.800977
0.812996
0.814053
0.851673
0.812694
0.804264
0.803736
0.803344
0.713874
0.717517
0.615747
0.771523
0.533128
0.723836
0.809964
0.81445
0.806172
0.799308
0.537307
0.809108
0.803764
0.554184
0.543582
0.746643
0.803579
0.806212
0.549504
0.798243
0.56975
0.720649
0.607905
0.813564
0.802287
0.59718
0.608408
0.867908
0.810063
0.765452
0.717948
0.621925
0.655415
0.709555
0.816049
0.759818
0.765496
0.624126
0.753924
0.809351
0.815405
0.812507
0.815512
0.865693
0.754749
0.818964
0.803345
0.851296
0.812912
0.802779
0.813126
0.722448
0.812984
0.812028
0.815221
0.81119
0.815928
0.803276
0.817959
0.810426
0.809778
0.8173
0.800122
0.816629
0.818985
0.667558
0.818641
0.868427
0.818201
0.792942
0.646001
0.858595
0.818821
0.824915
0.799583
0.811263
0.757501
0.852562
0.559894
0.726784
0.80987
0.815704
0.803881
0.803367
0.832071
0.805068
0.805229
0.815302
0.780749
0.838573
0.841964
0.815235
0.664402
0.612785
0.815803
0.816655
0.788351
0.849645
0.847274
0.810894
0.813664
0.777798
0.814127
0.817865
0.814152
0.818808
0.813139
0.81586
0.851059
0.816006
0.814538
0.817587
0.8178
0.784915
0.814154
0.804092
0.804173
0.80465
0.818601
0.811534
0.788384
0.753945
0.812714
0.806285
0.808821
0.806384
0.857781
0.803377
0.814034
0.812742
0.805218
0.573011
0.803894
0.812786
0.815061
0.810322
0.812829
0.813341
0.813068
0.810184
0.864402
0.501856
0.81286
0.841677
0.812694
0.802973
0.808429
0.815036
0.839697
0.800484
0.801257
0.81263
0.70553
0.812878
0.808248
0.807395
0.812595
0.812927
0.813069
0.8134
0.51211
0.81188
0.715954
0.885849
0.821081
0.733352
0.671874
0.815397
0.803548
0.818754
0.646582
0.801678
0.813371
0.648066
0.799891
0.804106
0.815478
0.806296
0.856752
0.809856
0.60704
0.800859
0.775167
0.811224
0.889079
0.803312
0.815522
0.819341
0.832218
0.813437
0.822424
0.836359
0.635062
0.802659
0.655865
0.813783
0.813683
0.712433
0.813569
0.804849
0.713058
0.814948
0.701462
0.861085
0.784124
0.814331
0.812934
0.813465
0.668005
0.81369
0.633377
0.800227
0.792383
0.822318
0.815213
0.716126
0.766699
0.830069
0.812791
0.821314
0.821928
0.813474
0.825353
0.799535
0.55224
0.754886
0.759265
0.73134
0.837623
0.822398
0.834354
0.776083
0.802766
0.813067
0.812991
0.812994
0.77467
0.563954
0.803207
0.528827
0.808224
0.824319
0.799739
0.803764
0.813
0.806023
0.782658
0.732233
0.813423
0.859153
0.813719
0.799325
0.736882
0.809651
0.788737
0.83373
0.504251
0.795988
0.805936
0.798912
0.689431
0.812879
0.810779
0.857139
0.569207
0.807342
0.803273
0.812857
0.612769
0.813124
0.803337
0.803407
0.803031
0.813235
0.813332
0.816132
0.813076
0.717714
0.804509
0.803204
0.813026
0.896166
0.813181
0.774024
0.841181
0.799187
0.803137
0.601454
0.81292
0.803361
0.825701
0.801977
0.866232
0.814844
0.853474
0.800378
0.820653
0.777905
0.558456
0.752763
0.794274
0.803966
0.813942
0.813834
0.555667
0.861789
0.857986
0.76852
0.75768
0.738533
0.812105
0.848458
0.812958
0.813724
0.812993
0.804278
0.726755
0.803505
0.799143
0.764194
0.824276
0.823012
0.861847
0.815672
0.813004
0.525362
0.808893
0.812964
0.800738
0.774003
0.818075
0.803113
0.812911
0.826897
0.79846
0.80361
0.801241
0.815189
0.839124
0.802408
0.799197
0.801534
0.766083
0.81988
0.567223
0.868381
0.803694
0.545906
0.803192
0.80315
0.819604
0.592592
0.606275
0.801583
0.803674
0.800882
0.860734
0.779964
0.814645
0.802941
0.865806
0.804718
0.804455
0.826322
0.815961
0.820139
0.821286
0.820336
0.867481
0.729315
0.852151
0.817212
0.65376
0.802567
0.803189
0.803641
0.82113
0.823512
0.80399
0.801118
0.800085
0.822684
0.803219
0.803611
0.799699
0.82439
0.803976
0.802008
0.806081
0.827868
0.800582
0.801553
0.824304
0.799617
0.815396
0.651359
0.826391
0.849843
0.804886
0.81958
0.803236
0.828749
0.837495
0.8034
0.821482
0.800557
0.807014
0.789562
0.802169
0.803181
0.80636
0.805916
0.804547
0.818551
0.81476
0.811242
0.831408
0.802217
0.802227
0.799937
0.789003
0.833785
0.803152
0.819309
0.81522
0.807119
0.805064
0.80295
0.838904
0.864815
0.799608
0.679016
0.801202
0.842148
0.8166
0.805166
0.804467
0.819702
0.844591
0.602225
0.828801
0.79452
0.850431
0.818735
0.812002
0.813283
0.808266
0.803958
0.812778
0.80876
0.591942
0.84798
0.79462
0.814192
0.854584
0.819283
0.763217
0.808646
0.814463
0.815466
0.80297
0.661778
0.809243
0.863149
0.802596
0.800728
0.775456
0.871214
0.800452
0.877065
0.806699
0.817169
0.820615
0.802264
0.803842
0.81262
0.815888
0.803508
0.813336
0.81675
0.881347
0.820697
0.809298
0.800175
0.828408
0.810482
0.838903
0.808825
0.806944
0.812159
0.816552
0.829907
0.813668
0.822532
0.832518
0.814203
0.699853
0.691105
0.813057
0.817747
0.803849
0.813133
0.514409
0.854868
0.799791
0.806227
0.81394
0.813492
0.803963
0.81249
0.800506
0.801229
0.808054
0.814734
0.756945
0.784665
0.82294
0.842739
0.834809
0.800291
0.805092
0.803357
0.812913
0.805719
0.799558
0.799822
0.801028
0.810909
0.797815
0.802785
0.835489
0.831367
0.729944
0.67168
0.807582
0.698795
0.799533
0.572723
0.804412
0.806944
0.803137
0.818165
0.833818
0.813931
0.812871
0.810267
0.80385
0.881517
0.816269
0.804839
0.772279
0.58633
0.810239
0.80666
0.769389
0.81442
0.81388
0.791477
0.800709
0.804034
0.625387
0.830439
0.803504
0.781531
0.779324
0.852706
0.809988
0.802918
0.802642
0.810236
0.811063
0.519001
0.801801
0.839487
0.81393
0.798578
0.588926
0.814547
0.814074
0.812961
0.833726
0.813922
0.803936
0.82189
0.805629
0.575917
0.808637
0.736608
0.798507
0.81364
0.722254
0.814929
0.846045
0.831607
0.664572
0.890898
0.785599
0.777452
0.796877
0.779525
0.808632
0.850022
0.808011
0.802874
0.813554
0.808868
0.782627
0.785937
0.813884
0.808354
0.834836
0.821266
0.835672
0.801303
0.799687
0.813055
0.856608
0.816456
0.818374
0.813351
0.607445
0.795529
0.823883
0.829337
0.865893
0.812614
0.818936
0.509036
0.809749
0.800621
0.812614
0.814765
0.847578
0.813058
0.811087
0.881493
0.76458
0.812552
0.813241
0.809028
0.805213
0.814229
0.65599
0.800503
0.849524
0.833503
0.810619
0.813557
0.813371
0.809564
0.69917
0.812494
0.800205
0.838562
0.81847
0.811631
0.831314
0.792738
0.811549
0.81781
0.808835
0.819284
0.744334
0.854795
0.81896
0.813805
0.813062
0.81271
0.815712
0.817151
0.812757
0.810786
0.841067
0.81859
0.800191
0.825274
0.826939
0.816064
0.814461
0.800397
0.801529
0.813052
0.81902
0.829397
0.812803
0.816452
0.799868
0.809961
0.812841
0.812804
0.802499
0.814663
0.813331
0.803247
0.812865
0.835648
0.800026
0.809433
0.821556
0.560162
0.814212
0.81816
0.815508
0.815003
0.821959
0.828814
0.815618
0.818831
0.7015
0.813063
0.801356
0.815613
0.819019
0.835055
0.821558
0.815534
0.829363
0.824932
0.810679
0.819179
0.819556
0.804226
0.813159
0.815601
0.819446
0.832104
0.812631
0.815694
0.802718
0.812938
0.813053
0.522982
0.627845
0.814343
0.821433
0.80176
0.822459
0.815902
0.841859
0.708177
0.813744
0.730553
0.817389
0.810316
0.813164
0.829338
0.813655
0.804907
0.812924
0.830069
0.839353
0.812798
0.719247
0.819247
0.816026
0.799952
0.803029
0.815306
0.855917
0.812651
0.813373
0.849688
0.828987
0.843256
0.573765
0.8291
0.813942
0.810895
0.817394
0.850571
0.817758
0.718447
0.799578
0.831739
0.799814
0.799764
0.805408
0.747873
0.813397
0.814342
0.725518
0.814353
0.827319
0.813316
0.814028
0.799261
0.818368
0.812988
0.823572
0.808698
0.808198
0.814964
0.705477
0.819067
0.814077
0.812974
0.640039
0.718604
0.599478
0.823255
0.530097
0.853877
0.727373
0.842792
0.812527
0.722889
0.821401
0.815875
0.742595
0.807669
0.818346
0.794407
0.816515
0.815857
0.815787
0.812989
0.807889
0.803663
0.737339
0.836175
0.820157
0.816601
0.799261
0.815412
0.802045
0.816001
0.813458
0.854667
0.817764
0.497448
0.813295
0.81878
0.818654
0.778069
0.815723
0.806722
0.818554
0.845403
0.596556
0.809141
0.799345
0.815315
0.817612
0.817681
0.812452
0.818591
0.813849
0.814574
0.803073
0.81427
0.8461
0.813929
0.792003
0.811489
0.622633
0.71869
0.813065
0.816986
0.802945
0.822291
0.73546
0.803151
0.803185
0.820195
0.633768
0.817586
0.799394
0.815409
0.864731
0.785502
0.821937
0.817967
0.822803
0.814015
0.769622
0.80243
0.813563
0.902293
0.827148
0.816419
0.832192
0.809608
0.868274
0.7193
0.690413
0.852374
0.802703