# vtk DataFile Version 1.0
unstructured grid
ascii
DATASET UNSTRUCTURED_GRID
points 7812 float
-1 0 0
-1 1 0
2 0 0
2 1 0
0 0 0
1 0 0
-1 1 0.1
-1 0 0.1
0 0 0.1
1 0 0.1
2 0 0.1
2 1 0.1
-0.99 0 0
-0.98 0 0
-0.97 0 0
-0.96 0 0
-0.95 0 0
-0.94 0 0
-0.93 0 0
-0.92 0 0
-0.91 0 0
-0.9 0 0
-0.89 0 0
-0.88 0 0
-0.87 0 0
-0.86 0 0
-0.85 0 0
-0.84 0 0
-0.83 0 0
-0.82 0 0
-0.81 0 0
-0.8 0 0
-0.79 0 0
-0.78 0 0
-0.77 0 0
-0.76 0 0
-0.75 0 0
-0.74 0 0
-0.73 0 0
-0.72 0 0
-0.71 0 0
-0.7 0 0
-0.69 0 0
-0.68 0 0
-0.67 0 0
-0.66 0 0
-0.65 0 0
-0.64 0 0
-0.63 0 0
-0.62 0 0
-0.61 0 0
-0.6 0 0
-0.59 0 0
-0.58 0 0
-0.57 0 0
-0.56 0 0
-0.55 0 0
-0.54 0 0
-0.53 0 0
-0.52 0 0
-0.51 0 0
-0.5 0 0
-0.49 0 0
-0.48 0 0
-0.47 0 0
-0.46 0 0
-0.45 0 0
-0.44 0 0
-0.43 0 0
-0.42 0 0
-0.41 0 0
-0.4 0 0
-0.39 0 0
-0.38 0 0
-0.37 0 0
-0.36 0 0
-0.35 0 0
-0.34 0 0
-0.33 0 0
-0.32 0 0
-0.31 0 0
-0.3 0 0
-0.29 0 0
-0.28 0 0
-0.27 0 0
-0.26 0 0
-0.25 0 0
-0.24 0 0
-0.23 0 0
-0.22 0 0
-0.21 0 0
-0.2 0 0
-0.19 0 0
-0.18 0 0
-0.17 0 0
-0.16 0 0
-0.15 0 0
-0.14 0 0
-0.13 0 0
-0.12 0 0
-0.11 0 0
-0.1 0 0
-0.09 0 0
-0.08 0 0
-0.07 0 0
-0.06 0 0
-0.05 0 0
-0.04 0 0
-0.03 0 0
-0.02 0 0
-0.01 0 0
1.01 0 0
1.02 0 0
1.03 0 0
1.04 0 0
1.05 0 0
1.06 0 0
1.07 0 0
1.08 0 0
1.09 0 0
1.1 0 0
1.11 0 0
1.12 0 0
1.13 0 0
1.14 0 0
1.15 0 0
1.16 0 0
1.17 0 0
1.18 0 0
1.19 0 0
1.2 0 0
1.21 0 0
1.22 0 0
1.23 0 0
1.24 0 0
1.25 0 0
1.26 0 0
1.27 0 0
1.28 0 0
1.29 0 0
1.3 0 0
1.31 0 0
1.32 0 0
1.33 0 0
1.34 0 0
1.35 0 0
1.36 0 0
1.37 0 0
1.38 0 0
1.39 0 0
1.4 0 0
1.41 0 0
1.42 0 0
1.43 0 0
1.44 0 0
1.45 0 0
1.46 0 0
1.47 0 0
1.48 0 0
1.49 0 0
1.5 0 0
1.51 0 0
1.52 0 0
1.53 0 0
1.54 0 0
1.55 0 0
1.56 0 0
1.57 0 0
1.58 0 0
1.59 0 0
1.6 0 0
1.61 0 0
1.62 0 0
1.63 0 0
1.64 0 0
1.65 0 0
1.66 0 0
1.67 0 0
1.68 0 0
1.69 0 0
1.7 0 0
1.71 0 0
1.72 0 0
1.73 0 0
1.74 0 0
1.75 0 0
1.76 0 0
1.77 0 0
1.78 0 0
1.79 0 0
1.8 0 0
1.81 0 0
1.82 0 0
1.83 0 0
1.84 0 0
1.85 0 0
1.86 0 0
1.87 0 0
1.88 0 0
1.89 0 0
1.9 0 0
1.91 0 0
1.92 0 0
1.93 0 0
1.94 0 0
1.95 0 0
1.96 0 0
1.97 0 0
1.98 0 0
1.99 0 0
2 0.010289 0
2 0.0215307 0
2 0.0338135 0
2 0.0472336 0
2 0.0618965 0
2 0.0779171 0
2 0.0954213 0
2 0.114546 0
2 0.135442 0
2 0.158274 0
2 0.183219 0
2 0.210474 0
2 0.240253 0
2 0.27279 0
2 0.308339 0
2 0.347181 0
2 0.389619 0
2 0.435987 0
2 0.486649 0
2 0.542002 0
2 0.602481 0
2 0.66856 0
2 0.740758 0
2 0.819642 0
2 0.90583 0
1.9 1 0
1.8 1 0
1.7 1 0
1.6 1 0
1.5 1 0
1.4 1 0
1.3 1 0
1.2 1 0
1.1 1 0
1 1 0
0.9 1 0
0.8 1 0
0.7 1 0
0.6 1 0
0.5 1 0
0.4 1 0
0.3 1 0
0.2 1 0
0.1 1 0
3.69793e-12 1 0
-0.1 1 0
-0.2 1 0
-0.3 1 0
-0.4 1 0
-0.5 1 0
-0.6 1 0
-0.7 1 0
-0.8 1 0
-0.9 1 0
-1 0.90583 0
-1 0.819642 0
-1 0.740758 0
-1 0.66856 0
-1 0.602481 0
-1 0.542002 0
-1 0.486649 0
-1 0.435987 0
-1 0.389619 0
-1 0.347181 0
-1 0.308339 0
-1 0.27279 0
-1 0.240253 0
-1 0.210474 0
-1 0.183219 0
-1 0.158274 0
-1 0.135442 0
-1 0.114546 0
-1 0.0954213 0
-1 0.0779171 0
-1 0.0618965 0
-1 0.0472336 0
-1 0.0338135 0
-1 0.0215307 0
-1 0.010289 0
0.00921362 0.00379763 0
0.0184561 0.00752451 0
0.0277268 0.0111804 0
0.0370253 0.0147652 0
0.0463511 0.0182786 0
0.0557034 0.0217203 0
0.0650819 0.0250903 0
0.074486 0.0283883 0
0.083915 0.0316141 0
0.0933685 0.0347675 0
0.102846 0.0378484 0
0.112347 0.0408565 0
0.12187 0.0437917 0
0.131416 0.0466538 0
0.140983 0.0494427 0
0.150572 0.0521581 0
0.160181 0.0547999 0
0.16981 0.0573681 0
0.179458 0.0598623 0
0.189125 0.0622825 0
0.198811 0.0646285 0
0.208514 0.0669001 0
0.218234 0.0690974 0
0.227971 0.07122 0
0.237724 0.073268 0
0.247493 0.0752411 0
0.257276 0.0771393 0
0.267073 0.0789625 0
0.276884 0.0807105 0
0.286708 0.0823832 0
0.296545 0.0839806 0
0.306394 0.0855025 0
0.316254 0.0869488 0
0.326125 0.0883196 0
0.336006 0.0896146 0
0.345896 0.0908339 0
0.355796 0.0919773 0
0.365704 0.0930447 0
0.375621 0.0940362 0
0.385544 0.0949517 0
0.395474 0.095791 0
0.40541 0.0965542 0
0.415352 0.0972412 0
0.425299 0.097852 0
0.43525 0.0983865 0
0.445205 0.0988447 0
0.455164 0.0992266 0
0.465125 0.0995321 0
0.475088 0.0997613 0
0.485052 0.0999141 0
0.495017 0.0999904 0
0.504983 0.0999904 0
0.514948 0.0999141 0
0.524912 0.0997613 0
0.534875 0.0995321 0
0.544836 0.0992266 0
0.554795 0.0988447 0
0.56475 0.0983865 0
0.574701 0.097852 0
0.584648 0.0972412 0
0.59459 0.0965542 0
0.604526 0.095791 0
0.614456 0.0949517 0
0.624379 0.0940362 0
0.634296 0.0930447 0
0.644204 0.0919773 0
0.654104 0.0908339 0
0.663994 0.0896146 0
0.673875 0.0883196 0
0.683746 0.0869488 0
0.693606 0.0855025 0
0.703455 0.0839806 0
0.713292 0.0823832 0
0.723116 0.0807105 0
0.732927 0.0789625 0
0.742724 0.0771393 0
0.752508 0.0752411 0
0.762276 0.073268 0
0.772029 0.07122 0
0.781766 0.0690974 0
0.791486 0.0669001 0
0.801189 0.0646285 0
0.810875 0.0622825 0
0.820542 0.0598623 0
0.83019 0.0573681 0
0.839819 0.0547999 0
0.849428 0.0521581 0
0.859017 0.0494427 0
0.868584 0.0466538 0
0.87813 0.0437917 0
0.887653 0.0408565 0
0.897154 0.0378484 0
0.906631 0.0347675 0
0.916085 0.0316141 0
0.925514 0.0283883 0
0.934918 0.0250903 0
0.944297 0.0217203 0
0.953649 0.0182786 0
0.962975 0.0147652 0
0.972273 0.0111804 0
0.981544 0.00752451 0
0.990786 0.00379763 0
-1 0.90583 0.1
-1 0.819642 0.1
-1 0.740758 0.1
-1 0.66856 0.1
-1 0.602481 0.1
-1 0.542002 0.1
-1 0.486649 0.1
-1 0.435987 0.1
-1 0.389619 0.1
-1 0.347181 0.1
-1 0.308339 0.1
-1 0.27279 0.1
-1 0.240253 0.1
-1 0.210474 0.1
-1 0.183219 0.1
-1 0.158274 0.1
-1 0.135442 0.1
-1 0.114546 0.1
-1 0.0954213 0.1
-1 0.0779171 0.1
-1 0.0618965 0.1
-1 0.0472336 0.1
-1 0.0338135 0.1
-1 0.0215307 0.1
-1 0.010289 0.1
-0.99 0 0.1
-0.98 0 0.1
-0.97 0 0.1
-0.96 0 0.1
-0.95 0 0.1
-0.94 0 0.1
-0.93 0 0.1
-0.92 0 0.1
-0.91 0 0.1
-0.9 0 0.1
-0.89 0 0.1
-0.88 0 0.1
-0.87 0 0.1
-0.86 0 0.1
-0.85 0 0.1
-0.84 0 0.1
-0.83 0 0.1
-0.82 0 0.1
-0.81 0 0.1
-0.8 0 0.1
-0.79 0 0.1
-0.78 0 0.1
-0.77 0 0.1
-0.76 0 0.1
-0.75 0 0.1
-0.74 0 0.1
-0.73 0 0.1
-0.72 0 0.1
-0.71 0 0.1
-0.7 0 0.1
-0.69 0 0.1
-0.68 0 0.1
-0.67 0 0.1
-0.66 0 0.1
-0.65 0 0.1
-0.64 0 0.1
-0.63 0 0.1
-0.62 0 0.1
-0.61 0 0.1
-0.6 0 0.1
-0.59 0 0.1
-0.58 0 0.1
-0.57 0 0.1
-0.56 0 0.1
-0.55 0 0.1
-0.54 0 0.1
-0.53 0 0.1
-0.52 0 0.1
-0.51 0 0.1
-0.5 0 0.1
-0.49 0 0.1
-0.48 0 0.1
-0.47 0 0.1
-0.46 0 0.1
-0.45 0 0.1
-0.44 0 0.1
-0.43 0 0.1
-0.42 0 0.1
-0.41 0 0.1
-0.4 0 0.1
-0.39 0 0.1
-0.38 0 0.1
-0.37 0 0.1
-0.36 0 0.1
-0.35 0 0.1
-0.34 0 0.1
-0.33 0 0.1
-0.32 0 0.1
-0.31 0 0.1
-0.3 0 0.1
-0.29 0 0.1
-0.28 0 0.1
-0.27 0 0.1
-0.26 0 0.1
-0.25 0 0.1
-0.24 0 0.1
-0.23 0 0.1
-0.22 0 0.1
-0.21 0 0.1
-0.2 0 0.1
-0.19 0 0.1
-0.18 0 0.1
-0.17 0 0.1
-0.16 0 0.1
-0.15 0 0.1
-0.14 0 0.1
-0.13 0 0.1
-0.12 0 0.1
-0.11 0 0.1
-0.1 0 0.1
-0.09 0 0.1
-0.08 0 0.1
-0.07 0 0.1
-0.06 0 0.1
-0.05 0 0.1
-0.04 0 0.1
-0.03 0 0.1
-0.02 0 0.1
-0.01 0 0.1
0.00921362 0.00379763 0.1
0.0184561 0.00752451 0.1
0.0277268 0.0111804 0.1
0.0370253 0.0147652 0.1
0.0463511 0.0182786 0.1
0.0557034 0.0217203 0.1
0.0650819 0.0250903 0.1
0.074486 0.0283883 0.1
0.083915 0.0316141 0.1
0.0933685 0.0347675 0.1
0.102846 0.0378484 0.1
0.112347 0.0408565 0.1
0.12187 0.0437917 0.1
0.131416 0.0466538 0.1
0.140983 0.0494427 0.1
0.150572 0.0521581 0.1
0.160181 0.0547999 0.1
0.16981 0.0573681 0.1
0.179458 0.0598623 0.1
0.189125 0.0622825 0.1
0.198811 0.0646285 0.1
0.208514 0.0669001 0.1
0.218234 0.0690974 0.1
0.227971 0.07122 0.1
0.237724 0.073268 0.1
0.247493 0.0752411 0.1
0.257276 0.0771393 0.1
0.267073 0.0789625 0.1
0.276884 0.0807105 0.1
0.286708 0.0823832 0.1
0.296545 0.0839806 0.1
0.306394 0.0855025 0.1
0.316254 0.0869488 0.1
0.326125 0.0883196 0.1
0.336006 0.0896146 0.1
0.345896 0.0908339 0.1
0.355796 0.0919773 0.1
0.365704 0.0930447 0.1
0.375621 0.0940362 0.1
0.385544 0.0949517 0.1
0.395474 0.095791 0.1
0.40541 0.0965542 0.1
0.415352 0.0972412 0.1
0.425299 0.097852 0.1
0.43525 0.0983865 0.1
0.445205 0.0988447 0.1
0.455164 0.0992266 0.1
0.465125 0.0995321 0.1
0.475088 0.0997613 0.1
0.485052 0.0999141 0.1
0.495017 0.0999904 0.1
0.504983 0.0999904 0.1
0.514948 0.0999141 0.1
0.524912 0.0997613 0.1
0.534875 0.0995321 0.1
0.544836 0.0992266 0.1
0.554795 0.0988447 0.1
0.56475 0.0983865 0.1
0.574701 0.097852 0.1
0.584648 0.0972412 0.1
0.59459 0.0965542 0.1
0.604526 0.095791 0.1
0.614456 0.0949517 0.1
0.624379 0.0940362 0.1
0.634296 0.0930447 0.1
0.644204 0.0919773 0.1
0.654104 0.0908339 0.1
0.663994 0.0896146 0.1
0.673875 0.0883196 0.1
0.683746 0.0869488 0.1
0.693606 0.0855025 0.1
0.703455 0.0839806 0.1
0.713292 0.0823832 0.1
0.723116 0.0807105 0.1
0.732927 0.0789625 0.1
0.742724 0.0771393 0.1
0.752508 0.0752411 0.1
0.762276 0.073268 0.1
0.772029 0.07122 0.1
0.781766 0.0690974 0.1
0.791486 0.0669001 0.1
0.801189 0.0646285 0.1
0.810875 0.0622825 0.1
0.820542 0.0598623 0.1
0.83019 0.0573681 0.1
0.839819 0.0547999 0.1
0.849428 0.0521581 0.1
0.859017 0.0494427 0.1
0.868584 0.0466538 0.1
0.87813 0.0437917 0.1
0.887653 0.0408565 0.1
0.897154 0.0378484 0.1
0.906631 0.0347675 0.1
0.916085 0.0316141 0.1
0.925514 0.0283883 0.1
0.934918 0.0250903 0.1
0.944297 0.0217203 0.1
0.953649 0.0182786 0.1
0.962975 0.0147652 0.1
0.972273 0.0111804 0.1
0.981544 0.00752451 0.1
0.990786 0.00379763 0.1
1.01 0 0.1
1.02 0 0.1
1.03 0 0.1
1.04 0 0.1
1.05 0 0.1
1.06 0 0.1
1.07 0 0.1
1.08 0 0.1
1.09 0 0.1
1.1 0 0.1
1.11 0 0.1
1.12 0 0.1
1.13 0 0.1
1.14 0 0.1
1.15 0 0.1
1.16 0 0.1
1.17 0 0.1
1.18 0 0.1
1.19 0 0.1
1.2 0 0.1
1.21 0 0.1
1.22 0 0.1
1.23 0 0.1
1.24 0 0.1
1.25 0 0.1
1.26 0 0.1
1.27 0 0.1
1.28 0 0.1
1.29 0 0.1
1.3 0 0.1
1.31 0 0.1
1.32 0 0.1
1.33 0 0.1
1.34 0 0.1
1.35 0 0.1
1.36 0 0.1
1.37 0 0.1
1.38 0 0.1
1.39 0 0.1
1.4 0 0.1
1.41 0 0.1
1.42 0 0.1
1.43 0 0.1
1.44 0 0.1
1.45 0 0.1
1.46 0 0.1
1.47 0 0.1
1.48 0 0.1
1.49 0 0.1
1.5 0 0.1
1.51 0 0.1
1.52 0 0.1
1.53 0 0.1
1.54 0 0.1
1.55 0 0.1
1.56 0 0.1
1.57 0 0.1
1.58 0 0.1
1.59 0 0.1
1.6 0 0.1
1.61 0 0.1
1.62 0 0.1
1.63 0 0.1
1.64 0 0.1
1.65 0 0.1
1.66 0 0.1
1.67 0 0.1
1.68 0 0.1
1.69 0 0.1
1.7 0 0.1
1.71 0 0.1
1.72 0 0.1
1.73 0 0.1
1.74 0 0.1
1.75 0 0.1
1.76 0 0.1
1.77 0 0.1
1.78 0 0.1
1.79 0 0.1
1.8 0 0.1
1.81 0 0.1
1.82 0 0.1
1.83 0 0.1
1.84 0 0.1
1.85 0 0.1
1.86 0 0.1
1.87 0 0.1
1.88 0 0.1
[...]
CELL_DATA 7425
SCALARS rho float
LOOKUP_TABLE default
0.6341
0.807369
0.830793
0.837626
0.802857
0.830229
0.830722
0.826571
0.826309
0.754519
0.869775
0.813561
0.826459
0.837484
0.807845
0.828793
0.801362
0.826284
0.805105
0.77726
0.841062
0.82557
0.741863
0.838195
0.805789
0.738372
0.840874
0.854056
0.80302
0.81175
0.82937
0.730526
0.805313
0.690019
0.63689
0.838165
0.805264
0.826568
0.814679
0.837752
0.746299
0.737071
0.801621
0.688793
0.649392
0.760981
0.811674
0.826424
0.711733
0.724285
0.752537
0.807576
0.816415
0.801947
0.708924
0.668208
0.833688
0.802149
0.754443
0.723449
0.746573
0.810677
0.826282
0.802127
0.801707
0.829144
0.630721
0.786518
0.671035
0.811712
0.807864
0.804037
0.888307
0.824675
0.815086
0.826349
0.80743
0.803062
0.826262
0.763805
0.827869
0.810244
0.823106
0.79458
0.844138
0.804516
0.618772
0.839422
0.632881
0.856393
0.691012
0.746356
0.850983
0.804579
0.828967
0.779119
0.840231
0.794284
0.836066
0.806656
0.820162
0.74498
0.804998
0.837994
0.639
0.814605
0.834648
0.735145
0.827144
0.802343
0.828338
0.790873
0.795452
0.815834
0.801403
0.79294
0.840909
0.803851
0.695473
0.696689
0.807492
0.790037
0.826323
0.796562
0.866107
0.844098
0.810628
0.815151
0.690808
0.626759
0.826676
0.692852
0.632957
0.873549
0.710501
0.802995
0.815222
0.744686
0.626581
0.749392
0.752001
0.813934
0.822681
0.705599
0.806608
0.7859
0.609825
0.802895
0.787816
0.83795
0.826871
0.690663
0.806898
0.750892
0.706521
0.805238
0.813954
0.84029
0.809165
0.707903
0.804592
0.689729
0.804576
0.839704
0.831536
0.803346
0.826298
0.796976
0.80981
0.804232
0.830926
0.809012
0.805142
0.80227
0.802025
0.762007
0.807871
0.779451
0.661244
0.684011
0.802847
0.805589
0.884947
0.841122
0.683549
0.833699
0.801509
0.832242
0.802976
0.826216
0.82628
0.804661
0.810526
0.706341
0.827142
0.830343
0.779836
0.80954
0.866248
0.810789
0.815905
0.824502
0.650404
0.844139
0.617348
0.63836
0.6375
0.681909
0.832572
0.88456
0.810433
0.801573
0.849102
0.826424
0.828298
0.831806
0.827271
0.66581
0.67829
0.826389
0.635952
0.658922
0.70186
0.823704
0.826402
0.82635
0.842585
0.826643
0.869846
0.707784
0.83925
0.748704
0.808907
0.80581
0.803423
0.736828
0.745578
0.650494
0.695862
0.870397
0.881341
0.818657
0.810646
0.811416
0.815806
0.745582
0.832556
0.803988
0.836017
0.799589
0.823012
0.726188
0.826485
0.834404
0.763035
0.61078
0.802262
0.742824
0.847168
0.826575
0.731996
0.827513
0.827038
0.857032
0.822204
0.808813
0.804594
0.836089
0.867791
0.810108
0.649487
0.856733
0.817469
0.808143
0.837666
0.845579
0.825949
0.832154
0.799153
0.827199
0.872301
0.857124
0.83177
0.845952
0.804696
0.828801
0.804071
0.765752
0.736808
0.626196
0.694229
0.81458
0.826254
0.827875
0.860184
0.787648
0.674212
0.83735
0.63865
0.787107
0.804391
0.675071
0.661703
0.66692
0.827288
0.826273
0.826421
0.825315
0.837021
0.780831
0.814893
0.804968
0.826651
0.849504
0.873091
0.842943
0.805176
0.688703
0.807835
0.842609
0.715803
0.801585
0.803292
0.871163
0.828756
0.630845
0.826201
0.763578
0.857769
0.755373
0.822924
0.911173
0.803481
0.801424
0.688682
0.666339
0.710952
0.796355
0.836796
0.827086
0.826375
0.88849
0.862927
0.80298
0.809988
0.829526
0.761915
0.807217
0.884924
0.803053
0.809619
0.804296
0.803566
0.825896
0.827669
0.828148
0.681233
0.834373
0.70382
0.813428
0.683838
0.81471
0.803376
0.84415
0.758143
0.820242
0.820613
0.828629
0.802062
0.803419
0.815503
0.738135
0.828026
0.826292
0.825861
0.802688
0.747039
0.60714
0.809338
0.824241
0.804449
0.826555
0.800693
0.661461
0.850128
0.826171
0.805717
0.797892
0.826278
0.808374
0.806548
0.828068
0.810462
0.833297
0.779834
0.82275
0.810784
0.611951
0.80749
0.667929
0.84662
0.667151
0.826747
0.883559
0.674831
0.822224
0.766209
0.807137
0.878942
0.640449
0.833787
0.833113
0.805398
0.836157
0.815143
0.834152
0.840487
0.83525
0.761974
0.837723
0.767256
0.814504
0.79907
0.805661
0.774437
0.80825
0.803328
0.826008
0.774899
0.808122
0.644779
0.652144
0.730155
0.825814
0.852473
0.87154
0.839407
0.801555
0.826294
0.808503
0.829237
0.70523
0.804067
0.757788
0.833066
0.826672
0.810507
0.709753
0.748273
0.620456
0.640001
0.804692
0.644756
0.805853
0.771661
0.780898
0.731661
0.778078
0.783751
0.822281
0.827102
0.830786
0.82477
0.743733
0.683861
0.847817
0.819055
0.790589
0.815057
0.805083
0.845787
0.751413
0.862761
0.770182
0.757784
0.781944
0.823616
0.626119
0.801698
0.850338
0.817712
0.826417
0.822403
0.8026
0.796157
0.844046
0.804339
0.851565
0.734688
0.707299
0.802262
0.807169
0.832851
0.736496
0.856076
0.80445
0.827838
0.801373
0.787251
0.813298
0.632479
0.70226
0.662242
0.825449
0.814246
0.836573
0.764232
0.813921
0.827013
0.831472
0.802094
0.758822
0.81004
0.819593
0.804384
0.741582
0.826322
0.829994
0.843943
0.824046
0.835807
0.868608
0.864038
0.766053
0.64034
0.846005
0.809692
0.851026
0.826633
0.827206
0.826316
0.826424
0.698673
0.810343
0.820884
0.826532
0.803473
0.820802
0.809168
0.866022
0.80164
0.826462
0.826936
0.878017
0.635124
0.826242
0.847564
0.888245
0.612815
0.828178
0.834321
0.800481
0.818742
0.80689
0.873978
0.822798
0.841131
0.818045
0.654151
0.803867
0.806227
0.731866
0.860105
0.765654
0.806512
0.826422
0.825863
0.86512
0.799681
0.842345
0.844126
0.799376
0.829404
0.847244
0.803154
0.815483
0.811775
0.807799
0.826286
0.803619
0.853341
0.775522
0.813908
0.805106
0.825425
0.747156
0.826488
0.829785
0.767406
0.826315
0.827005
0.832536
0.835545
0.804126
0.803034
0.857637
0.773433
0.830523
0.852471
0.807166
0.62881
0.826209
0.838402
0.859364
0.824653
0.803986
0.813208
0.861925
0.785377
0.804854
0.804424
0.826499
0.756969
0.806014
0.834109
0.813384
0.799759
0.807197
0.851759
0.809458
0.852753
0.80331
0.834853
0.825437
0.806243
0.849596
0.826172
0.717909
0.830144
0.810077
0.825509
0.909721
0.802967
0.826892
0.802247
0.802751
0.828034
0.802893
0.805185
0.788768
0.753431
0.818909
0.826513
0.773602
0.805223
0.833696
0.816424
0.833116
0.809924
0.836194
0.880832
0.840499
0.669754
0.72766
0.849548
0.828906
0.852329
0.826819
0.857589
0.812189
0.822631
0.802209
0.84722
0.867906
0.860454
0.754845
0.826571
0.832831
0.749367
0.822315
0.782078
0.802119
0.754806
0.827923
0.840701
0.82704
0.867502
0.826515
0.826277
0.822589
0.826759
0.844455
0.815552
0.801274
0.813557
0.76032
0.824721
0.779625
0.841957
0.817865
0.666699
0.785732
0.815917
0.801919
0.831035
0.806659
0.826794
0.828918
0.808132
0.830576
0.806439
0.810803
0.667318
0.855252
0.835564
0.837014
0.819968
0.805137
0.722489
0.811892
0.911363
0.825924
0.80525
0.825594
0.789863
0.812362
0.825673
0.832282
0.818089
0.826262
0.828077
0.676799
0.79262
0.782105
0.825816
0.808942
0.805207
0.656349
0.810614
0.806621
0.735018
0.841572
0.828818
0.805322
0.812064
0.801581
0.828759
0.82439
0.826283
0.826564
0.728425
0.840879
0.804496
0.812496
0.847046
0.822573
0.828043
0.803151
0.759988
0.834139
0.801483
0.832358
0.79568
0.810783
0.832
0.748073
0.828378
0.710621
0.878123
0.726803
0.853377
0.813539
0.880615
0.799314
0.803741
0.831759
0.84064
0.842092
0.835522
0.831037
0.826569
0.813506
0.808116
0.811808
0.756738
0.831464
0.802663
0.724833
0.839779
0.68147
0.803821
0.86583
0.808189
0.737025
0.803105
0.826572
0.702863
0.790776
0.830582
0.840708
0.819429
0.685283
0.75748
0.816358
0.805679
0.826524
0.803907
0.75407
0.826361
0.827676
0.826055
0.788094
0.804617
0.806791
0.808518
0.608081
0.826397
0.837878
0.652233
0.827268
0.827973
0.826927
0.829796
0.826701
0.835066
0.802538
0.798951
0.776716
0.826921
0.833522
0.829066
0.840649
0.778127
0.82173
0.756544
0.778861
0.81363
0.832103
0.826189
0.803138
0.863478
0.826497
0.8131
0.822448
0.827849
0.827269
0.845843
0.826805
0.826179
0.815268
0.826413
0.804252
0.831966
0.805795
0.833622
0.826303
0.648492
0.826317
0.843904
0.863211
0.842116
0.643533
0.828505
0.815661
0.624662
0.712344
0.706333
0.843229
0.818706
0.814981
0.825883
0.803898
0.828469
0.814982
0.621425
0.727726
0.822136
0.809396
0.827536
0.80515
0.813567
0.824116
0.831148
0.801701
0.734322
0.861547
0.803884
0.818145
0.826183
0.77186
0.642414
0.842498
0.817761
0.747323
0.803553
0.811641
0.671775
0.831947
0.826791
0.837916
0.83015
0.831328
0.807026
0.752369
0.672131
0.610871
0.835795
0.81377
0.78813
0.826308
0.794654
0.829409
0.878934
0.776049
0.832565
0.825853
0.836164
0.888808
0.8267
0.824712
0.806715
0.817265
0.725599
0.838343
0.802285
0.815586
0.803755
0.791185
0.861741
0.832862
0.848298
0.832485
0.763206
0.767454
0.807929
0.829365
0.803943
0.807812
0.806344
0.791282
0.826825
0.775739
0.826275
0.687433
0.826378
0.806384
0.740332
0.832273
0.828733
0.755857
0.805858
0.772907
0.886579
0.802762
0.826569
0.778313
0.80404
0.826658
0.806048
0.6333
0.825287
0.810021
0.814045
0.826819
0.835764
0.772311
0.810215
0.846843
0.832099
0.818081
0.84514
0.675028
0.720945
0.826525
0.759756
0.83309
0.784377
0.826539
0.803901
0.82106
0.767085
0.798342
0.780729
0.822309
0.803842
0.660858
0.7851
0.801856
0.85437
0.826719
0.838739
0.630734
0.828822
0.791242
0.865914
0.803237
0.822166
0.804219
0.798741
0.801484
0.835761
0.843871
0.826077
0.828632
0.708112
0.788932
0.826683
0.807905
0.823378
0.806163
0.701343
0.804801
0.806734
0.815652
0.831985
0.858245
0.841582
0.8263
0.80271
0.808181
0.805121
0.787889
0.648689
0.81304
0.756906
0.691872
0.833321
0.80131
0.782767
0.803115
0.768824
0.792075
0.825218
0.827126
0.81507
0.827761
0.82794
0.829922
0.826287
0.819302
0.730546
0.721008
0.669184
0.839289
0.87576
0.824974
0.845328
0.855737
0.870002
0.76128
0.827542
0.869505
0.821639
0.826671
0.826703
0.754797
0.824449
0.811741
0.811057
0.62108
0.826394
0.773452
0.826143
0.817679
0.805136
0.705336
0.826143
0.647098
0.829261
0.805785
0.831321
0.862642
0.805066
0.799717
0.831973
0.824131
0.809091
0.77417
0.634375
0.831866
0.806111
0.834341
0.836135
0.814737
0.80986
0.843205
0.744808
0.645294
0.891158
0.812837
0.827656
0.806792
0.711235
0.801373
0.803306
0.827198
0.763659
0.673834
0.888216
0.736094
0.845764
0.824775
0.84249
0.851202
0.805979
0.806988
0.826154
0.859785
0.754393
0.876426
0.826519
0.614534
0.806871
0.75489
0.860576
0.778152
0.806579
0.806007
0.802365
0.803246
0.821601
0.826604
0.86032
0.810675
0.803529
0.802933
0.802953
0.826004
0.828578
0.803354
0.826259
0.857223
0.803696
0.796507
0.803121
0.844515
0.757012
0.82634
0.826278
0.695948
0.735123
0.809502
0.833538
0.808595
0.63034
0.861689
0.825599
0.838089
0.807742
0.804614
0.802623
0.799886
0.625838
0.808026
0.827968
0.839725
0.831666
0.826466
0.811205
0.766836
0.806352
0.784591
0.794153
0.802317
0.795922
0.757064
0.803902
0.817145
0.823083
0.840878
0.854174
0.624903
0.850611
0.826653
0.824314
0.805345
0.826193
0.824893
0.899017
0.811052
0.87272
0.809227
0.777611
0.868468
0.804905
0.80256
0.834503
0.687145
0.67278
0.804914
0.805805
0.67443
0.681172
0.802164
0.834439
0.826359
0.833405
0.752529
0.827361
0.826001
0.836512
0.827943
0.8153
0.826676
0.769616
0.808292
0.827528
0.825144
0.699334
0.620934
0.826715
0.677017
0.739442
0.614228
0.850048
0.803214
0.645673
0.638246
0.836349
0.911591
0.829584
0.679522
0.826511
0.79935
0.805062
0.792348
0.825993
0.821723
0.794831
0.831864
0.813646
0.635252
0.829319
0.782042
0.827645
0.699814
0.833049
0.802737
0.826397
0.803617
0.689229
0.851103
0.817273
0.81148
0.634964
0.828525
0.803285
0.857519
0.713779
0.828738
0.678269
0.752893
0.80454
0.808678
0.761673
0.742492
0.717239
0.643543
0.68763
0.803737
0.643635
0.833416
0.662915
0.771725
0.714368
0.690091
0.647691
0.76127
0.804047
0.715465
0.832289
0.803046
0.806155
0.775491
0.894423
0.80216
0.835006
0.805249
0.826474
0.726385
0.812172
0.753617
0.832819
0.891073
0.84253
0.765354
0.833515
0.784981
0.885033
0.806255
0.772845
0.858565
0.790749
0.802197
0.810227
0.772655
0.769609
0.714229
0.807332
0.804139
0.829172
0.842934
0.644236
0.812988
0.63464
0.692991
0.687812
0.823703
0.832032
0.821594
0.806214
0.649045
0.878083
0.803372
0.803558
0.870302
0.82623
0.78253
0.82596
0.803176
0.829413
0.803698
0.736165
0.806861
0.710469
0.801605
0.816047
0.802707
0.666986
0.822321
0.820686
0.736494
0.82278
0.625349
0.621992
0.806891
0.718154
0.743241
0.618354
0.749737
0.826323
0.70047
0.782455
0.718926
0.822618
0.695589
0.776315
0.810024
0.822878
0.695344
0.803038
0.899539
0.802058
0.828514
0.663906
0.717825
0.813639
0.82648
0.826411
0.858852
0.825725
0.807787
0.806634
0.804826
0.737066
0.720825
0.654044
0.78749
0.654947
0.727418
0.822467
0.826579
0.810801
0.802556
0.674451
0.821538
0.805889
0.630379
0.641558
0.762075
0.805716
0.818022
0.616191
0.803431
0.627676
0.754039
0.648853
0.818353
0.805569
0.640951
0.645076
0.87417
0.814084
0.779463
0.74461
0.685078
0.682252
0.706153
0.827681
0.773825
0.771083
0.65983
0.770915
0.821668
0.827358
0.826093
0.82749
0.870791
0.773052
0.830198
0.807105
0.858704
0.826651
0.803826
0.826154
0.725396
0.824677
0.823853
0.826903
0.823151
0.827521
0.804614
0.82931
0.822508
0.821983
0.828726
0.80267
0.828135
0.830271
0.6929
0.829972
0.874754
0.829587
0.797786
0.675268
0.86573
0.830151
0.835411
0.802673
0.824965
0.763182
0.860244
0.674505
0.757693
0.813273
0.827625
0.80618
0.804863
0.841746
0.810808
0.808854
0.827337
0.792916
0.847565
0.850414
0.826063
0.690686
0.693298
0.827692
0.828207
0.80276
0.857584
0.855011
0.816037
0.825377
0.791808
0.826318
0.829264
0.826392
0.830131
0.818165
0.827748
0.858848
0.827863
0.826311
0.829124
0.829239
0.791584
0.825896
0.808424
0.809045
0.808773
0.829963
0.825062
0.801209
0.75953
0.825516
0.809051
0.821375
0.809124
0.864404
0.807038
0.826177
0.826051
0.809103
0.663483
0.805857
0.826161
0.820095
0.813569
0.82626
0.826119
0.826237
0.813394
0.870563
0.636465
0.826337
0.850064
0.825941
0.804836
0.811932
0.827149
0.848563
0.803863
0.805544
0.822556
0.676784
0.826402
0.812548
0.812238
0.825558
0.826177
0.826198
0.826277
0.636393
0.816483
0.747473
0.890734
0.831791
0.738104
0.707951
0.827406
0.808883
0.823368
0.674071
0.803737
0.826276
0.675348
0.803134
0.806494
0.820721
0.816619
0.864066
0.813086
0.6436
0.803534
0.780557
0.814986
0.893839
0.814674
0.819185
0.82367
0.840576
0.826285
0.833242
0.84535
0.667064
0.81452
0.682729
0.826367
0.82631
0.713352
0.826245
0.816881
0.715361
0.826071
0.726403
0.868035
0.789881
0.826682
0.826441
0.82619
0.703693
0.826357
0.66149
0.80255
0.798276
0.833043
0.827276
0.734899
0.772414
0.839957
0.825673
0.830559
0.832798
0.82629
0.835793
0.802213
0.60915
0.761197
0.774
0.735797
0.846717
0.827674
0.838383
0.792738
0.804583
0.826363
0.826472
0.826442
0.784206
0.616138
0.804732
0.647616
0.819196
0.829532
0.802811
0.805834
0.818306
0.809746
0.796581
0.745121
0.826273
0.865775
0.824405
0.801853
0.742685
0.815125
0.79467
0.842032
0.652434
0.800013
0.818212
0.801596
0.705434
0.825988
0.822239
0.862199
0.614657
0.810304
0.804604
0.825599
0.6804
0.826243
0.80462
0.804849
0.804752
0.826259
0.826271
0.827803
0.826343
0.719136
0.806758
0.804394
0.826411
0.900405
0.82625
0.788292
0.845426
0.801783
0.80405
0.639254
0.826389
0.804812
0.830854
0.806855
0.872763
0.825563
0.858141
0.803785
0.831652
0.786461
0.620975
0.772456
0.807292
0.816379
0.817372
0.826284
0.615539
0.868144
0.862946
0.785556
0.766463
0.744422
0.817383
0.852856
0.826379
0.817959
0.826409
0.806538
0.731983
0.805599
0.801726
0.769747
0.834759
0.833745
0.868155
0.827455
0.826453
0.671611
0.812027
0.826425
0.803453
0.787137
0.821692
0.804057
0.82573
0.837159
0.802944
0.807004
0.803502
0.826162
0.847903
0.806324
0.801497
0.805642
0.772117
0.831037
0.622462
0.874271
0.805562
0.609807
0.806901
0.814376
0.824438
0.689604
0.646658
0.804717
0.808002
0.804089
0.867092
0.785783
0.825911
0.804952
0.871242
0.807017
0.806617
0.835334
0.827181
0.825229
0.832156
0.831345
0.873379
0.747093
0.859198
0.828715
0.680934
0.805791
0.805385
0.805979
0.832107
0.834078
0.807371
0.804249
0.80299
0.833455
0.806431
0.805488
0.802655
0.834945
0.805908
0.803893
0.808869
0.837873
0.804438
0.804703
0.829674
0.802016
0.827404
0.678786
0.836707
0.857274
0.808238
0.830798
0.804974
0.83879
0.846581
0.80485
0.832375
0.802722
0.81157
0.795415
0.803997
0.806398
0.80906
0.809481
0.80868
0.829833
0.826956
0.814588
0.841149
0.806174
0.803509
0.802822
0.794104
0.843071
0.804899
0.830552
0.827266
0.810634
0.808974
0.803711
0.847603
0.870078
0.802543
0.701895
0.803269
0.850768
0.8283
0.80977
0.806595
0.823779
0.852643
0.69213
0.833969
0.807339
0.855855
0.830024
0.815526
0.817242
0.812823
0.805862
0.816478
0.812052
0.631139
0.856048
0.79984
0.826603
0.862062
0.830542
0.777066
0.812416
0.826764
0.827019
0.807481
0.688501
0.814172
0.869902
0.813714
0.80283
0.791131
0.876968
0.802145
0.882511
0.817255
0.828744
0.831672
0.806616
0.807268
0.825805
0.827746
0.807871
0.826069
0.821652
0.886596
0.82507
0.81259
0.803738
0.837877
0.813998
0.84385
0.812859
0.809796
0.817205
0.82829
0.838983
0.826131
0.832971
0.836589
0.819203
0.737682
0.707982
0.826147
0.829253
0.808402
0.825896
0.654423
0.861649
0.802134
0.808957
0.826028
0.826065
0.806043
0.825378
0.803408
0.803724
0.81238
0.825204
0.776161
0.796623
0.833638
0.84791
0.838817
0.803366
0.817003
0.804851
0.816751
0.809334
0.802375
0.802375
0.803159
0.820998
0.802523
0.806937
0.844781
0.836405
0.754193
0.676259
0.812038
0.73927
0.802801
0.677458
0.806729
0.810506
0.807049
0.829599
0.8388
0.826454
0.82624
0.813503
0.807366
0.886842
0.828067
0.809497
0.78189
0.680663
0.813413
0.811282
0.779897
0.826711
0.82644
0.796784
0.804924
0.806131
0.701451
0.83912
0.805136
0.796909
0.787603
0.859871
0.813163
0.807048
0.806993
0.815999
0.814431
0.645321
0.804247
0.848398
0.826465
0.803659
0.652025
0.818913
0.826512
0.826582
0.843203
0.826432
0.806417
0.832778
0.811155
0.624193
0.811946
0.761285
0.803414
0.826336
0.736437
0.827073
0.851076
0.835478
0.690932
0.895414
0.792576
0.793017
0.802168
0.786175
0.812687
0.855004
0.812598
0.804937
0.826309
0.821307
0.790124
0.792576
0.826237
0.813126
0.838591
0.831907
0.839457
0.813721
0.805686
0.826383
0.863929
0.827227
0.823003
0.826265
0.642659
0.800599
0.8341
0.837969
0.872442
0.826209
0.823303
0.645295
0.822261
0.803489
0.825333
0.820004
0.855346
0.826228
0.8145
0.886602
0.777397
0.816277
0.826115
0.821356
0.808739
0.826596
0.68334
0.804524
0.857469
0.837267
0.815335
0.825144
0.826256
0.812784
0.724627
0.824209
0.803767
0.847553
0.829752
0.816748
0.840333
0.806104
0.823397
0.829163
0.813807
0.830528
0.76793
0.859432
0.830246
0.818839
0.826268
0.82602
0.82731
0.82858
0.82613
0.822765
0.849559
0.829921
0.803409
0.829227
0.836663
0.821058
0.818375
0.803445
0.803781
0.826353
0.83032
0.833316
0.826235
0.827963
0.803273
0.822063
0.82632
0.825979
0.804587
0.826895
0.826147
0.808013
0.82639
0.844753
0.804836
0.821652
0.826658
0.62877
0.826517
0.829545
0.826647
0.826691
0.832746
0.838315
0.827433
0.830158
0.722825
0.826374
0.803805
0.827563
0.823907
0.838819
0.832482
0.825162
0.83934
0.835427
0.823867
0.822697
0.82468
0.816514
0.826306
0.827551
0.823527
0.841775
0.825663
0.827614
0.803769
0.826484
0.826183
0.653293
0.682682
0.818043
0.832382
0.804925
0.832957
0.827785
0.845703
0.728323
0.826359
0.750233
0.827787
0.822556
0.826267
0.838596
0.826312
0.809779
0.826432
0.838992
0.844654
0.825755
0.738136
0.82359
0.827777
0.802466
0.803851
0.827341
0.862987
0.825899
0.826277
0.85735
0.837877
0.850881
0.66751
0.838979
0.826419
0.823022
0.828969
0.855692
0.829265
0.73641
0.802394
0.835536
0.803357
0.802432
0.808734
0.763155
0.826274
0.826531
0.751393
0.826482
0.831236
0.826094
0.826219
0.802116
0.829707
0.82647
0.828573
0.811888
0.819835
0.826602
0.687549
0.830356
0.826317
0.826524
0.6852
0.72085
0.636041
0.82726
0.664039
0.858922
0.74447
0.846596
0.82549
0.755407
0.830632
0.827513
0.758282
0.811204
0.829753
0.799265
0.828071
0.827744
0.827675
0.826439
0.820354
0.805354
0.753525
0.841181
0.831075
0.82819
0.801541
0.819303
0.806512
0.827857
0.826081
0.85936
0.829164
0.654148
0.825021
0.830104
0.830012
0.785983
0.819606
0.809598
0.822397
0.850469
0.640017
0.813891
0.80244
0.827319
0.829095
0.829124
0.825579
0.829952
0.825603
0.826396
0.804839
0.826054
0.854388
0.826073
0.79712
0.824
0.657847
0.722983
0.826362
0.828603
0.805236
0.833124
0.741277
0.803894
0.803726
0.831322
0.670399
0.829123
0.802587
0.827416
0.870084
0.792401
0.832815
0.829439
0.827861
0.826487
0.779528
0.803741
0.826196
0.906105
0.831082
0.828186
0.836029
0.822609
0.873743
0.722441
0.680141
0.856753
0.804093
0.673649