# vtk DataFile Version 1.0
unstructured grid
ascii
DATASET UNSTRUCTURED_GRID
points 7812 float
-1 0 0
-1 1 0
2 0 0
2 1 0
0 0 0
1 0 0
-1 1 0.1
-1 0 0.1
0 0 0.1
1 0 0.1
2 0 0.1
2 1 0.1
-0.99 0 0
-0.98 0 0
-0.97 0 0
-0.96 0 0
-0.95 0 0
-0.94 0 0
-0.93 0 0
-0.92 0 0
-0.91 0 0
-0.9 0 0
-0.89 0 0
-0.88 0 0
-0.87 0 0
-0.86 0 0
-0.85 0 0
-0.84 0 0
-0.83 0 0
-0.82 0 0
-0.81 0 0
-0.8 0 0
-0.79 0 0
-0.78 0 0
-0.77 0 0
-0.76 0 0
-0.75 0 0
-0.74 0 0
-0.73 0 0
-0.72 0 0
-0.71 0 0
-0.7 0 0
-0.69 0 0
-0.68 0 0
-0.67 0 0
-0.66 0 0
-0.65 0 0
-0.64 0 0
-0.63 0 0
-0.62 0 0
-0.61 0 0
-0.6 0 0
-0.59 0 0
-0.58 0 0
-0.57 0 0
-0.56 0 0
-0.55 0 0
-0.54 0 0
-0.53 0 0
-0.52 0 0
-0.51 0 0
-0.5 0 0
-0.49 0 0
-0.48 0 0
-0.47 0 0
-0.46 0 0
-0.45 0 0
-0.44 0 0
-0.43 0 0
-0.42 0 0
-0.41 0 0
-0.4 0 0
-0.39 0 0
-0.38 0 0
-0.37 0 0
-0.36 0 0
-0.35 0 0
-0.34 0 0
-0.33 0 0
-0.32 0 0
-0.31 0 0
-0.3 0 0
-0.29 0 0
-0.28 0 0
-0.27 0 0
-0.26 0 0
-0.25 0 0
-0.24 0 0
-0.23 0 0
-0.22 0 0
-0.21 0 0
-0.2 0 0
-0.19 0 0
-0.18 0 0
-0.17 0 0
-0.16 0 0
-0.15 0 0
-0.14 0 0
-0.13 0 0
-0.12 0 0
-0.11 0 0
-0.1 0 0
-0.09 0 0
-0.08 0 0
-0.07 0 0
-0.06 0 0
-0.05 0 0
-0.04 0 0
-0.03 0 0
-0.02 0 0
-0.01 0 0
1.01 0 0
1.02 0 0
1.03 0 0
1.04 0 0
1.05 0 0
1.06 0 0
1.07 0 0
1.08 0 0
1.09 0 0
1.1 0 0
1.11 0 0
1.12 0 0
1.13 0 0
1.14 0 0
1.15 0 0
1.16 0 0
1.17 0 0
1.18 0 0
1.19 0 0
1.2 0 0
1.21 0 0
1.22 0 0
1.23 0 0
1.24 0 0
1.25 0 0
1.26 0 0
1.27 0 0
1.28 0 0
1.29 0 0
1.3 0 0
1.31 0 0
1.32 0 0
1.33 0 0
1.34 0 0
1.35 0 0
1.36 0 0
1.37 0 0
1.38 0 0
1.39 0 0
1.4 0 0
1.41 0 0
1.42 0 0
1.43 0 0
1.44 0 0
1.45 0 0
1.46 0 0
1.47 0 0
1.48 0 0
1.49 0 0
1.5 0 0
1.51 0 0
1.52 0 0
1.53 0 0
1.54 0 0
1.55 0 0
1.56 0 0
1.57 0 0
1.58 0 0
1.59 0 0
1.6 0 0
1.61 0 0
1.62 0 0
1.63 0 0
1.64 0 0
1.65 0 0
1.66 0 0
1.67 0 0
1.68 0 0
1.69 0 0
1.7 0 0
1.71 0 0
1.72 0 0
1.73 0 0
1.74 0 0
1.75 0 0
1.76 0 0
1.77 0 0
1.78 0 0
1.79 0 0
1.8 0 0
1.81 0 0
1.82 0 0
1.83 0 0
1.84 0 0
1.85 0 0
1.86 0 0
1.87 0 0
1.88 0 0
1.89 0 0
1.9 0 0
1.91 0 0
1.92 0 0
1.93 0 0
1.94 0 0
1.95 0 0
1.96 0 0
1.97 0 0
1.98 0 0
1.99 0 0
2 0.010289 0
2 0.0215307 0
2 0.0338135 0
2 0.0472336 0
2 0.0618965 0
2 0.0779171 0
2 0.0954213 0
2 0.114546 0
2 0.135442 0
2 0.158274 0
2 0.183219 0
2 0.210474 0
2 0.240253 0
2 0.27279 0
2 0.308339 0
2 0.347181 0
2 0.389619 0
2 0.435987 0
2 0.486649 0
2 0.542002 0
2 0.602481 0
2 0.66856 0
2 0.740758 0
2 0.819642 0
2 0.90583 0
1.9 1 0
1.8 1 0
1.7 1 0
1.6 1 0
1.5 1 0
1.4 1 0
1.3 1 0
1.2 1 0
1.1 1 0
1 1 0
0.9 1 0
0.8 1 0
0.7 1 0
0.6 1 0
0.5 1 0
0.4 1 0
0.3 1 0
0.2 1 0
0.1 1 0
3.69793e-12 1 0
-0.1 1 0
-0.2 1 0
-0.3 1 0
-0.4 1 0
-0.5 1 0
-0.6 1 0
-0.7 1 0
-0.8 1 0
-0.9 1 0
-1 0.90583 0
-1 0.819642 0
-1 0.740758 0
-1 0.66856 0
-1 0.602481 0
-1 0.542002 0
-1 0.486649 0
-1 0.435987 0
-1 0.389619 0
-1 0.347181 0
-1 0.308339 0
-1 0.27279 0
-1 0.240253 0
-1 0.210474 0
-1 0.183219 0
-1 0.158274 0
-1 0.135442 0
-1 0.114546 0
-1 0.0954213 0
-1 0.0779171 0
-1 0.0618965 0
-1 0.0472336 0
-1 0.0338135 0
-1 0.0215307 0
-1 0.010289 0
0.00921362 0.00379763 0
0.0184561 0.00752451 0
0.0277268 0.0111804 0
0.0370253 0.0147652 0
0.0463511 0.0182786 0
0.0557034 0.0217203 0
0.0650819 0.0250903 0
0.074486 0.0283883 0
0.083915 0.0316141 0
0.0933685 0.0347675 0
0.102846 0.0378484 0
0.112347 0.0408565 0
0.12187 0.0437917 0
0.131416 0.0466538 0
0.140983 0.0494427 0
0.150572 0.0521581 0
0.160181 0.0547999 0
0.16981 0.0573681 0
0.179458 0.0598623 0
0.189125 0.0622825 0
0.198811 0.0646285 0
0.208514 0.0669001 0
0.218234 0.0690974 0
0.227971 0.07122 0
0.237724 0.073268 0
0.247493 0.0752411 0
0.257276 0.0771393 0
0.267073 0.0789625 0
0.276884 0.0807105 0
0.286708 0.0823832 0
0.296545 0.0839806 0
0.306394 0.0855025 0
0.316254 0.0869488 0
0.326125 0.0883196 0
0.336006 0.0896146 0
0.345896 0.0908339 0
0.355796 0.0919773 0
0.365704 0.0930447 0
0.375621 0.0940362 0
0.385544 0.0949517 0
0.395474 0.095791 0
0.40541 0.0965542 0
0.415352 0.0972412 0
0.425299 0.097852 0
0.43525 0.0983865 0
0.445205 0.0988447 0
0.455164 0.0992266 0
0.465125 0.0995321 0
0.475088 0.0997613 0
0.485052 0.0999141 0
0.495017 0.0999904 0
0.504983 0.0999904 0
0.514948 0.0999141 0
0.524912 0.0997613 0
0.534875 0.0995321 0
0.544836 0.0992266 0
0.554795 0.0988447 0
0.56475 0.0983865 0
0.574701 0.097852 0
0.584648 0.0972412 0
0.59459 0.0965542 0
0.604526 0.095791 0
0.614456 0.0949517 0
0.624379 0.0940362 0
0.634296 0.0930447 0
0.644204 0.0919773 0
0.654104 0.0908339 0
0.663994 0.0896146 0
0.673875 0.0883196 0
0.683746 0.0869488 0
0.693606 0.0855025 0
0.703455 0.0839806 0
0.713292 0.0823832 0
0.723116 0.0807105 0
0.732927 0.0789625 0
0.742724 0.0771393 0
0.752508 0.0752411 0
0.762276 0.073268 0
0.772029 0.07122 0
0.781766 0.0690974 0
0.791486 0.0669001 0
0.801189 0.0646285 0
0.810875 0.0622825 0
0.820542 0.0598623 0
0.83019 0.0573681 0
0.839819 0.0547999 0
0.849428 0.0521581 0
0.859017 0.0494427 0
0.868584 0.0466538 0
0.87813 0.0437917 0
0.887653 0.0408565 0
0.897154 0.0378484 0
0.906631 0.0347675 0
0.916085 0.0316141 0
0.925514 0.0283883 0
0.934918 0.0250903 0
0.944297 0.0217203 0
0.953649 0.0182786 0
0.962975 0.0147652 0
0.972273 0.0111804 0
0.981544 0.00752451 0
0.990786 0.00379763 0
-1 0.90583 0.1
-1 0.819642 0.1
-1 0.740758 0.1
-1 0.66856 0.1
-1 0.602481 0.1
-1 0.542002 0.1
-1 0.486649 0.1
-1 0.435987 0.1
-1 0.389619 0.1
-1 0.347181 0.1
-1 0.308339 0.1
-1 0.27279 0.1
-1 0.240253 0.1
-1 0.210474 0.1
-1 0.183219 0.1
-1 0.158274 0.1
-1 0.135442 0.1
-1 0.114546 0.1
-1 0.0954213 0.1
-1 0.0779171 0.1
-1 0.0618965 0.1
-1 0.0472336 0.1
-1 0.0338135 0.1
-1 0.0215307 0.1
-1 0.010289 0.1
-0.99 0 0.1
-0.98 0 0.1
-0.97 0 0.1
-0.96 0 0.1
-0.95 0 0.1
-0.94 0 0.1
-0.93 0 0.1
-0.92 0 0.1
-0.91 0 0.1
-0.9 0 0.1
-0.89 0 0.1
-0.88 0 0.1
-0.87 0 0.1
-0.86 0 0.1
-0.85 0 0.1
-0.84 0 0.1
-0.83 0 0.1
-0.82 0 0.1
-0.81 0 0.1
-0.8 0 0.1
-0.79 0 0.1
-0.78 0 0.1
-0.77 0 0.1
-0.76 0 0.1
-0.75 0 0.1
-0.74 0 0.1
-0.73 0 0.1
-0.72 0 0.1
-0.71 0 0.1
-0.7 0 0.1
-0.69 0 0.1
-0.68 0 0.1
-0.67 0 0.1
-0.66 0 0.1
-0.65 0 0.1
-0.64 0 0.1
-0.63 0 0.1
-0.62 0 0.1
-0.61 0 0.1
-0.6 0 0.1
-0.59 0 0.1
-0.58 0 0.1
-0.57 0 0.1
-0.56 0 0.1
-0.55 0 0.1
-0.54 0 0.1
-0.53 0 0.1
-0.52 0 0.1
-0.51 0 0.1
-0.5 0 0.1
-0.49 0 0.1
-0.48 0 0.1
-0.47 0 0.1
-0.46 0 0.1
-0.45 0 0.1
-0.44 0 0.1
-0.43 0 0.1
-0.42 0 0.1
-0.41 0 0.1
-0.4 0 0.1
-0.39 0 0.1
-0.38 0 0.1
-0.37 0 0.1
-0.36 0 0.1
-0.35 0 0.1
-0.34 0 0.1
-0.33 0 0.1
-0.32 0 0.1
-0.31 0 0.1
-0.3 0 0.1
-0.29 0 0.1
-0.28 0 0.1
-0.27 0 0.1
-0.26 0 0.1
-0.25 0 0.1
-0.24 0 0.1
-0.23 0 0.1
-0.22 0 0.1
-0.21 0 0.1
-0.2 0 0.1
-0.19 0 0.1
-0.18 0 0.1
-0.17 0 0.1
-0.16 0 0.1
-0.15 0 0.1
-0.14 0 0.1
-0.13 0 0.1
-0.12 0 0.1
-0.11 0 0.1
-0.1 0 0.1
-0.09 0 0.1
-0.08 0 0.1
-0.07 0 0.1
-0.06 0 0.1
-0.05 0 0.1
-0.04 0 0.1
-0.03 0 0.1
-0.02 0 0.1
-0.01 0 0.1
0.00921362 0.00379763 0.1
0.0184561 0.00752451 0.1
0.0277268 0.0111804 0.1
0.0370253 0.0147652 0.1
0.0463511 0.0182786 0.1
0.0557034 0.0217203 0.1
0.0650819 0.0250903 0.1
0.074486 0.0283883 0.1
0.083915 0.0316141 0.1
0.0933685 0.0347675 0.1
0.102846 0.0378484 0.1
0.112347 0.0408565 0.1
0.12187 0.0437917 0.1
0.131416 0.0466538 0.1
0.140983 0.0494427 0.1
0.150572 0.0521581 0.1
0.160181 0.0547999 0.1
0.16981 0.0573681 0.1
0.179458 0.0598623 0.1
0.189125 0.0622825 0.1
0.198811 0.0646285 0.1
0.208514 0.0669001 0.1
0.218234 0.0690974 0.1
0.227971 0.07122 0.1
0.237724 0.073268 0.1
0.247493 0.0752411 0.1
0.257276 0.0771393 0.1
0.267073 0.0789625 0.1
0.276884 0.0807105 0.1
0.286708 0.0823832 0.1
0.296545 0.0839806 0.1
0.306394 0.0855025 0.1
0.316254 0.0869488 0.1
0.326125 0.0883196 0.1
0.336006 0.0896146 0.1
0.345896 0.0908339 0.1
0.355796 0.0919773 0.1
0.365704 0.0930447 0.1
0.375621 0.0940362 0.1
0.385544 0.0949517 0.1
0.395474 0.095791 0.1
0.40541 0.0965542 0.1
0.415352 0.0972412 0.1
0.425299 0.097852 0.1
0.43525 0.0983865 0.1
0.445205 0.0988447 0.1
0.455164 0.0992266 0.1
0.465125 0.0995321 0.1
0.475088 0.0997613 0.1
0.485052 0.0999141 0.1
0.495017 0.0999904 0.1
0.504983 0.0999904 0.1
0.514948 0.0999141 0.1
0.524912 0.0997613 0.1
0.534875 0.0995321 0.1
0.544836 0.0992266 0.1
0.554795 0.0988447 0.1
0.56475 0.0983865 0.1
0.574701 0.097852 0.1
0.584648 0.0972412 0.1
0.59459 0.0965542 0.1
0.604526 0.095791 0.1
0.614456 0.0949517 0.1
0.624379 0.0940362 0.1
0.634296 0.0930447 0.1
0.644204 0.0919773 0.1
0.654104 0.0908339 0.1
0.663994 0.0896146 0.1
0.673875 0.0883196 0.1
0.683746 0.0869488 0.1
0.693606 0.0855025 0.1
0.703455 0.0839806 0.1
0.713292 0.0823832 0.1
0.723116 0.0807105 0.1
0.732927 0.0789625 0.1
0.742724 0.0771393 0.1
0.752508 0.0752411 0.1
0.762276 0.073268 0.1
0.772029 0.07122 0.1
0.781766 0.0690974 0.1
0.791486 0.0669001 0.1
0.801189 0.0646285 0.1
0.810875 0.0622825 0.1
0.820542 0.0598623 0.1
0.83019 0.0573681 0.1
0.839819 0.0547999 0.1
0.849428 0.0521581 0.1
0.859017 0.0494427 0.1
0.868584 0.0466538 0.1
0.87813 0.0437917 0.1
0.887653 0.0408565 0.1
0.897154 0.0378484 0.1
0.906631 0.0347675 0.1
0.916085 0.0316141 0.1
0.925514 0.0283883 0.1
0.934918 0.0250903 0.1
0.944297 0.0217203 0.1
0.953649 0.0182786 0.1
0.962975 0.0147652 0.1
0.972273 0.0111804 0.1
0.981544 0.00752451 0.1
0.990786 0.00379763 0.1
1.01 0 0.1
1.02 0 0.1
1.03 0 0.1
1.04 0 0.1
1.05 0 0.1
1.06 0 0.1
1.07 0 0.1
1.08 0 0.1
1.09 0 0.1
1.1 0 0.1
1.11 0 0.1
1.12 0 0.1
1.13 0 0.1
1.14 0 0.1
1.15 0 0.1
1.16 0 0.1
1.17 0 0.1
1.18 0 0.1
1.19 0 0.1
1.2 0 0.1
1.21 0 0.1
1.22 0 0.1
1.23 0 0.1
1.24 0 0.1
1.25 0 0.1
1.26 0 0.1
1.27 0 0.1
1.28 0 0.1
1.29 0 0.1
1.3 0 0.1
1.31 0 0.1
1.32 0 0.1
1.33 0 0.1
1.34 0 0.1
1.35 0 0.1
1.36 0 0.1
1.37 0 0.1
1.38 0 0.1
1.39 0 0.1
1.4 0 0.1
1.41 0 0.1
1.42 0 0.1
1.43 0 0.1
1.44 0 0.1
1.45 0 0.1
1.46 0 0.1
1.47 0 0.1
1.48 0 0.1
1.49 0 0.1
1.5 0 0.1
1.51 0 0.1
1.52 0 0.1
1.53 0 0.1
1.54 0 0.1
1.55 0 0.1
1.56 0 0.1
1.57 0 0.1
1.58 0 0.1
1.59 0 0.1
1.6 0 0.1
1.61 0 0.1
1.62 0 0.1
1.63 0 0.1
1.64 0 0.1
1.65 0 0.1
1.66 0 0.1
1.67 0 0.1
1.68 0 0.1
1.69 0 0.1
1.7 0 0.1
1.71 0 0.1
1.72 0 0.1
1.73 0 0.1
1.74 0 0.1
1.75 0 0.1
1.76 0 0.1
1.77 0 0.1
1.78 0 0.1
1.79 0 0.1
1.8 0 0.1
1.81 0 0.1
1.82 0 0.1
1.83 0 0.1
1.84 0 0.1
1.85 0 0.1
1.86 0 0.1
1.87 0 0.1
1.88 0 0.1
[...]
CELL_DATA 7425
SCALARS rho float
LOOKUP_TABLE default
0.587073
0.805028
0.819502
0.827477
0.799379
0.819102
0.820873
0.814069
0.812912
0.738588
0.863468
0.810016
0.813831
0.827334
0.803673
0.817095
0.798714
0.813196
0.803462
0.767222
0.831234
0.822031
0.724737
0.828006
0.803868
0.702918
0.831167
0.848207
0.800155
0.807913
0.81933
0.725525
0.803608
0.652016
0.51909
0.827972
0.8035
0.814046
0.811126
0.827969
0.715895
0.703052
0.789941
0.702323
0.586359
0.748177
0.799262
0.813764
0.661199
0.719302
0.746304
0.805144
0.812341
0.799037
0.709881
0.623412
0.822866
0.800063
0.738458
0.700854
0.70934
0.807648
0.813166
0.799344
0.798764
0.817554
0.584268
0.77324
0.704822
0.807829
0.804144
0.803199
0.883386
0.821103
0.810826
0.812972
0.80504
0.80043
0.813173
0.757735
0.81592
0.807228
0.810221
0.788639
0.835874
0.801055
0.574354
0.829919
0.54237
0.84845
0.70696
0.729694
0.845171
0.803171
0.817343
0.758145
0.836008
0.787997
0.825582
0.802434
0.808039
0.738658
0.80328
0.8282
0.597149
0.811053
0.824329
0.707382
0.814934
0.799125
0.816653
0.784512
0.789761
0.812419
0.789672
0.786293
0.831216
0.803101
0.700214
0.629664
0.805039
0.777225
0.812876
0.790384
0.85891
0.838784
0.807684
0.804233
0.66113
0.5039
0.814413
0.65497
0.514974
0.867611
0.661516
0.799473
0.811087
0.723491
0.581911
0.724711
0.723172
0.809569
0.809575
0.707382
0.803113
0.779582
0.565381
0.788457
0.782535
0.827724
0.816724
0.704178
0.802864
0.744297
0.705286
0.803269
0.810417
0.830368
0.79752
0.651919
0.802494
0.7036
0.80106
0.829701
0.820407
0.802368
0.812995
0.784773
0.806265
0.800607
0.819656
0.804433
0.791125
0.799088
0.799848
0.740031
0.803654
0.758651
0.593938
0.706845
0.799639
0.79266
0.879778
0.831806
0.613355
0.822878
0.798594
0.827273
0.799833
0.813339
0.812538
0.803187
0.806931
0.704667
0.81495
0.819205
0.770064
0.797096
0.861043
0.807753
0.8118
0.811098
0.612798
0.838835
0.57293
0.531625
0.595406
0.600316
0.828102
0.879312
0.807516
0.798642
0.841351
0.812899
0.816626
0.820716
0.815142
0.637958
0.54877
0.813661
0.545408
0.592398
0.703516
0.811639
0.814002
0.812972
0.833095
0.812839
0.864122
0.71007
0.835184
0.712499
0.805157
0.803915
0.801947
0.71385
0.720338
0.619456
0.705689
0.863592
0.875298
0.80618
0.807685
0.798815
0.811494
0.715707
0.821557
0.800146
0.825648
0.794606
0.809783
0.721429
0.81274
0.823688
0.739684
0.528391
0.799824
0.736436
0.843262
0.814282
0.726633
0.815519
0.814779
0.849922
0.809448
0.803821
0.803248
0.825606
0.860732
0.805391
0.619215
0.848855
0.811938
0.805593
0.827497
0.837303
0.812923
0.821384
0.793482
0.815011
0.866523
0.849917
0.827288
0.836699
0.802656
0.817104
0.803188
0.759682
0.701146
0.580806
0.701036
0.802294
0.812822
0.815927
0.854631
0.779628
0.645699
0.827035
0.520664
0.77424
0.800935
0.646358
0.495033
0.639055
0.815137
0.813168
0.812898
0.81266
0.82667
0.774406
0.811465
0.802659
0.812836
0.840674
0.86702
0.833517
0.802716
0.706356
0.79585
0.834252
0.691526
0.798703
0.802037
0.864759
0.817044
0.592981
0.813327
0.740406
0.852224
0.731923
0.810044
0.907644
0.799824
0.795594
0.658903
0.63552
0.711816
0.780529
0.826495
0.814873
0.813627
0.882323
0.858089
0.799493
0.799124
0.826011
0.739145
0.802509
0.879365
0.801374
0.804651
0.800657
0.802561
0.812902
0.815662
0.816314
0.636109
0.829938
0.645396
0.808428
0.639225
0.802572
0.802227
0.840226
0.728592
0.816332
0.808515
0.816924
0.799463
0.802489
0.811227
0.696606
0.824451
0.812991
0.812864
0.800673
0.736801
0.559871
0.806404
0.810955
0.803184
0.812824
0.794688
0.502866
0.845965
0.81325
0.803842
0.785684
0.813195
0.804639
0.802997
0.81618
0.807501
0.82246
0.768564
0.812618
0.807759
0.562595
0.803074
0.640066
0.838728
0.636181
0.814639
0.877878
0.593041
0.818052
0.748901
0.804405
0.873322
0.533578
0.823072
0.822209
0.80349
0.825691
0.811031
0.823409
0.830594
0.824789
0.739617
0.827475
0.76166
0.810176
0.794223
0.793586
0.758542
0.805589
0.802083
0.814413
0.752153
0.804675
0.604367
0.614159
0.688906
0.812746
0.844163
0.864811
0.829837
0.798539
0.812574
0.804856
0.818473
0.680454
0.800951
0.742894
0.82402
0.814741
0.805344
0.711913
0.727175
0.53357
0.605554
0.801254
0.61133
0.792537
0.765342
0.770004
0.727125
0.762411
0.767479
0.809374
0.814871
0.819498
0.8114
0.710391
0.602042
0.838995
0.806878
0.783121
0.809784
0.802542
0.836519
0.71804
0.855255
0.763668
0.728227
0.764459
0.811452
0.544904
0.798786
0.84158
0.813259
0.813722
0.809654
0.799123
0.780244
0.835668
0.803103
0.842938
0.721046
0.707532
0.800311
0.795111
0.821971
0.70865
0.847929
0.800379
0.815996
0.798689
0.779148
0.808215
0.594557
0.677382
0.632368
0.812872
0.80378
0.82631
0.74921
0.810586
0.814739
0.820343
0.798935
0.729242
0.796829
0.814246
0.803194
0.703054
0.813529
0.818859
0.839989
0.810714
0.825291
0.862271
0.857248
0.743868
0.603355
0.838002
0.805772
0.843355
0.814166
0.822877
0.813459
0.813741
0.633398
0.80514
0.80926
0.812755
0.791866
0.810556
0.804724
0.860449
0.798622
0.812669
0.814655
0.871899
0.597576
0.813397
0.842368
0.883302
0.530376
0.816349
0.829909
0.796129
0.814736
0.794915
0.867575
0.812161
0.831309
0.812665
0.619301
0.802386
0.804141
0.69074
0.853116
0.759769
0.801795
0.813917
0.81265
0.859636
0.795339
0.83358
0.834683
0.784245
0.825147
0.842301
0.799703
0.810448
0.806915
0.805308
0.814795
0.802628
0.845193
0.769225
0.809771
0.803153
0.815179
0.723085
0.81283
0.818303
0.752563
0.813524
0.816312
0.827521
0.825073
0.800685
0.800633
0.850476
0.767937
0.825087
0.844175
0.80455
0.505529
0.812836
0.828238
0.852364
0.812592
0.803147
0.808516
0.855023
0.780073
0.802579
0.801205
0.812872
0.727042
0.802696
0.829973
0.807972
0.794959
0.793468
0.843167
0.8066
0.845294
0.802017
0.824206
0.812706
0.804212
0.841828
0.812805
0.679367
0.81873
0.807092
0.812778
0.906135
0.800785
0.815851
0.800464
0.800375
0.816152
0.800481
0.803354
0.783727
0.74733
0.806454
0.812833
0.757982
0.791361
0.822979
0.813009
0.822213
0.806294
0.825731
0.875288
0.83061
0.574672
0.708766
0.840721
0.817239
0.844128
0.814709
0.850077
0.807297
0.812368
0.799318
0.838377
0.860908
0.852765
0.731476
0.814032
0.822135
0.743986
0.817059
0.775911
0.800203
0.733027
0.816014
0.830828
0.823452
0.861776
0.814161
0.81324
0.810133
0.814591
0.835763
0.812191
0.798631
0.810224
0.737502
0.811288
0.774181
0.832807
0.812724
0.638755
0.777618
0.811107
0.79915
0.819781
0.802442
0.814624
0.817251
0.804434
0.819353
0.804158
0.805811
0.59715
0.847014
0.825091
0.826664
0.81488
0.803217
0.701803
0.806444
0.907826
0.813536
0.800997
0.81283
0.782262
0.807216
0.813233
0.821243
0.814628
0.81317
0.81619
0.702092
0.777811
0.764543
0.812603
0.805295
0.800993
0.62128
0.805676
0.802602
0.708148
0.837156
0.817152
0.802173
0.807419
0.799377
0.817203
0.813901
0.813231
0.812817
0.709645
0.831663
0.800272
0.807371
0.842767
0.81758
0.816246
0.80015
0.753644
0.823797
0.787378
0.821392
0.789398
0.805598
0.82091
0.737509
0.817362
0.650398
0.872009
0.70429
0.844978
0.800763
0.875142
0.793673
0.801661
0.820628
0.836187
0.838387
0.825434
0.819784
0.814663
0.801093
0.804173
0.808227
0.725653
0.827214
0.800077
0.719697
0.830503
0.706444
0.799968
0.860335
0.805574
0.701316
0.797832
0.814034
0.705075
0.785654
0.819341
0.831829
0.806917
0.572973
0.72855
0.812375
0.801292
0.812866
0.800643
0.737185
0.813963
0.815669
0.812433
0.775331
0.803261
0.804486
0.803537
0.560367
0.812654
0.834082
0.579697
0.815116
0.816055
0.814647
0.818316
0.814371
0.824499
0.799047
0.795112
0.771033
0.822874
0.829643
0.825083
0.834834
0.765316
0.808952
0.724326
0.772359
0.808767
0.821031
0.813231
0.800967
0.858226
0.81287
0.800295
0.809543
0.816049
0.815139
0.836598
0.814443
0.812751
0.811972
0.813766
0.800107
0.820953
0.80376
0.822789
0.813413
0.575428
0.813461
0.83443
0.85801
0.838158
0.490587
0.816762
0.804495
0.496423
0.669284
0.643046
0.834268
0.807945
0.811642
0.812745
0.803203
0.816702
0.810936
0.534461
0.686391
0.818218
0.806618
0.815567
0.803503
0.810226
0.810854
0.820197
0.799492
0.692167
0.855861
0.803149
0.814706
0.813572
0.757746
0.485522
0.83286
0.813519
0.742004
0.8027
0.806168
0.590782
0.827494
0.814735
0.827683
0.818737
0.825939
0.804724
0.719321
0.643505
0.561986
0.825278
0.808478
0.782975
0.812915
0.779758
0.817844
0.873298
0.762335
0.821568
0.813476
0.8258
0.883549
0.814392
0.811782
0.803256
0.813856
0.691653
0.828171
0.799855
0.810125
0.802198
0.784233
0.854137
0.822
0.84046
0.821482
0.757597
0.755874
0.803274
0.818059
0.803061
0.805237
0.802577
0.775611
0.814635
0.761537
0.821106
0.66201
0.813922
0.802952
0.735759
0.823227
0.817938
0.739954
0.801155
0.757178
0.880574
0.800717
0.812781
0.762644
0.800051
0.814221
0.803943
0.589785
0.820909
0.798629
0.801307
0.814475
0.825576
0.757088
0.805487
0.841573
0.826894
0.814075
0.835805
0.701053
0.700101
0.812866
0.744124
0.822177
0.771338
0.812773
0.802511
0.810367
0.751921
0.794185
0.764289
0.809842
0.803141
0.631138
0.778988
0.799229
0.84895
0.814317
0.828613
0.526329
0.82532
0.78511
0.858713
0.800934
0.817957
0.800248
0.785751
0.798713
0.825675
0.835739
0.821733
0.817073
0.707042
0.773795
0.815318
0.805373
0.809921
0.803902
0.706996
0.792797
0.803444
0.810613
0.827134
0.851189
0.831816
0.813411
0.799395
0.8042
0.802001
0.779611
0.611538
0.800286
0.731227
0.661845
0.822766
0.798812
0.777271
0.799944
0.754126
0.785279
0.811397
0.822144
0.803307
0.815961
0.817316
0.820633
0.813335
0.808442
0.712107
0.699344
0.640845
0.829241
0.869548
0.815335
0.841318
0.847811
0.863719
0.735594
0.816545
0.862992
0.810153
0.812811
0.816157
0.732733
0.812376
0.806613
0.806152
0.517098
0.812907
0.76114
0.813101
0.813772
0.803536
0.70564
0.813142
0.610538
0.824997
0.802248
0.822212
0.855139
0.803424
0.795358
0.820889
0.811525
0.805685
0.762216
0.509636
0.820853
0.803076
0.828878
0.825722
0.802057
0.807015
0.834435
0.720765
0.500198
0.886248
0.800547
0.815638
0.804314
0.710544
0.798594
0.799968
0.815012
0.73599
0.646441
0.883235
0.714099
0.836515
0.811929
0.832853
0.842632
0.792133
0.804737
0.813541
0.852758
0.738275
0.870686
0.813962
0.562706
0.802417
0.748941
0.852886
0.760244
0.804209
0.803947
0.799595
0.801574
0.808824
0.812846
0.855491
0.805945
0.802863
0.801305
0.799969
0.812179
0.816824
0.802613
0.812422
0.849179
0.803095
0.783414
0.802231
0.839536
0.724911
0.813572
0.813772
0.636628
0.713047
0.805533
0.822982
0.80351
0.511532
0.856259
0.813159
0.832944
0.805297
0.803308
0.801325
0.786202
0.587096
0.804283
0.81605
0.835963
0.820519
0.812888
0.798117
0.746875
0.801557
0.765724
0.787515
0.799294
0.790946
0.751071
0.800805
0.811411
0.810314
0.83217
0.849007
0.553117
0.841871
0.812781
0.820834
0.801968
0.822643
0.811014
0.894601
0.800203
0.867027
0.805675
0.759718
0.862103
0.80227
0.800235
0.824119
0.660333
0.645218
0.803389
0.803847
0.70527
0.654237
0.799893
0.823809
0.812969
0.822543
0.732881
0.81715
0.812781
0.82609
0.816904
0.81193
0.812801
0.754541
0.803853
0.815627
0.811268
0.676162
0.566331
0.812838
0.649937
0.72188
0.554992
0.841364
0.800084
0.526748
0.60068
0.827485
0.908058
0.818098
0.652246
0.814104
0.786396
0.801682
0.786347
0.8206
0.810057
0.788263
0.82101
0.800962
0.587558
0.817776
0.766629
0.815879
0.701043
0.822176
0.789599
0.813894
0.800006
0.662805
0.843487
0.806516
0.806568
0.493334
0.816782
0.800346
0.852096
0.711395
0.817036
0.583661
0.718785
0.801368
0.796627
0.732641
0.715467
0.716067
0.506756
0.589064
0.799944
0.517295
0.822555
0.519911
0.75715
0.671136
0.59888
0.540391
0.745389
0.803078
0.715296
0.82125
0.800911
0.80291
0.761153
0.889665
0.799004
0.824438
0.803421
0.812726
0.705906
0.807526
0.73665
0.821865
0.886023
0.833539
0.747666
0.822745
0.77045
0.879886
0.804188
0.758625
0.850656
0.77682
0.799919
0.805243
0.758191
0.744531
0.665023
0.804976
0.803019
0.817861
0.833453
0.611409
0.807865
0.53793
0.668527
0.616087
0.818463
0.820996
0.808942
0.803968
0.615602
0.872441
0.802673
0.802942
0.863493
0.812361
0.771988
0.812098
0.802361
0.817853
0.803142
0.716989
0.803334
0.655142
0.798966
0.804052
0.801533
0.639096
0.811489
0.81027
0.725619
0.817751
0.548984
0.57659
0.804137
0.696423
0.725896
0.571993
0.723535
0.813564
0.707718
0.772944
0.716749
0.81277
0.670133
0.762066
0.806425
0.810553
0.654398
0.801937
0.895143
0.796682
0.816745
0.584972
0.693743
0.800888
0.812882
0.813953
0.851633
0.812585
0.804242
0.803718
0.803332
0.713733
0.717593
0.615532
0.771423
0.532521
0.723981
0.809864
0.814354
0.806084
0.799222
0.535318
0.80901
0.80375
0.553827
0.543131
0.746551
0.803565
0.806132
0.549202
0.798187
0.569471
0.72036
0.60768
0.813502
0.802221
0.59694
0.6082
0.867874
0.810011
0.765368
0.717776
0.621497
0.655258
0.709914
0.815961
0.759735
0.765503
0.623927
0.753821
0.809256
0.815312
0.812391
0.815418
0.865524
0.754635
0.818882
0.803322
0.851253
0.812794
0.802768
0.813017
0.72264
0.812898
0.81194
0.815133
0.8111
0.815841
0.803266
0.817876
0.810334
0.809684
0.817216
0.800105
0.816543
0.818902
0.667403
0.818558
0.868393
0.818117
0.792911
0.645838
0.858554
0.818738
0.824842
0.799501
0.811146
0.757505
0.852516
0.558916
0.726535
0.809849
0.815612
0.803866
0.803355
0.832008
0.804977
0.805173
0.815208
0.780677
0.838516
0.841912
0.815164
0.664246
0.611987
0.815711
0.816568
0.788255
0.849598
0.847229
0.810795
0.813577
0.777714
0.814031
0.817781
0.814055
0.818725
0.813043
0.815769
0.851013
0.815914
0.814449
0.817501
0.817715
0.784869
0.814065
0.804007
0.804078
0.804574
0.818517
0.811418
0.788306
0.753982
0.812608
0.806267
0.80872
0.806366
0.857745
0.803309
0.813938
0.812629
0.805154
0.559532
0.803878
0.812672
0.814963
0.810299
0.812715
0.813236
0.812957
0.810164
0.864369
0.501302
0.812745
0.841626
0.812582
0.80295
0.808393
0.81494
0.839641
0.800404
0.801165
0.812573
0.706312
0.812762
0.808177
0.807302
0.812487
0.812815
0.812958
0.813293
0.511572
0.811848
0.715644
0.885826
0.821007
0.73345
0.670973
0.815303
0.803462
0.818672
0.646415
0.801637
0.813264
0.647904
0.799809
0.804081
0.815376
0.806236
0.85671
0.809837
0.606833
0.800795
0.775172
0.811199
0.889056
0.803243
0.815498
0.819279
0.832171
0.81333
0.822348
0.836302
0.634886
0.802583
0.655704
0.81368
0.81358
0.712598
0.813465
0.804768
0.713172
0.814871
0.701113
0.861046
0.784048
0.814232
0.812819
0.81336
0.667788
0.813586
0.633219
0.800163
0.792347
0.822243
0.815118
0.715929
0.766689
0.830003
0.812684
0.821261
0.821851
0.813368
0.825281
0.799458
0.551964
0.754908
0.759151
0.731472
0.837565
0.822294
0.834304
0.775973
0.802754
0.812954
0.812876
0.812879
0.774603
0.563694
0.803197
0.528296
0.808156
0.824216
0.799658
0.80375
0.812901
0.806
0.782572
0.73215
0.813317
0.859117
0.813651
0.799249
0.736939
0.809549
0.788698
0.833683
0.503595
0.795962
0.805846
0.79883
0.688849
0.812769
0.810701
0.856987
0.56896
0.80732
0.803263
0.812752
0.612331
0.813014
0.803327
0.803395
0.80302
0.813126
0.813225
0.816043
0.812964
0.717954
0.80449
0.803194
0.812912
0.896147
0.813071
0.773938
0.841097
0.79917
0.803129
0.601239
0.812806
0.803351
0.825598
0.801951
0.866195
0.814774
0.853339
0.800296
0.820575
0.777848
0.558159
0.752636
0.794191
0.803877
0.813921
0.813733
0.555372
0.861756
0.857834
0.768412
0.757647
0.7385
0.812006
0.848348
0.812844
0.813667
0.812879
0.804263
0.726766
0.803492
0.799065
0.764219
0.824204
0.822937
0.861814
0.815582
0.81289
0.523955
0.808874
0.812849
0.800672
0.773925
0.818051
0.803106
0.812805
0.826827
0.798432
0.803552
0.80119
0.815115
0.839069
0.802327
0.799123
0.801445
0.766093
0.819799
0.566951
0.868351
0.803678
0.545605
0.803121
0.803083
0.819511
0.591316
0.606052
0.801516
0.803588
0.800807
0.8607
0.779888
0.814566
0.802928
0.865642
0.804702
0.80444
0.826269
0.815882
0.820037
0.821209
0.820257
0.867451
0.729208
0.852112
0.817126
0.653594
0.802506
0.803174
0.803626
0.821051
0.823439
0.803935
0.801047
0.80001
0.822608
0.803164
0.803594
0.799619
0.824317
0.803962
0.801973
0.806063
0.827801
0.800493
0.801486
0.824204
0.799546
0.815302
0.65119
0.82632
0.8498
0.804838
0.819498
0.803218
0.828682
0.837437
0.803389
0.821404
0.8005
0.806929
0.789533
0.802138
0.803124
0.806343
0.805867
0.804469
0.818469
0.814664
0.811216
0.831344
0.802135
0.802206
0.799861
0.788986
0.833726
0.803132
0.819226
0.815125
0.807077
0.804997
0.802943
0.83885
0.864653
0.799529
0.678876
0.801154
0.842094
0.816511
0.805077
0.804452
0.819657
0.844543
0.601225
0.828694
0.794439
0.850288
0.818652
0.811971
0.813241
0.808183
0.803944
0.812742
0.80873
0.591743
0.847931
0.794566
0.814092
0.85454
0.8192
0.763134
0.808601
0.814364
0.815381
0.802949
0.661614
0.809149
0.863111
0.80253
0.800674
0.775357
0.871184
0.800402
0.877038
0.806637
0.817082
0.820536
0.802174
0.803784
0.812509
0.815797
0.803421
0.813232
0.816655
0.881321
0.82066
0.809278
0.800089
0.828348
0.81046
0.838784
0.808769
0.806926
0.812063
0.816463
0.829852
0.813567
0.822462
0.83246
0.814107
0.699556
0.690564
0.812947
0.817661
0.803759
0.813028
0.513787
0.854831
0.799722
0.80621
0.813845
0.813389
0.803944
0.812383
0.800434
0.801173
0.807981
0.814669
0.756821
0.784595
0.822865
0.842606
0.834751
0.800214
0.805012
0.803346
0.812888
0.805666
0.799479
0.799751
0.800977
0.810851
0.797786
0.802701
0.835429
0.831256
0.729723
0.662829
0.807555
0.698421
0.799448
0.571863
0.804391
0.806898
0.80306
0.81808
0.833704
0.813829
0.812757
0.810243
0.803828
0.88149
0.816179
0.804748
0.772214
0.585596
0.810219
0.806572
0.769315
0.814322
0.813778
0.791443
0.800683
0.804016
0.624069
0.830389
0.803492
0.78143
0.779267
0.852665
0.809969
0.802834
0.802553
0.810147
0.811035
0.518452
0.801753
0.839431
0.813829
0.798547
0.588595
0.814482
0.813974
0.812845
0.833664
0.813821
0.803907
0.821812
0.805531
0.575672
0.808606
0.736441
0.798483
0.813536
0.722133
0.814833
0.845914
0.831565
0.664412
0.890877
0.785553
0.777353
0.796849
0.779497
0.808574
0.849884
0.807926
0.802846
0.813449
0.80877
0.782577
0.785893
0.813785
0.808263
0.834794
0.821193
0.835628
0.80122
0.799616
0.812942
0.856565
0.816384
0.818292
0.813244
0.607249
0.795497
0.823815
0.829288
0.865857
0.812498
0.818871
0.508481
0.809649
0.800552
0.812509
0.814666
0.847533
0.812947
0.811065
0.881468
0.764483
0.812515
0.813134
0.808932
0.805191
0.814129
0.655833
0.800478
0.849476
0.833461
0.810533
0.813472
0.813264
0.809545
0.698804
0.812407
0.80012
0.838505
0.818388
0.811534
0.831259
0.792652
0.811461
0.817727
0.80874
0.819202
0.744171
0.854658
0.818877
0.813709
0.81295
0.812597
0.815625
0.817067
0.812643
0.810696
0.841015
0.818507
0.800111
0.825232
0.826877
0.815967
0.814422
0.800322
0.801481
0.812939
0.818937
0.829353
0.812689
0.816366
0.799782
0.809869
0.812726
0.812693
0.802485
0.814566
0.813225
0.803219
0.81275
0.83559
0.800003
0.809339
0.821453
0.559824
0.814113
0.818076
0.81543
0.814915
0.821883
0.828754
0.815527
0.818747
0.701372
0.812951
0.801302
0.815521
0.818924
0.83501
0.82148
0.815479
0.829296
0.82486
0.810568
0.819155
0.819454
0.804139
0.813049
0.815508
0.8194
0.83204
0.812522
0.815602
0.802706
0.812823
0.812943
0.522353
0.627505
0.814319
0.821354
0.801694
0.822388
0.81581
0.841805
0.708056
0.813641
0.730374
0.817323
0.810221
0.813054
0.82928
0.813551
0.804814
0.812808
0.830016
0.839218
0.81269
0.719134
0.819214
0.815936
0.799882
0.803021
0.815212
0.855877
0.812539
0.813266
0.849643
0.828935
0.843214
0.57321
0.829034
0.813841
0.810802
0.817307
0.850427
0.817671
0.718339
0.7995
0.831698
0.799727
0.79969
0.805364
0.747781
0.81329
0.814245
0.725347
0.814257
0.827277
0.813211
0.813932
0.79918
0.818285
0.812874
0.823469
0.808679
0.80812
0.814878
0.705299
0.818984
0.81398
0.812858
0.639772
0.718793
0.599273
0.823212
0.529308
0.853733
0.72727
0.842737
0.812419
0.7226
0.821348
0.815788
0.7425
0.807629
0.818261
0.79439
0.816429
0.815766
0.815695
0.812874
0.807791
0.803651
0.737242
0.836059
0.82008
0.816515
0.799188
0.815373
0.801953
0.815909
0.813354
0.854529
0.81768
0.496772
0.813208
0.818697
0.81857
0.778021
0.815685
0.806704
0.818517
0.845273
0.596318
0.809052
0.799261
0.815221
0.817526
0.817596
0.812342
0.818507
0.813761
0.814484
0.803061
0.814181
0.846049
0.813833
0.791983
0.811388
0.622438
0.718742
0.812952
0.816898
0.802912
0.822214
0.735432
0.803145
0.80318
0.820115
0.620731
0.8175
0.799309
0.815315
0.864571
0.78546
0.821859
0.817882
0.8227
0.813914
0.769556
0.802411
0.813459
0.902277
0.827104
0.816329
0.83215
0.8095
0.868105
0.719401
0.68627
0.852258
0.802694