# vtk DataFile Version 1.0
unstructured grid
ascii
DATASET UNSTRUCTURED_GRID
points 7812 float
-1 0 0
-1 1 0
2 0 0
2 1 0
0 0 0
1 0 0
-1 1 0.1
-1 0 0.1
0 0 0.1
1 0 0.1
2 0 0.1
2 1 0.1
-0.99 0 0
-0.98 0 0
-0.97 0 0
-0.96 0 0
-0.95 0 0
-0.94 0 0
-0.93 0 0
-0.92 0 0
-0.91 0 0
-0.9 0 0
-0.89 0 0
-0.88 0 0
-0.87 0 0
-0.86 0 0
-0.85 0 0
-0.84 0 0
-0.83 0 0
-0.82 0 0
-0.81 0 0
-0.8 0 0
-0.79 0 0
-0.78 0 0
-0.77 0 0
-0.76 0 0
-0.75 0 0
-0.74 0 0
-0.73 0 0
-0.72 0 0
-0.71 0 0
-0.7 0 0
-0.69 0 0
-0.68 0 0
-0.67 0 0
-0.66 0 0
-0.65 0 0
-0.64 0 0
-0.63 0 0
-0.62 0 0
-0.61 0 0
-0.6 0 0
-0.59 0 0
-0.58 0 0
-0.57 0 0
-0.56 0 0
-0.55 0 0
-0.54 0 0
-0.53 0 0
-0.52 0 0
-0.51 0 0
-0.5 0 0
-0.49 0 0
-0.48 0 0
-0.47 0 0
-0.46 0 0
-0.45 0 0
-0.44 0 0
-0.43 0 0
-0.42 0 0
-0.41 0 0
-0.4 0 0
-0.39 0 0
-0.38 0 0
-0.37 0 0
-0.36 0 0
-0.35 0 0
-0.34 0 0
-0.33 0 0
-0.32 0 0
-0.31 0 0
-0.3 0 0
-0.29 0 0
-0.28 0 0
-0.27 0 0
-0.26 0 0
-0.25 0 0
-0.24 0 0
-0.23 0 0
-0.22 0 0
-0.21 0 0
-0.2 0 0
-0.19 0 0
-0.18 0 0
-0.17 0 0
-0.16 0 0
-0.15 0 0
-0.14 0 0
-0.13 0 0
-0.12 0 0
-0.11 0 0
-0.1 0 0
-0.09 0 0
-0.08 0 0
-0.07 0 0
-0.06 0 0
-0.05 0 0
-0.04 0 0
-0.03 0 0
-0.02 0 0
-0.01 0 0
1.01 0 0
1.02 0 0
1.03 0 0
1.04 0 0
1.05 0 0
1.06 0 0
1.07 0 0
1.08 0 0
1.09 0 0
1.1 0 0
1.11 0 0
1.12 0 0
1.13 0 0
1.14 0 0
1.15 0 0
1.16 0 0
1.17 0 0
1.18 0 0
1.19 0 0
1.2 0 0
1.21 0 0
1.22 0 0
1.23 0 0
1.24 0 0
1.25 0 0
1.26 0 0
1.27 0 0
1.28 0 0
1.29 0 0
1.3 0 0
1.31 0 0
1.32 0 0
1.33 0 0
1.34 0 0
1.35 0 0
1.36 0 0
1.37 0 0
1.38 0 0
1.39 0 0
1.4 0 0
1.41 0 0
1.42 0 0
1.43 0 0
1.44 0 0
1.45 0 0
1.46 0 0
1.47 0 0
1.48 0 0
1.49 0 0
1.5 0 0
1.51 0 0
1.52 0 0
1.53 0 0
1.54 0 0
1.55 0 0
1.56 0 0
1.57 0 0
1.58 0 0
1.59 0 0
1.6 0 0
1.61 0 0
1.62 0 0
1.63 0 0
1.64 0 0
1.65 0 0
1.66 0 0
1.67 0 0
1.68 0 0
1.69 0 0
1.7 0 0
1.71 0 0
1.72 0 0
1.73 0 0
1.74 0 0
1.75 0 0
1.76 0 0
1.77 0 0
1.78 0 0
1.79 0 0
1.8 0 0
1.81 0 0
1.82 0 0
1.83 0 0
1.84 0 0
1.85 0 0
1.86 0 0
1.87 0 0
1.88 0 0
1.89 0 0
1.9 0 0
1.91 0 0
1.92 0 0
1.93 0 0
1.94 0 0
1.95 0 0
1.96 0 0
1.97 0 0
1.98 0 0
1.99 0 0
2 0.010289 0
2 0.0215307 0
2 0.0338135 0
2 0.0472336 0
2 0.0618965 0
2 0.0779171 0
2 0.0954213 0
2 0.114546 0
2 0.135442 0
2 0.158274 0
2 0.183219 0
2 0.210474 0
2 0.240253 0
2 0.27279 0
2 0.308339 0
2 0.347181 0
2 0.389619 0
2 0.435987 0
2 0.486649 0
2 0.542002 0
2 0.602481 0
2 0.66856 0
2 0.740758 0
2 0.819642 0
2 0.90583 0
1.9 1 0
1.8 1 0
1.7 1 0
1.6 1 0
1.5 1 0
1.4 1 0
1.3 1 0
1.2 1 0
1.1 1 0
1 1 0
0.9 1 0
0.8 1 0
0.7 1 0
0.6 1 0
0.5 1 0
0.4 1 0
0.3 1 0
0.2 1 0
0.1 1 0
3.69793e-12 1 0
-0.1 1 0
-0.2 1 0
-0.3 1 0
-0.4 1 0
-0.5 1 0
-0.6 1 0
-0.7 1 0
-0.8 1 0
-0.9 1 0
-1 0.90583 0
-1 0.819642 0
-1 0.740758 0
-1 0.66856 0
-1 0.602481 0
-1 0.542002 0
-1 0.486649 0
-1 0.435987 0
-1 0.389619 0
-1 0.347181 0
-1 0.308339 0
-1 0.27279 0
-1 0.240253 0
-1 0.210474 0
-1 0.183219 0
-1 0.158274 0
-1 0.135442 0
-1 0.114546 0
-1 0.0954213 0
-1 0.0779171 0
-1 0.0618965 0
-1 0.0472336 0
-1 0.0338135 0
-1 0.0215307 0
-1 0.010289 0
0.00921362 0.00379763 0
0.0184561 0.00752451 0
0.0277268 0.0111804 0
0.0370253 0.0147652 0
0.0463511 0.0182786 0
0.0557034 0.0217203 0
0.0650819 0.0250903 0
0.074486 0.0283883 0
0.083915 0.0316141 0
0.0933685 0.0347675 0
0.102846 0.0378484 0
0.112347 0.0408565 0
0.12187 0.0437917 0
0.131416 0.0466538 0
0.140983 0.0494427 0
0.150572 0.0521581 0
0.160181 0.0547999 0
0.16981 0.0573681 0
0.179458 0.0598623 0
0.189125 0.0622825 0
0.198811 0.0646285 0
0.208514 0.0669001 0
0.218234 0.0690974 0
0.227971 0.07122 0
0.237724 0.073268 0
0.247493 0.0752411 0
0.257276 0.0771393 0
0.267073 0.0789625 0
0.276884 0.0807105 0
0.286708 0.0823832 0
0.296545 0.0839806 0
0.306394 0.0855025 0
0.316254 0.0869488 0
0.326125 0.0883196 0
0.336006 0.0896146 0
0.345896 0.0908339 0
0.355796 0.0919773 0
0.365704 0.0930447 0
0.375621 0.0940362 0
0.385544 0.0949517 0
0.395474 0.095791 0
0.40541 0.0965542 0
0.415352 0.0972412 0
0.425299 0.097852 0
0.43525 0.0983865 0
0.445205 0.0988447 0
0.455164 0.0992266 0
0.465125 0.0995321 0
0.475088 0.0997613 0
0.485052 0.0999141 0
0.495017 0.0999904 0
0.504983 0.0999904 0
0.514948 0.0999141 0
0.524912 0.0997613 0
0.534875 0.0995321 0
0.544836 0.0992266 0
0.554795 0.0988447 0
0.56475 0.0983865 0
0.574701 0.097852 0
0.584648 0.0972412 0
0.59459 0.0965542 0
0.604526 0.095791 0
0.614456 0.0949517 0
0.624379 0.0940362 0
0.634296 0.0930447 0
0.644204 0.0919773 0
0.654104 0.0908339 0
0.663994 0.0896146 0
0.673875 0.0883196 0
0.683746 0.0869488 0
0.693606 0.0855025 0
0.703455 0.0839806 0
0.713292 0.0823832 0
0.723116 0.0807105 0
0.732927 0.0789625 0
0.742724 0.0771393 0
0.752508 0.0752411 0
0.762276 0.073268 0
0.772029 0.07122 0
0.781766 0.0690974 0
0.791486 0.0669001 0
0.801189 0.0646285 0
0.810875 0.0622825 0
0.820542 0.0598623 0
0.83019 0.0573681 0
0.839819 0.0547999 0
0.849428 0.0521581 0
0.859017 0.0494427 0
0.868584 0.0466538 0
0.87813 0.0437917 0
0.887653 0.0408565 0
0.897154 0.0378484 0
0.906631 0.0347675 0
0.916085 0.0316141 0
0.925514 0.0283883 0
0.934918 0.0250903 0
0.944297 0.0217203 0
0.953649 0.0182786 0
0.962975 0.0147652 0
0.972273 0.0111804 0
0.981544 0.00752451 0
0.990786 0.00379763 0
-1 0.90583 0.1
-1 0.819642 0.1
-1 0.740758 0.1
-1 0.66856 0.1
-1 0.602481 0.1
-1 0.542002 0.1
-1 0.486649 0.1
-1 0.435987 0.1
-1 0.389619 0.1
-1 0.347181 0.1
-1 0.308339 0.1
-1 0.27279 0.1
-1 0.240253 0.1
-1 0.210474 0.1
-1 0.183219 0.1
-1 0.158274 0.1
-1 0.135442 0.1
-1 0.114546 0.1
-1 0.0954213 0.1
-1 0.0779171 0.1
-1 0.0618965 0.1
-1 0.0472336 0.1
-1 0.0338135 0.1
-1 0.0215307 0.1
-1 0.010289 0.1
-0.99 0 0.1
-0.98 0 0.1
-0.97 0 0.1
-0.96 0 0.1
-0.95 0 0.1
-0.94 0 0.1
-0.93 0 0.1
-0.92 0 0.1
-0.91 0 0.1
-0.9 0 0.1
-0.89 0 0.1
-0.88 0 0.1
-0.87 0 0.1
-0.86 0 0.1
-0.85 0 0.1
-0.84 0 0.1
-0.83 0 0.1
-0.82 0 0.1
-0.81 0 0.1
-0.8 0 0.1
-0.79 0 0.1
-0.78 0 0.1
-0.77 0 0.1
-0.76 0 0.1
-0.75 0 0.1
-0.74 0 0.1
-0.73 0 0.1
-0.72 0 0.1
-0.71 0 0.1
-0.7 0 0.1
-0.69 0 0.1
-0.68 0 0.1
-0.67 0 0.1
-0.66 0 0.1
-0.65 0 0.1
-0.64 0 0.1
-0.63 0 0.1
-0.62 0 0.1
-0.61 0 0.1
-0.6 0 0.1
-0.59 0 0.1
-0.58 0 0.1
-0.57 0 0.1
-0.56 0 0.1
-0.55 0 0.1
-0.54 0 0.1
-0.53 0 0.1
-0.52 0 0.1
-0.51 0 0.1
-0.5 0 0.1
-0.49 0 0.1
-0.48 0 0.1
-0.47 0 0.1
-0.46 0 0.1
-0.45 0 0.1
-0.44 0 0.1
-0.43 0 0.1
-0.42 0 0.1
-0.41 0 0.1
-0.4 0 0.1
-0.39 0 0.1
-0.38 0 0.1
-0.37 0 0.1
-0.36 0 0.1
-0.35 0 0.1
-0.34 0 0.1
-0.33 0 0.1
-0.32 0 0.1
-0.31 0 0.1
-0.3 0 0.1
-0.29 0 0.1
-0.28 0 0.1
-0.27 0 0.1
-0.26 0 0.1
-0.25 0 0.1
-0.24 0 0.1
-0.23 0 0.1
-0.22 0 0.1
-0.21 0 0.1
-0.2 0 0.1
-0.19 0 0.1
-0.18 0 0.1
-0.17 0 0.1
-0.16 0 0.1
-0.15 0 0.1
-0.14 0 0.1
-0.13 0 0.1
-0.12 0 0.1
-0.11 0 0.1
-0.1 0 0.1
-0.09 0 0.1
-0.08 0 0.1
-0.07 0 0.1
-0.06 0 0.1
-0.05 0 0.1
-0.04 0 0.1
-0.03 0 0.1
-0.02 0 0.1
-0.01 0 0.1
0.00921362 0.00379763 0.1
0.0184561 0.00752451 0.1
0.0277268 0.0111804 0.1
0.0370253 0.0147652 0.1
0.0463511 0.0182786 0.1
0.0557034 0.0217203 0.1
0.0650819 0.0250903 0.1
0.074486 0.0283883 0.1
0.083915 0.0316141 0.1
0.0933685 0.0347675 0.1
0.102846 0.0378484 0.1
0.112347 0.0408565 0.1
0.12187 0.0437917 0.1
0.131416 0.0466538 0.1
0.140983 0.0494427 0.1
0.150572 0.0521581 0.1
0.160181 0.0547999 0.1
0.16981 0.0573681 0.1
0.179458 0.0598623 0.1
0.189125 0.0622825 0.1
0.198811 0.0646285 0.1
0.208514 0.0669001 0.1
0.218234 0.0690974 0.1
0.227971 0.07122 0.1
0.237724 0.073268 0.1
0.247493 0.0752411 0.1
0.257276 0.0771393 0.1
0.267073 0.0789625 0.1
0.276884 0.0807105 0.1
0.286708 0.0823832 0.1
0.296545 0.0839806 0.1
0.306394 0.0855025 0.1
0.316254 0.0869488 0.1
0.326125 0.0883196 0.1
0.336006 0.0896146 0.1
0.345896 0.0908339 0.1
0.355796 0.0919773 0.1
0.365704 0.0930447 0.1
0.375621 0.0940362 0.1
0.385544 0.0949517 0.1
0.395474 0.095791 0.1
0.40541 0.0965542 0.1
0.415352 0.0972412 0.1
0.425299 0.097852 0.1
0.43525 0.0983865 0.1
0.445205 0.0988447 0.1
0.455164 0.0992266 0.1
0.465125 0.0995321 0.1
0.475088 0.0997613 0.1
0.485052 0.0999141 0.1
0.495017 0.0999904 0.1
0.504983 0.0999904 0.1
0.514948 0.0999141 0.1
0.524912 0.0997613 0.1
0.534875 0.0995321 0.1
0.544836 0.0992266 0.1
0.554795 0.0988447 0.1
0.56475 0.0983865 0.1
0.574701 0.097852 0.1
0.584648 0.0972412 0.1
0.59459 0.0965542 0.1
0.604526 0.095791 0.1
0.614456 0.0949517 0.1
0.624379 0.0940362 0.1
0.634296 0.0930447 0.1
0.644204 0.0919773 0.1
0.654104 0.0908339 0.1
0.663994 0.0896146 0.1
0.673875 0.0883196 0.1
0.683746 0.0869488 0.1
0.693606 0.0855025 0.1
0.703455 0.0839806 0.1
0.713292 0.0823832 0.1
0.723116 0.0807105 0.1
0.732927 0.0789625 0.1
0.742724 0.0771393 0.1
0.752508 0.0752411 0.1
0.762276 0.073268 0.1
0.772029 0.07122 0.1
0.781766 0.0690974 0.1
0.791486 0.0669001 0.1
0.801189 0.0646285 0.1
0.810875 0.0622825 0.1
0.820542 0.0598623 0.1
0.83019 0.0573681 0.1
0.839819 0.0547999 0.1
0.849428 0.0521581 0.1
0.859017 0.0494427 0.1
0.868584 0.0466538 0.1
0.87813 0.0437917 0.1
0.887653 0.0408565 0.1
0.897154 0.0378484 0.1
0.906631 0.0347675 0.1
0.916085 0.0316141 0.1
0.925514 0.0283883 0.1
0.934918 0.0250903 0.1
0.944297 0.0217203 0.1
0.953649 0.0182786 0.1
0.962975 0.0147652 0.1
0.972273 0.0111804 0.1
0.981544 0.00752451 0.1
0.990786 0.00379763 0.1
1.01 0 0.1
1.02 0 0.1
1.03 0 0.1
1.04 0 0.1
1.05 0 0.1
1.06 0 0.1
1.07 0 0.1
1.08 0 0.1
1.09 0 0.1
1.1 0 0.1
1.11 0 0.1
1.12 0 0.1
1.13 0 0.1
1.14 0 0.1
1.15 0 0.1
1.16 0 0.1
1.17 0 0.1
1.18 0 0.1
1.19 0 0.1
1.2 0 0.1
1.21 0 0.1
1.22 0 0.1
1.23 0 0.1
1.24 0 0.1
1.25 0 0.1
1.26 0 0.1
1.27 0 0.1
1.28 0 0.1
1.29 0 0.1
1.3 0 0.1
1.31 0 0.1
1.32 0 0.1
1.33 0 0.1
1.34 0 0.1
1.35 0 0.1
1.36 0 0.1
1.37 0 0.1
1.38 0 0.1
1.39 0 0.1
1.4 0 0.1
1.41 0 0.1
1.42 0 0.1
1.43 0 0.1
1.44 0 0.1
1.45 0 0.1
1.46 0 0.1
1.47 0 0.1
1.48 0 0.1
1.49 0 0.1
1.5 0 0.1
1.51 0 0.1
1.52 0 0.1
1.53 0 0.1
1.54 0 0.1
1.55 0 0.1
1.56 0 0.1
1.57 0 0.1
1.58 0 0.1
1.59 0 0.1
1.6 0 0.1
1.61 0 0.1
1.62 0 0.1
1.63 0 0.1
1.64 0 0.1
1.65 0 0.1
1.66 0 0.1
1.67 0 0.1
1.68 0 0.1
1.69 0 0.1
1.7 0 0.1
1.71 0 0.1
1.72 0 0.1
1.73 0 0.1
1.74 0 0.1
1.75 0 0.1
1.76 0 0.1
1.77 0 0.1
1.78 0 0.1
1.79 0 0.1
1.8 0 0.1
1.81 0 0.1
1.82 0 0.1
1.83 0 0.1
1.84 0 0.1
1.85 0 0.1
1.86 0 0.1
1.87 0 0.1
1.88 0 0.1
[...]
CELL_DATA 7425
SCALARS rho float
LOOKUP_TABLE default
0.735432
0.814585
0.868233
0.87282
0.806466
0.867558
0.865393
0.863898
0.861719
0.806069
0.895046
0.825151
0.863556
0.872685
0.816305
0.866625
0.802631
0.862404
0.809087
0.809946
0.875442
0.839984
0.796692
0.873448
0.811208
0.80328
0.875005
0.866867
0.812634
0.822484
0.864505
0.778932
0.809567
0.771513
0.729414
0.873427
0.810542
0.863852
0.826614
0.872149
0.808257
0.792628
0.841835
0.749162
0.747106
0.801264
0.851776
0.863469
0.775194
0.769053
0.788696
0.815352
0.833817
0.804001
0.761373
0.736644
0.870325
0.803362
0.806124
0.787517
0.806304
0.821727
0.862342
0.804135
0.811334
0.866925
0.733726
0.830738
0.737599
0.822346
0.816037
0.805788
0.909607
0.839111
0.835066
0.861803
0.814882
0.811767
0.862386
0.797042
0.865729
0.821102
0.860351
0.81971
0.874879
0.809473
0.723385
0.873142
0.73237
0.885979
0.75285
0.799956
0.864305
0.807581
0.866774
0.829794
0.853425
0.814752
0.871987
0.814421
0.859561
0.783165
0.810038
0.872413
0.735233
0.826666
0.87031
0.799626
0.864846
0.805144
0.866227
0.816516
0.820433
0.829474
0.841748
0.814171
0.875002
0.805288
0.751734
0.763051
0.815398
0.833189
0.861621
0.81861
0.8936
0.856732
0.820825
0.852594
0.767901
0.721652
0.864391
0.772908
0.726928
0.883031
0.773732
0.80679
0.832703
0.803491
0.726354
0.79871
0.811928
0.825747
0.859491
0.758804
0.813518
0.812758
0.71878
0.846209
0.815083
0.873287
0.862257
0.753864
0.814572
0.787121
0.75774
0.811381
0.825661
0.874902
0.848341
0.782598
0.80819
0.74995
0.809689
0.874508
0.868748
0.804498
0.861926
0.838421
0.823333
0.809153
0.868338
0.818691
0.847914
0.804959
0.803236
0.806538
0.816472
0.83002
0.754356
0.747606
0.806016
0.846739
0.906979
0.874359
0.750884
0.870331
0.803257
0.84577
0.80617
0.862825
0.860939
0.807891
0.824419
0.757406
0.864873
0.867664
0.811192
0.849702
0.876316
0.820945
0.828264
0.860195
0.741704
0.856822
0.721384
0.732606
0.733627
0.7637
0.846187
0.9068
0.820744
0.811168
0.878537
0.861532
0.866207
0.868951
0.865058
0.745224
0.753048
0.863296
0.734235
0.752216
0.755457
0.862286
0.863944
0.8618
0.876173
0.861118
0.8793
0.76173
0.852507
0.808015
0.823364
0.811074
0.805156
0.798802
0.796047
0.737333
0.75618
0.896822
0.889403
0.858307
0.821037
0.851887
0.828231
0.797905
0.869527
0.809086
0.871721
0.816926
0.85944
0.770715
0.861109
0.870826
0.808735
0.719187
0.803927
0.781248
0.859843
0.864256
0.780149
0.865386
0.86469
0.884661
0.85999
0.818915
0.807606
0.872007
0.894896
0.820428
0.736293
0.886157
0.830673
0.816261
0.8729
0.876307
0.862257
0.868802
0.820082
0.864923
0.881375
0.884987
0.845418
0.878885
0.808371
0.866629
0.806103
0.798569
0.802319
0.725516
0.75137
0.854539
0.861597
0.865736
0.870923
0.814959
0.754009
0.872889
0.731095
0.830642
0.80925
0.755056
0.73594
0.746701
0.865038
0.862356
0.861534
0.862569
0.872644
0.808933
0.828411
0.812589
0.861097
0.881362
0.882618
0.876378
0.80975
0.750839
0.847552
0.87362
0.782962
0.803342
0.804671
0.89664
0.866583
0.726566
0.862818
0.809092
0.868809
0.81297
0.86021
0.928293
0.807872
0.824875
0.766549
0.75005
0.763111
0.841433
0.872334
0.864795
0.863241
0.895274
0.87344
0.806687
0.848114
0.844483
0.817506
0.825879
0.907878
0.808415
0.820033
0.809304
0.80496
0.862295
0.865513
0.866035
0.767018
0.84783
0.779879
0.83429
0.768542
0.854361
0.804719
0.857427
0.81587
0.837633
0.859942
0.866483
0.803783
0.804586
0.835421
0.798925
0.843155
0.861927
0.862251
0.809146
0.791395
0.717772
0.819753
0.860273
0.807204
0.861197
0.824284
0.736664
0.862212
0.862691
0.811034
0.839293
0.862415
0.816879
0.813396
0.865939
0.821024
0.869981
0.810825
0.858305
0.821078
0.72257
0.816023
0.74767
0.876439
0.750944
0.864648
0.906854
0.760319
0.835808
0.817905
0.816665
0.902237
0.73468
0.870244
0.869911
0.81126
0.87204
0.827357
0.870635
0.875032
0.871171
0.807076
0.873113
0.79992
0.826413
0.815434
0.845721
0.823191
0.81636
0.807173
0.864229
0.827105
0.816231
0.738958
0.743577
0.797594
0.862056
0.883033
0.897736
0.873275
0.803469
0.861003
0.817087
0.866004
0.774556
0.808175
0.800018
0.866117
0.864735
0.821578
0.763499
0.806355
0.725088
0.731226
0.809843
0.734218
0.847487
0.802364
0.810835
0.779308
0.825986
0.831139
0.859677
0.86478
0.868226
0.860498
0.806646
0.765457
0.87972
0.858718
0.815965
0.827569
0.809595
0.878764
0.80685
0.891094
0.801081
0.80977
0.83045
0.862145
0.730507
0.803576
0.882
0.830534
0.863385
0.86017
0.806032
0.841348
0.875052
0.806934
0.88289
0.784873
0.759332
0.803416
0.847009
0.869627
0.800757
0.886136
0.810326
0.865769
0.80271
0.814592
0.82519
0.727731
0.772123
0.746012
0.86283
0.851295
0.872045
0.813427
0.826846
0.864643
0.868691
0.804605
0.816414
0.85169
0.832906
0.806932
0.800207
0.863098
0.867345
0.857009
0.860003
0.871802
0.893985
0.890679
0.820434
0.732406
0.876103
0.81928
0.880206
0.864013
0.840973
0.862958
0.863419
0.764861
0.821401
0.859585
0.861078
0.843428
0.856774
0.818769
0.876512
0.803607
0.860986
0.864574
0.902548
0.730326
0.86292
0.859879
0.90961
0.720529
0.866063
0.847872
0.815364
0.836519
0.846689
0.899328
0.859314
0.875494
0.831161
0.743152
0.806085
0.811963
0.798886
0.887342
0.800455
0.825216
0.86377
0.861766
0.875211
0.814225
0.874295
0.877554
0.843606
0.843209
0.859545
0.80695
0.827905
0.82295
0.815612
0.864385
0.805059
0.88351
0.805357
0.834076
0.809237
0.861065
0.807152
0.861295
0.867455
0.81604
0.863095
0.863657
0.846117
0.87147
0.808739
0.805343
0.88537
0.804757
0.844184
0.883003
0.816215
0.723619
0.861686
0.873594
0.88665
0.863045
0.805867
0.834092
0.88891
0.813152
0.812385
0.808956
0.861372
0.809391
0.812188
0.847769
0.825662
0.81623
0.849615
0.882994
0.819558
0.881365
0.807347
0.87113
0.862489
0.811927
0.879059
0.86167
0.790388
0.867741
0.820878
0.862563
0.927033
0.804939
0.864287
0.803229
0.804786
0.865912
0.805138
0.809268
0.816198
0.789426
0.858509
0.861268
0.822343
0.847728
0.87016
0.82999
0.869913
0.819446
0.87207
0.903883
0.875034
0.755431
0.786771
0.881395
0.866724
0.882653
0.864707
0.886139
0.823525
0.858449
0.804428
0.879192
0.894869
0.889298
0.812527
0.863828
0.869303
0.788162
0.835839
0.810029
0.803145
0.811843
0.865802
0.875194
0.841976
0.877779
0.864112
0.862518
0.860935
0.864581
0.876172
0.828354
0.802491
0.826456
0.816426
0.86032
0.809108
0.874812
0.830803
0.746247
0.81406
0.828374
0.803744
0.868417
0.814361
0.864615
0.866737
0.816426
0.86798
0.813738
0.821737
0.75718
0.885553
0.87149
0.872637
0.833205
0.811143
0.784713
0.82393
0.928501
0.863572
0.812019
0.862544
0.815327
0.824005
0.863281
0.869324
0.831518
0.862376
0.865945
0.74132
0.83731
0.830572
0.861719
0.817882
0.811861
0.744747
0.821403
0.814113
0.799499
0.856042
0.866647
0.810641
0.823156
0.802519
0.866587
0.860571
0.862488
0.861167
0.787257
0.873903
0.820133
0.824192
0.85959
0.836037
0.865959
0.806277
0.793977
0.869864
0.844438
0.8693
0.817772
0.821968
0.869126
0.792256
0.865663
0.782172
0.902639
0.790262
0.884122
0.854463
0.903531
0.82346
0.80635
0.868954
0.855209
0.85539
0.870661
0.868423
0.864684
0.853693
0.823215
0.822447
0.810595
0.848026
0.811127
0.769266
0.872976
0.745433
0.808831
0.875773
0.81622
0.793374
0.823885
0.863832
0.7565
0.817702
0.867994
0.872963
0.858753
0.756695
0.808596
0.832987
0.812978
0.861326
0.808091
0.807158
0.863911
0.865516
0.861002
0.83134
0.807824
0.813201
0.818483
0.718948
0.861036
0.851407
0.747366
0.865024
0.865839
0.864564
0.867463
0.864297
0.87119
0.805939
0.8112
0.808158
0.840694
0.847238
0.842865
0.85591
0.810119
0.859619
0.814123
0.807361
0.82544
0.869202
0.862617
0.810108
0.87427
0.86137
0.854083
0.85982
0.865797
0.865048
0.878768
0.864333
0.861542
0.828078
0.863482
0.810125
0.869001
0.810838
0.870278
0.86287
0.745341
0.862957
0.877412
0.873485
0.855993
0.726638
0.866367
0.853452
0.720161
0.786607
0.780222
0.875593
0.855644
0.828105
0.86195
0.805419
0.866328
0.827032
0.726173
0.796641
0.835667
0.818808
0.865436
0.809264
0.825131
0.860222
0.868157
0.802702
0.799486
0.872954
0.805494
0.8314
0.863364
0.818851
0.725451
0.876417
0.830554
0.786568
0.806024
0.823599
0.757781
0.848442
0.864744
0.873266
0.867744
0.844968
0.813953
0.807472
0.752549
0.721233
0.871792
0.825968
0.81531
0.86173
0.839144
0.867152
0.902278
0.821955
0.869532
0.86354
0.871856
0.910899
0.864341
0.861477
0.819431
0.830909
0.794387
0.87355
0.803995
0.828416
0.805927
0.81713
0.890343
0.869615
0.877918
0.869468
0.798626
0.804684
0.817087
0.866967
0.80561
0.816352
0.820366
0.836869
0.864601
0.809997
0.839932
0.760148
0.863821
0.818997
0.782547
0.865344
0.865576
0.807255
0.827949
0.821762
0.893616
0.809347
0.861085
0.826259
0.809467
0.864091
0.812434
0.730389
0.838997
0.848681
0.854899
0.86438
0.871105
0.808767
0.820646
0.859183
0.84566
0.830979
0.878289
0.73968
0.7836
0.861325
0.810352
0.869904
0.828424
0.86111
0.806058
0.857737
0.81621
0.811612
0.828737
0.860692
0.805081
0.744631
0.812491
0.810372
0.865871
0.864192
0.873836
0.729069
0.843548
0.816898
0.89342
0.810738
0.835637
0.809729
0.840728
0.803
0.870882
0.87433
0.839786
0.866469
0.75918
0.834486
0.86462
0.816247
0.859201
0.813598
0.757461
0.84494
0.813549
0.828185
0.848746
0.885701
0.875808
0.86287
0.805948
0.816713
0.810252
0.812823
0.740254
0.853924
0.814736
0.769168
0.869512
0.802366
0.812191
0.80645
0.817046
0.817834
0.859914
0.845045
0.853916
0.865717
0.864427
0.863552
0.862718
0.856353
0.788533
0.784629
0.749694
0.874206
0.900603
0.859722
0.858027
0.885301
0.895209
0.809505
0.864835
0.895293
0.860035
0.861026
0.863021
0.811782
0.862856
0.823168
0.822014
0.721742
0.86159
0.80844
0.862391
0.834263
0.809185
0.757666
0.862478
0.73825
0.842962
0.812037
0.864588
0.890971
0.808996
0.814358
0.869094
0.861756
0.817952
0.808746
0.726607
0.868908
0.816919
0.847853
0.871921
0.855441
0.819623
0.875132
0.805233
0.729573
0.912345
0.85271
0.865486
0.81512
0.762125
0.802843
0.807031
0.864924
0.819767
0.751642
0.909654
0.797288
0.878698
0.861708
0.876405
0.882406
0.848501
0.813847
0.863328
0.887127
0.806385
0.90011
0.863756
0.724657
0.815074
0.793988
0.889416
0.827625
0.814411
0.812326
0.804528
0.805002
0.859521
0.861177
0.871236
0.821275
0.804402
0.8081
0.805875
0.860549
0.866431
0.804208
0.860735
0.887002
0.804616
0.838963
0.80397
0.857172
0.814436
0.863169
0.863648
0.761732
0.796745
0.824871
0.869721
0.818772
0.724643
0.872256
0.863223
0.851278
0.815481
0.80773
0.803445
0.842471
0.725427
0.822227
0.865835
0.853928
0.868884
0.861454
0.852684
0.808721
0.828232
0.833242
0.817821
0.804783
0.811408
0.792535
0.807867
0.837089
0.860588
0.872737
0.865657
0.730357
0.882223
0.860983
0.838801
0.811001
0.840885
0.859527
0.918724
0.849006
0.881783
0.822644
0.827255
0.893916
0.813893
0.8101
0.8703
0.761363
0.750319
0.80855
0.810788
0.740207
0.757042
0.809457
0.870712
0.861779
0.870121
0.79848
0.862901
0.861868
0.872293
0.865286
0.828432
0.860998
0.818372
0.817349
0.865479
0.859735
0.767461
0.729065
0.861026
0.754634
0.795167
0.724349
0.881557
0.806597
0.73509
0.732531
0.868702
0.928709
0.867275
0.755504
0.864022
0.841286
0.810458
0.817856
0.839704
0.860481
0.818458
0.868665
0.854404
0.736999
0.867072
0.829087
0.865626
0.753472
0.869807
0.844406
0.863751
0.808042
0.763007
0.88013
0.854335
0.822577
0.72296
0.866388
0.80646
0.86858
0.762931
0.866577
0.759798
0.811148
0.809154
0.848381
0.818264
0.804832
0.767572
0.729953
0.762568
0.808568
0.73236
0.870129
0.742239
0.819502
0.788176
0.765999
0.738355
0.812089
0.806535
0.767432
0.869331
0.805083
0.812413
0.822507
0.915125
0.804709
0.871136
0.80947
0.861091
0.787853
0.823384
0.806907
0.869709
0.912587
0.874989
0.817408
0.87008
0.830738
0.907002
0.812133
0.819951
0.887982
0.835077
0.809529
0.820931
0.820119
0.823739
0.777238
0.814749
0.807164
0.866795
0.876488
0.733613
0.824803
0.732697
0.763709
0.768282
0.837329
0.869092
0.859837
0.813371
0.737716
0.901464
0.804158
0.804337
0.896732
0.860642
0.810884
0.860432
0.803974
0.867154
0.804519
0.794665
0.813985
0.784337
0.803062
0.85543
0.803476
0.747373
0.859252
0.856877
0.785449
0.836339
0.730646
0.725923
0.816537
0.782174
0.798272
0.725635
0.809808
0.863175
0.758109
0.812262
0.767761
0.85792
0.767084
0.823062
0.819692
0.861382
0.775267
0.804036
0.919176
0.822948
0.866367
0.754572
0.784301
0.854529
0.861418
0.863851
0.886687
0.861816
0.821045
0.817045
0.808326
0.799039
0.768148
0.745033
0.833972
0.740908
0.773837
0.860547
0.864363
0.821498
0.805681
0.747426
0.860077
0.812545
0.73301
0.736366
0.812317
0.812595
0.857253
0.726072
0.826688
0.733525
0.811865
0.742631
0.83808
0.811316
0.738503
0.736857
0.899265
0.825848
0.825665
0.806235
0.768594
0.758501
0.76193
0.865677
0.820582
0.804008
0.74798
0.821396
0.860395
0.865225
0.860871
0.865299
0.880041
0.823945
0.867724
0.821414
0.887072
0.861015
0.805564
0.862181
0.773536
0.863183
0.862512
0.865016
0.861905
0.865544
0.807941
0.867017
0.861323
0.860794
0.866541
0.811103
0.866057
0.867826
0.764777
0.867591
0.899979
0.86728
0.813705
0.75575
0.893192
0.867745
0.871523
0.805658
0.859713
0.797274
0.88919
0.753876
0.815417
0.826522
0.865472
0.813698
0.808529
0.875909
0.832179
0.817672
0.865109
0.834836
0.879986
0.881497
0.863178
0.764606
0.769644
0.865555
0.866127
0.846185
0.887223
0.884285
0.828754
0.863756
0.836036
0.864061
0.867
0.864041
0.867724
0.831186
0.865603
0.888094
0.865724
0.864497
0.866911
0.866993
0.811477
0.86417
0.817575
0.819223
0.81796
0.867596
0.860134
0.84282
0.79515
0.862172
0.81857
0.859659
0.818368
0.890728
0.814543
0.864018
0.861445
0.818345
0.733667
0.811014
0.861391
0.833437
0.825516
0.861352
0.862731
0.861928
0.825536
0.895563
0.726039
0.861312
0.881014
0.861498
0.808552
0.822736
0.864851
0.880664
0.808275
0.812741
0.858029
0.742214
0.861263
0.823802
0.823696
0.861837
0.86169
0.861987
0.862638
0.728527
0.836616
0.800942
0.911936
0.868479
0.780587
0.769573
0.865197
0.830792
0.836938
0.751652
0.806451
0.862574
0.753075
0.806729
0.812505
0.834186
0.853371
0.892008
0.825457
0.735211
0.806705
0.809869
0.830172
0.91462
0.852981
0.834562
0.837296
0.871849
0.862711
0.870017
0.877854
0.751473
0.853714
0.758609
0.863364
0.863227
0.763922
0.863066
0.856564
0.764375
0.863804
0.782106
0.894974
0.816279
0.864085
0.861334
0.862909
0.779932
0.863175
0.743705
0.804416
0.820419
0.869689
0.865017
0.786409
0.80378
0.874653
0.862117
0.864172
0.869681
0.862789
0.871781
0.804267
0.722011
0.798129
0.80945
0.779989
0.8794
0.84141
0.853203
0.838933
0.810268
0.861742
0.861416
0.861465
0.811394
0.726455
0.809168
0.736962
0.856595
0.843223
0.805846
0.812384
0.831509
0.824161
0.839938
0.791225
0.862698
0.892051
0.861174
0.803431
0.785994
0.835635
0.813648
0.873123
0.733124
0.813438
0.858082
0.803203
0.766025
0.861849
0.860741
0.87314
0.723161
0.820177
0.808081
0.862378
0.765536
0.86205
0.807854
0.808312
0.810045
0.862282
0.86249
0.865774
0.861792
0.769224
0.813101
0.807124
0.86158
0.919687
0.86217
0.833318
0.858902
0.810238
0.805864
0.734005
0.861374
0.808925
0.844452
0.829316
0.898543
0.862429
0.869601
0.808144
0.868794
0.81374
0.728805
0.824201
0.848597
0.856693
0.831366
0.863562
0.726179
0.893673
0.873341
0.833154
0.802885
0.783084
0.830408
0.865
0.861473
0.830908
0.861509
0.813724
0.77486
0.812366
0.803278
0.802232
0.870878
0.870359
0.893562
0.865437
0.861473
0.7455
0.823793
0.861422
0.806565
0.831165
0.836999
0.806409
0.862303
0.872742
0.819382
0.814218
0.806167
0.863592
0.879836
0.813535
0.802534
0.81261
0.805164
0.868408
0.730894
0.898477
0.810227
0.721492
0.814302
0.852461
0.838047
0.764435
0.740943
0.809502
0.816876
0.808424
0.892685
0.813033
0.863894
0.811398
0.880695
0.814164
0.813102
0.868157
0.864981
0.838895
0.869086
0.868528
0.897642
0.802444
0.886712
0.866547
0.756913
0.811752
0.812563
0.813812
0.869185
0.870387
0.814907
0.808635
0.805977
0.870145
0.813014
0.810015
0.805421
0.871187
0.811193
0.806553
0.818586
0.872895
0.810089
0.809589
0.843363
0.80354
0.865196
0.755093
0.872415
0.885754
0.816487
0.868249
0.808766
0.873852
0.879256
0.808443
0.869319
0.804528
0.822507
0.820617
0.806736
0.812859
0.818275
0.818779
0.817748
0.867435
0.864573
0.826776
0.87548
0.8133
0.805175
0.805622
0.819647
0.876321
0.808558
0.868046
0.86503
0.820665
0.818084
0.804949
0.879359
0.879479
0.805202
0.769593
0.805512
0.882232
0.866184
0.819926
0.812875
0.837492
0.882729
0.767851
0.847494
0.8483
0.86825
0.867608
0.827934
0.83002
0.824302
0.810956
0.829077
0.822972
0.729319
0.886042
0.82389
0.863909
0.890462
0.86805
0.823301
0.82349
0.864239
0.865097
0.8295
0.762729
0.826258
0.896312
0.851685
0.804678
0.836789
0.900762
0.803013
0.905361
0.85406
0.866587
0.868883
0.814664
0.814691
0.861527
0.865626
0.816672
0.86279
0.83508
0.908825
0.843114
0.825219
0.80832
0.871699
0.827872
0.856508
0.824178
0.819761
0.830064
0.866157
0.871857
0.863418
0.869088
0.850146
0.832377
0.802528
0.767744
0.862038
0.867022
0.817797
0.862579
0.737109
0.888447
0.803685
0.818405
0.863982
0.863135
0.811379
0.861866
0.806727
0.806828
0.823513
0.861487
0.826899
0.837889
0.870197
0.861776
0.852258
0.806884
0.856429
0.808657
0.832713
0.818495
0.804697
0.804376
0.805343
0.856765
0.819913
0.814883
0.877984
0.849763
0.802235
0.743115
0.830956
0.801396
0.80617
0.758153
0.813006
0.820394
0.814823
0.867305
0.851974
0.863564
0.861468
0.825238
0.820588
0.909239
0.865938
0.819571
0.811805
0.761835
0.825314
0.822127
0.811174
0.864215
0.863474
0.814295
0.820677
0.811658
0.770718
0.871082
0.809394
0.841625
0.812443
0.887631
0.825257
0.815083
0.815281
0.83613
0.826424
0.734026
0.807894
0.880601
0.863547
0.823457
0.7493
0.832007
0.86378
0.861205
0.876877
0.863572
0.81239
0.869688
0.832463
0.731344
0.822688
0.817747
0.82665
0.863096
0.786348
0.864746
0.862985
0.850637
0.764685
0.915545
0.816217
0.838386
0.824889
0.81471
0.823869
0.866433
0.823964
0.80895
0.862942
0.859879
0.813607
0.813584
0.863718
0.824808
0.852911
0.868469
0.853359
0.854101
0.828059
0.861684
0.891889
0.864209
0.836491
0.862545
0.734069
0.818941
0.869708
0.869896
0.898275
0.86095
0.836831
0.731659
0.860361
0.806867
0.862217
0.833363
0.884677
0.861914
0.828013
0.908491
0.810038
0.828716
0.862507
0.860128
0.822235
0.863984
0.76012
0.819291
0.887122
0.851033
0.827685
0.863519
0.862602
0.825111
0.780745
0.862777
0.808399
0.879973
0.867361
0.829545
0.873044
0.847975
0.862116
0.866881
0.825807
0.868025
0.822199
0.870356
0.867804
0.831939
0.861865
0.861413
0.865354
0.866408
0.861363
0.861567
0.880766
0.867542
0.807179
0.843158
0.871101
0.834428
0.83141
0.807021
0.806728
0.861721
0.867879
0.847199
0.861324
0.865901
0.80724
0.860943
0.86129
0.861695
0.811386
0.864467
0.86266
0.828521
0.861248
0.877531
0.826955
0.86051
0.840377
0.733361
0.864028
0.867237
0.86437
0.864822
0.869508
0.8722
0.865386
0.867751
0.785849
0.861719
0.806976
0.865392
0.837457
0.85258
0.869462
0.859978
0.874247
0.871534
0.859944
0.837595
0.838309
0.856667
0.862038
0.865379
0.837123
0.875927
0.861754
0.86546
0.805439
0.861282
0.861969
0.737961
0.767845
0.833499
0.869401
0.809984
0.869189
0.865639
0.858785
0.7892
0.863289
0.79714
0.863898
0.861102
0.862103
0.871909
0.863158
0.820267
0.86132
0.871515
0.859097
0.862006
0.796079
0.842002
0.865712
0.80451
0.805295
0.865111
0.89041
0.861451
0.862575
0.886369
0.870353
0.880047
0.753481
0.873684
0.863622
0.861611
0.866781
0.867988
0.867029
0.793262
0.804762
0.849339
0.807616
0.804639
0.817359
0.812996
0.862634
0.864233
0.810815
0.864279
0.845158
0.862703
0.863965
0.804322
0.867361
0.861413
0.842261
0.823909
0.858725
0.864769
0.751362
0.867903
0.863972
0.861309
0.769954
0.769436
0.729069
0.841151
0.743841
0.869863
0.799113
0.859291
0.861772
0.81149
0.864225
0.865523
0.809301
0.821619
0.867425
0.823712
0.866001
0.8656
0.865538
0.861457
0.8592
0.809741
0.805827
0.85417
0.868148
0.866101
0.802598
0.832432
0.814652
0.865719
0.863036
0.87067
0.866908
0.732858
0.863443
0.867699
0.867637
0.814221
0.832871
0.819768
0.836071
0.862394
0.737249
0.825802
0.805269
0.865133
0.866878
0.866889
0.861461
0.867585
0.863909
0.864522
0.810233
0.864264
0.88495
0.863923
0.822004
0.861626
0.74648
0.768845
0.861739
0.866459
0.80974
0.869929
0.781107
0.805652
0.804969
0.868634
0.738577
0.86691
0.805646
0.865206
0.879422
0.817475
0.869708
0.867176
0.841526
0.863693
0.81098
0.805681
0.863112
0.924137
0.84488
0.866055
0.851171
0.85942
0.882835
0.769594
0.745941
0.868107
0.808241
0.740933
0.866607
0.817893
0.849413