# vtk DataFile Version 1.0
unstructured grid
ascii
DATASET UNSTRUCTURED_GRID
points 7812 float
-1 0 0
-1 1 0
2 0 0
2 1 0
0 0 0
1 0 0
-1 1 0.1
-1 0 0.1
0 0 0.1
1 0 0.1
2 0 0.1
2 1 0.1
-0.99 0 0
-0.98 0 0
-0.97 0 0
-0.96 0 0
-0.95 0 0
-0.94 0 0
-0.93 0 0
-0.92 0 0
-0.91 0 0
-0.9 0 0
-0.89 0 0
-0.88 0 0
-0.87 0 0
-0.86 0 0
-0.85 0 0
-0.84 0 0
-0.83 0 0
-0.82 0 0
-0.81 0 0
-0.8 0 0
-0.79 0 0
-0.78 0 0
-0.77 0 0
-0.76 0 0
-0.75 0 0
-0.74 0 0
-0.73 0 0
-0.72 0 0
-0.71 0 0
-0.7 0 0
-0.69 0 0
-0.68 0 0
-0.67 0 0
-0.66 0 0
-0.65 0 0
-0.64 0 0
-0.63 0 0
-0.62 0 0
-0.61 0 0
-0.6 0 0
-0.59 0 0
-0.58 0 0
-0.57 0 0
-0.56 0 0
-0.55 0 0
-0.54 0 0
-0.53 0 0
-0.52 0 0
-0.51 0 0
-0.5 0 0
-0.49 0 0
-0.48 0 0
-0.47 0 0
-0.46 0 0
-0.45 0 0
-0.44 0 0
-0.43 0 0
-0.42 0 0
-0.41 0 0
-0.4 0 0
-0.39 0 0
-0.38 0 0
-0.37 0 0
-0.36 0 0
-0.35 0 0
-0.34 0 0
-0.33 0 0
-0.32 0 0
-0.31 0 0
-0.3 0 0
-0.29 0 0
-0.28 0 0
-0.27 0 0
-0.26 0 0
-0.25 0 0
-0.24 0 0
-0.23 0 0
-0.22 0 0
-0.21 0 0
-0.2 0 0
-0.19 0 0
-0.18 0 0
-0.17 0 0
-0.16 0 0
-0.15 0 0
-0.14 0 0
-0.13 0 0
-0.12 0 0
-0.11 0 0
-0.1 0 0
-0.09 0 0
-0.08 0 0
-0.07 0 0
-0.06 0 0
-0.05 0 0
-0.04 0 0
-0.03 0 0
-0.02 0 0
-0.01 0 0
1.01 0 0
1.02 0 0
1.03 0 0
1.04 0 0
1.05 0 0
1.06 0 0
1.07 0 0
1.08 0 0
1.09 0 0
1.1 0 0
1.11 0 0
1.12 0 0
1.13 0 0
1.14 0 0
1.15 0 0
1.16 0 0
1.17 0 0
1.18 0 0
1.19 0 0
1.2 0 0
1.21 0 0
1.22 0 0
1.23 0 0
1.24 0 0
1.25 0 0
1.26 0 0
1.27 0 0
1.28 0 0
1.29 0 0
1.3 0 0
1.31 0 0
1.32 0 0
1.33 0 0
1.34 0 0
1.35 0 0
1.36 0 0
1.37 0 0
1.38 0 0
1.39 0 0
1.4 0 0
1.41 0 0
1.42 0 0
1.43 0 0
1.44 0 0
1.45 0 0
1.46 0 0
1.47 0 0
1.48 0 0
1.49 0 0
1.5 0 0
1.51 0 0
1.52 0 0
1.53 0 0
1.54 0 0
1.55 0 0
1.56 0 0
1.57 0 0
1.58 0 0
1.59 0 0
1.6 0 0
1.61 0 0
1.62 0 0
1.63 0 0
1.64 0 0
1.65 0 0
1.66 0 0
1.67 0 0
1.68 0 0
1.69 0 0
1.7 0 0
1.71 0 0
1.72 0 0
1.73 0 0
1.74 0 0
1.75 0 0
1.76 0 0
1.77 0 0
1.78 0 0
1.79 0 0
1.8 0 0
1.81 0 0
1.82 0 0
1.83 0 0
1.84 0 0
1.85 0 0
1.86 0 0
1.87 0 0
1.88 0 0
1.89 0 0
1.9 0 0
1.91 0 0
1.92 0 0
1.93 0 0
1.94 0 0
1.95 0 0
1.96 0 0
1.97 0 0
1.98 0 0
1.99 0 0
2 0.010289 0
2 0.0215307 0
2 0.0338135 0
2 0.0472336 0
2 0.0618965 0
2 0.0779171 0
2 0.0954213 0
2 0.114546 0
2 0.135442 0
2 0.158274 0
2 0.183219 0
2 0.210474 0
2 0.240253 0
2 0.27279 0
2 0.308339 0
2 0.347181 0
2 0.389619 0
2 0.435987 0
2 0.486649 0
2 0.542002 0
2 0.602481 0
2 0.66856 0
2 0.740758 0
2 0.819642 0
2 0.90583 0
1.9 1 0
1.8 1 0
1.7 1 0
1.6 1 0
1.5 1 0
1.4 1 0
1.3 1 0
1.2 1 0
1.1 1 0
1 1 0
0.9 1 0
0.8 1 0
0.7 1 0
0.6 1 0
0.5 1 0
0.4 1 0
0.3 1 0
0.2 1 0
0.1 1 0
3.69793e-12 1 0
-0.1 1 0
-0.2 1 0
-0.3 1 0
-0.4 1 0
-0.5 1 0
-0.6 1 0
-0.7 1 0
-0.8 1 0
-0.9 1 0
-1 0.90583 0
-1 0.819642 0
-1 0.740758 0
-1 0.66856 0
-1 0.602481 0
-1 0.542002 0
-1 0.486649 0
-1 0.435987 0
-1 0.389619 0
-1 0.347181 0
-1 0.308339 0
-1 0.27279 0
-1 0.240253 0
-1 0.210474 0
-1 0.183219 0
-1 0.158274 0
-1 0.135442 0
-1 0.114546 0
-1 0.0954213 0
-1 0.0779171 0
-1 0.0618965 0
-1 0.0472336 0
-1 0.0338135 0
-1 0.0215307 0
-1 0.010289 0
0.00921362 0.00379763 0
0.0184561 0.00752451 0
0.0277268 0.0111804 0
0.0370253 0.0147652 0
0.0463511 0.0182786 0
0.0557034 0.0217203 0
0.0650819 0.0250903 0
0.074486 0.0283883 0
0.083915 0.0316141 0
0.0933685 0.0347675 0
0.102846 0.0378484 0
0.112347 0.0408565 0
0.12187 0.0437917 0
0.131416 0.0466538 0
0.140983 0.0494427 0
0.150572 0.0521581 0
0.160181 0.0547999 0
0.16981 0.0573681 0
0.179458 0.0598623 0
0.189125 0.0622825 0
0.198811 0.0646285 0
0.208514 0.0669001 0
0.218234 0.0690974 0
0.227971 0.07122 0
0.237724 0.073268 0
0.247493 0.0752411 0
0.257276 0.0771393 0
0.267073 0.0789625 0
0.276884 0.0807105 0
0.286708 0.0823832 0
0.296545 0.0839806 0
0.306394 0.0855025 0
0.316254 0.0869488 0
0.326125 0.0883196 0
0.336006 0.0896146 0
0.345896 0.0908339 0
0.355796 0.0919773 0
0.365704 0.0930447 0
0.375621 0.0940362 0
0.385544 0.0949517 0
0.395474 0.095791 0
0.40541 0.0965542 0
0.415352 0.0972412 0
0.425299 0.097852 0
0.43525 0.0983865 0
0.445205 0.0988447 0
0.455164 0.0992266 0
0.465125 0.0995321 0
0.475088 0.0997613 0
0.485052 0.0999141 0
0.495017 0.0999904 0
0.504983 0.0999904 0
0.514948 0.0999141 0
0.524912 0.0997613 0
0.534875 0.0995321 0
0.544836 0.0992266 0
0.554795 0.0988447 0
0.56475 0.0983865 0
0.574701 0.097852 0
0.584648 0.0972412 0
0.59459 0.0965542 0
0.604526 0.095791 0
0.614456 0.0949517 0
0.624379 0.0940362 0
0.634296 0.0930447 0
0.644204 0.0919773 0
0.654104 0.0908339 0
0.663994 0.0896146 0
0.673875 0.0883196 0
0.683746 0.0869488 0
0.693606 0.0855025 0
0.703455 0.0839806 0
0.713292 0.0823832 0
0.723116 0.0807105 0
0.732927 0.0789625 0
0.742724 0.0771393 0
0.752508 0.0752411 0
0.762276 0.073268 0
0.772029 0.07122 0
0.781766 0.0690974 0
0.791486 0.0669001 0
0.801189 0.0646285 0
0.810875 0.0622825 0
0.820542 0.0598623 0
0.83019 0.0573681 0
0.839819 0.0547999 0
0.849428 0.0521581 0
0.859017 0.0494427 0
0.868584 0.0466538 0
0.87813 0.0437917 0
0.887653 0.0408565 0
0.897154 0.0378484 0
0.906631 0.0347675 0
0.916085 0.0316141 0
0.925514 0.0283883 0
0.934918 0.0250903 0
0.944297 0.0217203 0
0.953649 0.0182786 0
0.962975 0.0147652 0
0.972273 0.0111804 0
0.981544 0.00752451 0
0.990786 0.00379763 0
-1 0.90583 0.1
-1 0.819642 0.1
-1 0.740758 0.1
-1 0.66856 0.1
-1 0.602481 0.1
-1 0.542002 0.1
-1 0.486649 0.1
-1 0.435987 0.1
-1 0.389619 0.1
-1 0.347181 0.1
-1 0.308339 0.1
-1 0.27279 0.1
-1 0.240253 0.1
-1 0.210474 0.1
-1 0.183219 0.1
-1 0.158274 0.1
-1 0.135442 0.1
-1 0.114546 0.1
-1 0.0954213 0.1
-1 0.0779171 0.1
-1 0.0618965 0.1
-1 0.0472336 0.1
-1 0.0338135 0.1
-1 0.0215307 0.1
-1 0.010289 0.1
-0.99 0 0.1
-0.98 0 0.1
-0.97 0 0.1
-0.96 0 0.1
-0.95 0 0.1
-0.94 0 0.1
-0.93 0 0.1
-0.92 0 0.1
-0.91 0 0.1
-0.9 0 0.1
-0.89 0 0.1
-0.88 0 0.1
-0.87 0 0.1
-0.86 0 0.1
-0.85 0 0.1
-0.84 0 0.1
-0.83 0 0.1
-0.82 0 0.1
-0.81 0 0.1
-0.8 0 0.1
-0.79 0 0.1
-0.78 0 0.1
-0.77 0 0.1
-0.76 0 0.1
-0.75 0 0.1
-0.74 0 0.1
-0.73 0 0.1
-0.72 0 0.1
-0.71 0 0.1
-0.7 0 0.1
-0.69 0 0.1
-0.68 0 0.1
-0.67 0 0.1
-0.66 0 0.1
-0.65 0 0.1
-0.64 0 0.1
-0.63 0 0.1
-0.62 0 0.1
-0.61 0 0.1
-0.6 0 0.1
-0.59 0 0.1
-0.58 0 0.1
-0.57 0 0.1
-0.56 0 0.1
-0.55 0 0.1
-0.54 0 0.1
-0.53 0 0.1
-0.52 0 0.1
-0.51 0 0.1
-0.5 0 0.1
-0.49 0 0.1
-0.48 0 0.1
-0.47 0 0.1
-0.46 0 0.1
-0.45 0 0.1
-0.44 0 0.1
-0.43 0 0.1
-0.42 0 0.1
-0.41 0 0.1
-0.4 0 0.1
-0.39 0 0.1
-0.38 0 0.1
-0.37 0 0.1
-0.36 0 0.1
-0.35 0 0.1
-0.34 0 0.1
-0.33 0 0.1
-0.32 0 0.1
-0.31 0 0.1
-0.3 0 0.1
-0.29 0 0.1
-0.28 0 0.1
-0.27 0 0.1
-0.26 0 0.1
-0.25 0 0.1
-0.24 0 0.1
-0.23 0 0.1
-0.22 0 0.1
-0.21 0 0.1
-0.2 0 0.1
-0.19 0 0.1
-0.18 0 0.1
-0.17 0 0.1
-0.16 0 0.1
-0.15 0 0.1
-0.14 0 0.1
-0.13 0 0.1
-0.12 0 0.1
-0.11 0 0.1
-0.1 0 0.1
-0.09 0 0.1
-0.08 0 0.1
-0.07 0 0.1
-0.06 0 0.1
-0.05 0 0.1
-0.04 0 0.1
-0.03 0 0.1
-0.02 0 0.1
-0.01 0 0.1
0.00921362 0.00379763 0.1
0.0184561 0.00752451 0.1
0.0277268 0.0111804 0.1
0.0370253 0.0147652 0.1
0.0463511 0.0182786 0.1
0.0557034 0.0217203 0.1
0.0650819 0.0250903 0.1
0.074486 0.0283883 0.1
0.083915 0.0316141 0.1
0.0933685 0.0347675 0.1
0.102846 0.0378484 0.1
0.112347 0.0408565 0.1
0.12187 0.0437917 0.1
0.131416 0.0466538 0.1
0.140983 0.0494427 0.1
0.150572 0.0521581 0.1
0.160181 0.0547999 0.1
0.16981 0.0573681 0.1
0.179458 0.0598623 0.1
0.189125 0.0622825 0.1
0.198811 0.0646285 0.1
0.208514 0.0669001 0.1
0.218234 0.0690974 0.1
0.227971 0.07122 0.1
0.237724 0.073268 0.1
0.247493 0.0752411 0.1
0.257276 0.0771393 0.1
0.267073 0.0789625 0.1
0.276884 0.0807105 0.1
0.286708 0.0823832 0.1
0.296545 0.0839806 0.1
0.306394 0.0855025 0.1
0.316254 0.0869488 0.1
0.326125 0.0883196 0.1
0.336006 0.0896146 0.1
0.345896 0.0908339 0.1
0.355796 0.0919773 0.1
0.365704 0.0930447 0.1
0.375621 0.0940362 0.1
0.385544 0.0949517 0.1
0.395474 0.095791 0.1
0.40541 0.0965542 0.1
0.415352 0.0972412 0.1
0.425299 0.097852 0.1
0.43525 0.0983865 0.1
0.445205 0.0988447 0.1
0.455164 0.0992266 0.1
0.465125 0.0995321 0.1
0.475088 0.0997613 0.1
0.485052 0.0999141 0.1
0.495017 0.0999904 0.1
0.504983 0.0999904 0.1
0.514948 0.0999141 0.1
0.524912 0.0997613 0.1
0.534875 0.0995321 0.1
0.544836 0.0992266 0.1
0.554795 0.0988447 0.1
0.56475 0.0983865 0.1
0.574701 0.097852 0.1
0.584648 0.0972412 0.1
0.59459 0.0965542 0.1
0.604526 0.095791 0.1
0.614456 0.0949517 0.1
0.624379 0.0940362 0.1
0.634296 0.0930447 0.1
0.644204 0.0919773 0.1
0.654104 0.0908339 0.1
0.663994 0.0896146 0.1
0.673875 0.0883196 0.1
0.683746 0.0869488 0.1
0.693606 0.0855025 0.1
0.703455 0.0839806 0.1
0.713292 0.0823832 0.1
0.723116 0.0807105 0.1
0.732927 0.0789625 0.1
0.742724 0.0771393 0.1
0.752508 0.0752411 0.1
0.762276 0.073268 0.1
0.772029 0.07122 0.1
0.781766 0.0690974 0.1
0.791486 0.0669001 0.1
0.801189 0.0646285 0.1
0.810875 0.0622825 0.1
0.820542 0.0598623 0.1
0.83019 0.0573681 0.1
0.839819 0.0547999 0.1
0.849428 0.0521581 0.1
0.859017 0.0494427 0.1
0.868584 0.0466538 0.1
0.87813 0.0437917 0.1
0.887653 0.0408565 0.1
0.897154 0.0378484 0.1
0.906631 0.0347675 0.1
0.916085 0.0316141 0.1
0.925514 0.0283883 0.1
0.934918 0.0250903 0.1
0.944297 0.0217203 0.1
0.953649 0.0182786 0.1
0.962975 0.0147652 0.1
0.972273 0.0111804 0.1
0.981544 0.00752451 0.1
0.990786 0.00379763 0.1
1.01 0 0.1
1.02 0 0.1
1.03 0 0.1
1.04 0 0.1
1.05 0 0.1
1.06 0 0.1
1.07 0 0.1
1.08 0 0.1
1.09 0 0.1
1.1 0 0.1
1.11 0 0.1
1.12 0 0.1
1.13 0 0.1
1.14 0 0.1
1.15 0 0.1
1.16 0 0.1
1.17 0 0.1
1.18 0 0.1
1.19 0 0.1
1.2 0 0.1
1.21 0 0.1
1.22 0 0.1
1.23 0 0.1
1.24 0 0.1
1.25 0 0.1
1.26 0 0.1
1.27 0 0.1
1.28 0 0.1
1.29 0 0.1
1.3 0 0.1
1.31 0 0.1
1.32 0 0.1
1.33 0 0.1
1.34 0 0.1
1.35 0 0.1
1.36 0 0.1
1.37 0 0.1
1.38 0 0.1
1.39 0 0.1
1.4 0 0.1
1.41 0 0.1
1.42 0 0.1
1.43 0 0.1
1.44 0 0.1
1.45 0 0.1
1.46 0 0.1
1.47 0 0.1
1.48 0 0.1
1.49 0 0.1
1.5 0 0.1
1.51 0 0.1
1.52 0 0.1
1.53 0 0.1
1.54 0 0.1
1.55 0 0.1
1.56 0 0.1
1.57 0 0.1
1.58 0 0.1
1.59 0 0.1
1.6 0 0.1
1.61 0 0.1
1.62 0 0.1
1.63 0 0.1
1.64 0 0.1
1.65 0 0.1
1.66 0 0.1
1.67 0 0.1
1.68 0 0.1
1.69 0 0.1
1.7 0 0.1
1.71 0 0.1
1.72 0 0.1
1.73 0 0.1
1.74 0 0.1
1.75 0 0.1
1.76 0 0.1
1.77 0 0.1
1.78 0 0.1
1.79 0 0.1
1.8 0 0.1
1.81 0 0.1
1.82 0 0.1
1.83 0 0.1
1.84 0 0.1
1.85 0 0.1
1.86 0 0.1
1.87 0 0.1
1.88 0 0.1
[...]
CELL_DATA 7425
SCALARS rho float
LOOKUP_TABLE default
0.587462
0.805049
0.819622
0.827576
0.799504
0.819217
0.820961
0.814215
0.813076
0.738726
0.863515
0.810061
0.813979
0.827433
0.803786
0.817224
0.798832
0.813355
0.80348
0.767309
0.831328
0.822071
0.724886
0.828106
0.803886
0.703286
0.831259
0.848388
0.800179
0.80798
0.819419
0.725394
0.803626
0.652336
0.519828
0.828072
0.803516
0.814192
0.811171
0.82806
0.716196
0.703586
0.790039
0.701643
0.586828
0.748293
0.799377
0.813914
0.662398
0.719182
0.746335
0.805166
0.812376
0.799155
0.709584
0.640653
0.822976
0.800148
0.738597
0.70105
0.70981
0.807673
0.813325
0.799456
0.798789
0.817679
0.584643
0.773354
0.704342
0.807902
0.804232
0.803209
0.883419
0.821144
0.810868
0.813136
0.805062
0.800453
0.813331
0.757806
0.816054
0.807253
0.810374
0.78875
0.835942
0.801164
0.574722
0.830007
0.542925
0.848518
0.705967
0.729839
0.845349
0.803188
0.817469
0.758351
0.836107
0.788053
0.825687
0.802555
0.808168
0.738641
0.803296
0.828292
0.597472
0.811097
0.824429
0.707632
0.815074
0.799248
0.81678
0.784584
0.789869
0.812446
0.789772
0.786352
0.831308
0.803111
0.699744
0.632353
0.805061
0.777334
0.813041
0.790435
0.85897
0.838949
0.80771
0.804326
0.661373
0.504647
0.814554
0.655292
0.515674
0.867834
0.66281
0.799598
0.811122
0.723676
0.582283
0.725036
0.72346
0.809663
0.809732
0.707077
0.803201
0.779646
0.565743
0.788596
0.782548
0.827825
0.816814
0.704425
0.802976
0.74431
0.704978
0.803286
0.810462
0.830464
0.797619
0.652558
0.802539
0.702919
0.801171
0.829798
0.820523
0.802388
0.813157
0.784877
0.806294
0.800725
0.819776
0.804558
0.79126
0.79921
0.799939
0.740293
0.803768
0.758855
0.594469
0.705443
0.799756
0.792776
0.879814
0.831891
0.62245
0.822989
0.798718
0.827414
0.799947
0.813493
0.812707
0.803204
0.80696
0.704342
0.815089
0.819321
0.77015
0.797208
0.861268
0.807784
0.81187
0.811261
0.613101
0.839003
0.573307
0.532306
0.595731
0.601166
0.828209
0.879349
0.80754
0.798668
0.841413
0.813065
0.816753
0.820831
0.81528
0.638196
0.5508
0.813812
0.545986
0.592916
0.703191
0.811772
0.814146
0.813136
0.833184
0.81301
0.864334
0.709661
0.835267
0.712951
0.805187
0.803933
0.801985
0.71405
0.720681
0.619696
0.70509
0.863648
0.87554
0.806317
0.807711
0.798933
0.811578
0.716128
0.821671
0.800271
0.825751
0.794648
0.809943
0.721373
0.81291
0.823797
0.739961
0.528884
0.799922
0.736394
0.843343
0.814424
0.726506
0.815653
0.81492
0.849978
0.809597
0.803955
0.803263
0.825711
0.860791
0.805517
0.619449
0.848923
0.812071
0.805616
0.827597
0.837372
0.81308
0.821492
0.793529
0.815151
0.86674
0.849973
0.827395
0.836786
0.802697
0.817232
0.803197
0.759756
0.701514
0.581171
0.700533
0.802412
0.812987
0.816061
0.85482
0.779696
0.645929
0.827137
0.52139
0.77435
0.801045
0.64659
0.4965
0.639289
0.815275
0.813327
0.813064
0.812809
0.826772
0.774463
0.811493
0.802679
0.813007
0.840754
0.867234
0.833605
0.80277
0.705395
0.795954
0.834321
0.691738
0.798825
0.802068
0.864809
0.817172
0.59329
0.813481
0.740681
0.852408
0.732138
0.810197
0.907664
0.799949
0.795716
0.659147
0.635762
0.711428
0.78068
0.826596
0.815013
0.813779
0.882574
0.858292
0.799617
0.799216
0.826054
0.739356
0.802548
0.879406
0.80139
0.804784
0.800775
0.802579
0.813058
0.815797
0.816446
0.636485
0.830047
0.64605
0.80851
0.639598
0.802687
0.802253
0.840298
0.72891
0.816366
0.808644
0.817052
0.79957
0.802506
0.811276
0.697185
0.824493
0.813154
0.81302
0.800691
0.736842
0.560231
0.806428
0.811116
0.803198
0.812994
0.794794
0.504357
0.846082
0.813405
0.80386
0.785787
0.813354
0.804724
0.803089
0.816312
0.807525
0.82257
0.768675
0.812704
0.807789
0.562964
0.803198
0.6403
0.838791
0.636424
0.814776
0.877921
0.593803
0.818116
0.749051
0.804427
0.873362
0.534252
0.823181
0.822321
0.803507
0.825795
0.811102
0.823518
0.830689
0.824893
0.739883
0.827576
0.761655
0.810267
0.794265
0.79369
0.758679
0.805618
0.802095
0.814536
0.752382
0.804746
0.604685
0.614466
0.689362
0.812904
0.844236
0.864866
0.829926
0.798664
0.812744
0.804935
0.818578
0.680671
0.80105
0.743048
0.824094
0.814874
0.80548
0.711441
0.72736
0.534097
0.605827
0.801359
0.611592
0.79266
0.765415
0.770112
0.726972
0.762547
0.767624
0.809527
0.815011
0.819618
0.811563
0.710738
0.602921
0.839074
0.807005
0.783185
0.809921
0.802602
0.836605
0.71847
0.855319
0.763712
0.728597
0.764618
0.811588
0.54542
0.798907
0.841659
0.813352
0.813872
0.809804
0.79925
0.780395
0.835739
0.803118
0.843016
0.721192
0.707252
0.800389
0.795216
0.822083
0.708902
0.848
0.800509
0.816127
0.798808
0.779217
0.80835
0.594869
0.6776
0.632604
0.81302
0.803867
0.826411
0.74934
0.810612
0.81488
0.820459
0.799059
0.729562
0.79696
0.814385
0.803208
0.703585
0.813681
0.818974
0.840069
0.810876
0.825396
0.862319
0.857302
0.744076
0.603656
0.838067
0.805857
0.843415
0.814312
0.822961
0.813613
0.813891
0.635823
0.805274
0.809374
0.812926
0.791964
0.810642
0.804842
0.860669
0.798746
0.81284
0.814796
0.871947
0.597881
0.81355
0.842544
0.883336
0.530883
0.81648
0.830015
0.796166
0.814769
0.795018
0.867626
0.812256
0.831403
0.812804
0.619577
0.802417
0.804163
0.691199
0.85317
0.759754
0.801833
0.814064
0.81281
0.859849
0.795376
0.833656
0.834772
0.784389
0.825228
0.842473
0.799825
0.81058
0.807045
0.805331
0.814916
0.802644
0.845264
0.769307
0.8098
0.803184
0.815269
0.723301
0.812998
0.818427
0.752691
0.813677
0.816413
0.827664
0.825177
0.800797
0.800717
0.850532
0.767913
0.825226
0.844248
0.804572
0.506265
0.812999
0.828337
0.852418
0.812726
0.803156
0.808555
0.855078
0.780084
0.802598
0.801305
0.81304
0.727417
0.802782
0.830051
0.808105
0.795
0.793603
0.843244
0.806623
0.845353
0.80203
0.824314
0.812857
0.804232
0.841889
0.812968
0.679732
0.818852
0.807117
0.812929
0.906155
0.800861
0.81596
0.800535
0.800462
0.816284
0.800566
0.803379
0.78373
0.747389
0.806591
0.813002
0.758116
0.791493
0.823088
0.813036
0.822325
0.806362
0.825836
0.875328
0.830706
0.575492
0.70893
0.840802
0.817366
0.8442
0.814846
0.85014
0.807427
0.812456
0.799432
0.838457
0.860966
0.852831
0.731689
0.814179
0.822242
0.743906
0.817201
0.776004
0.800281
0.733222
0.816147
0.830923
0.823496
0.862002
0.814304
0.813397
0.810276
0.81473
0.835839
0.812221
0.798749
0.810251
0.737713
0.811453
0.774165
0.83289
0.81286
0.638994
0.777684
0.811228
0.799265
0.8199
0.802563
0.814762
0.817378
0.804519
0.819471
0.804178
0.805944
0.597733
0.847087
0.825195
0.826766
0.815015
0.803234
0.701982
0.806572
0.907846
0.813679
0.801126
0.812982
0.782327
0.807351
0.813377
0.821358
0.814661
0.813328
0.816322
0.7011
0.777943
0.764703
0.812764
0.80537
0.801121
0.621559
0.805807
0.802715
0.708387
0.837269
0.817279
0.802259
0.807538
0.799475
0.817328
0.813995
0.813389
0.812987
0.709807
0.831747
0.800306
0.807507
0.842888
0.817713
0.816376
0.800257
0.753704
0.823898
0.787508
0.821505
0.789451
0.805734
0.821025
0.737561
0.817472
0.651228
0.872057
0.704486
0.845052
0.800894
0.875182
0.793786
0.80172
0.820745
0.836302
0.838448
0.82553
0.819903
0.814795
0.801212
0.804205
0.808282
0.726042
0.827274
0.8001
0.719576
0.830587
0.704933
0.800096
0.860548
0.805601
0.701867
0.797875
0.814181
0.704736
0.785664
0.819459
0.831906
0.807056
0.575731
0.728914
0.81241
0.801423
0.813035
0.80075
0.737331
0.814107
0.815804
0.812601
0.77544
0.803276
0.804512
0.803671
0.560731
0.812824
0.834141
0.580264
0.815254
0.816188
0.814788
0.818439
0.814513
0.824605
0.799175
0.795146
0.771022
0.822933
0.829699
0.82514
0.834991
0.765448
0.809102
0.724704
0.772411
0.808893
0.821146
0.813386
0.800986
0.858448
0.813038
0.800425
0.809696
0.816179
0.815277
0.836684
0.814587
0.812915
0.811998
0.813916
0.800238
0.821067
0.803786
0.8229
0.813568
0.57598
0.813614
0.834519
0.858224
0.838227
0.491468
0.816891
0.804592
0.497172
0.669702
0.643886
0.834348
0.808038
0.811668
0.812904
0.803211
0.816832
0.811005
0.534985
0.686833
0.81827
0.806642
0.815701
0.803521
0.810263
0.811015
0.820309
0.799589
0.692676
0.856072
0.803157
0.81474
0.81372
0.757867
0.48642
0.832951
0.813595
0.741919
0.802709
0.806297
0.591503
0.82758
0.81487
0.827784
0.818859
0.82608
0.804746
0.719747
0.643737
0.562352
0.825383
0.808614
0.782972
0.813079
0.779892
0.81797
0.873339
0.762453
0.821682
0.813619
0.825902
0.883587
0.814534
0.811937
0.803284
0.813883
0.691969
0.828271
0.799951
0.810261
0.802233
0.784287
0.854202
0.822111
0.840522
0.821596
0.757572
0.755975
0.803404
0.818178
0.803072
0.80526
0.802608
0.775753
0.814774
0.761686
0.821249
0.662233
0.814067
0.80298
0.735594
0.823301
0.818043
0.740092
0.801183
0.757313
0.880835
0.800735
0.812952
0.76278
0.80018
0.814366
0.803963
0.590128
0.820995
0.798726
0.801438
0.814618
0.825674
0.757252
0.805614
0.841746
0.827037
0.814135
0.835892
0.700047
0.700281
0.813035
0.744259
0.822289
0.771449
0.812944
0.802537
0.810461
0.752052
0.794221
0.764435
0.809985
0.80315
0.631373
0.779084
0.799252
0.849135
0.814461
0.828712
0.526952
0.825363
0.785199
0.858773
0.800955
0.818027
0.800375
0.785864
0.798832
0.825771
0.835805
0.821818
0.817198
0.706792
0.773928
0.815435
0.805395
0.810085
0.803921
0.706469
0.7929
0.803521
0.810746
0.827264
0.851244
0.831909
0.813565
0.799517
0.804301
0.802087
0.779688
0.611839
0.800413
0.731474
0.662092
0.822871
0.798926
0.777269
0.800057
0.754252
0.785331
0.811568
0.82227
0.803414
0.816091
0.817416
0.820709
0.81349
0.808538
0.712267
0.699532
0.641074
0.829339
0.869597
0.815415
0.841408
0.847879
0.863766
0.735905
0.816654
0.863043
0.810266
0.812983
0.816255
0.73293
0.81251
0.806749
0.806284
0.51773
0.813072
0.76126
0.813259
0.813806
0.803553
0.705339
0.813298
0.610833
0.825079
0.802346
0.822286
0.855203
0.803443
0.795395
0.821005
0.811673
0.805746
0.762331
0.510417
0.820967
0.803101
0.829023
0.825825
0.802189
0.80704
0.834512
0.720979
0.501016
0.886282
0.800661
0.815774
0.804335
0.710315
0.798715
0.800085
0.815151
0.736285
0.646674
0.883269
0.714291
0.836601
0.812082
0.832944
0.842709
0.792267
0.804758
0.81369
0.852813
0.738414
0.870728
0.814109
0.563075
0.802545
0.748877
0.852952
0.760406
0.80423
0.803965
0.799704
0.801623
0.808974
0.813016
0.855688
0.806071
0.802873
0.80132
0.800078
0.81235
0.816953
0.802626
0.812594
0.849249
0.803103
0.783527
0.802251
0.839704
0.725288
0.813724
0.813918
0.640079
0.713239
0.805566
0.823086
0.803644
0.51224
0.856461
0.813303
0.833102
0.805319
0.803322
0.801369
0.786324
0.587385
0.804313
0.816183
0.836021
0.820636
0.813056
0.798249
0.747104
0.801587
0.765905
0.78757
0.799411
0.790991
0.751123
0.800906
0.811549
0.810465
0.832244
0.849199
0.553619
0.84195
0.812953
0.820867
0.802063
0.822684
0.811185
0.894631
0.800294
0.867252
0.805704
0.759879
0.862151
0.802292
0.800256
0.82422
0.660568
0.645458
0.803406
0.803869
0.704276
0.654469
0.799913
0.823916
0.813133
0.822655
0.733123
0.817241
0.812942
0.826194
0.817014
0.811959
0.812973
0.754671
0.803974
0.815759
0.811439
0.676365
0.566714
0.81301
0.650162
0.722032
0.555414
0.841443
0.800194
0.527522
0.600989
0.827559
0.908077
0.818221
0.652485
0.814248
0.786508
0.801781
0.786458
0.820743
0.810175
0.788317
0.82112
0.801089
0.587948
0.8179
0.766763
0.816008
0.700637
0.822287
0.789716
0.814041
0.800129
0.663034
0.843548
0.806608
0.806699
0.494181
0.816911
0.800448
0.852289
0.711218
0.817164
0.584656
0.719199
0.801464
0.796732
0.732959
0.715715
0.715764
0.507567
0.590796
0.80007
0.518098
0.822666
0.521076
0.757276
0.671562
0.600259
0.541122
0.745525
0.803088
0.714912
0.821365
0.800983
0.80299
0.761276
0.889697
0.799126
0.824544
0.803445
0.812896
0.706083
0.807644
0.736797
0.821978
0.886059
0.833619
0.74782
0.822854
0.770575
0.879922
0.804208
0.758747
0.850725
0.776941
0.799939
0.805377
0.758316
0.744791
0.66614
0.804998
0.80303
0.81798
0.833542
0.611664
0.808
0.538527
0.66874
0.616849
0.818607
0.82111
0.809089
0.803988
0.615864
0.872482
0.802685
0.802951
0.863549
0.812533
0.772092
0.81227
0.802378
0.817978
0.80315
0.717155
0.803422
0.655785
0.799079
0.804166
0.801571
0.639324
0.811587
0.810359
0.725676
0.817886
0.549484
0.576964
0.804159
0.696611
0.726046
0.572351
0.72378
0.813716
0.707101
0.773031
0.716567
0.812852
0.670356
0.762189
0.806489
0.810693
0.654754
0.801966
0.895172
0.796725
0.816875
0.585624
0.693952
0.801017
0.813049
0.814099
0.851691
0.812744
0.804271
0.803742
0.803348
0.713937
0.717479
0.615841
0.771567
0.533389
0.723771
0.81001
0.814494
0.806209
0.799346
0.538148
0.809154
0.803769
0.554339
0.543778
0.746685
0.803584
0.806248
0.549636
0.798263
0.569871
0.720768
0.608004
0.813587
0.802314
0.597285
0.6085
0.867924
0.810083
0.765489
0.718023
0.622108
0.655485
0.7094
0.816089
0.759856
0.76549
0.624214
0.75397
0.809396
0.815448
0.81256
0.815555
0.865762
0.7548
0.819002
0.803352
0.851316
0.812965
0.802784
0.813176
0.722364
0.813024
0.812069
0.815261
0.811232
0.815968
0.80328
0.817998
0.810468
0.809822
0.817339
0.800127
0.816668
0.819023
0.667626
0.81868
0.868443
0.81824
0.792953
0.646073
0.858614
0.81886
0.824948
0.799619
0.811317
0.757495
0.852583
0.560311
0.726888
0.809877
0.815747
0.803886
0.803371
0.832101
0.805103
0.805251
0.815345
0.780781
0.838599
0.841988
0.815268
0.664471
0.613118
0.815846
0.816695
0.788394
0.849667
0.847294
0.810935
0.813704
0.777836
0.814172
0.817904
0.814197
0.818847
0.813178
0.815903
0.85108
0.816048
0.814579
0.817628
0.817839
0.784931
0.814195
0.804127
0.804213
0.804682
0.81864
0.811586
0.788418
0.753925
0.812763
0.80629
0.808867
0.80639
0.857797
0.803404
0.814078
0.812793
0.805244
0.578583
0.8039
0.812838
0.8151
0.81033
0.812882
0.81339
0.813119
0.810191
0.864416
0.502095
0.812913
0.8417
0.812746
0.802982
0.808443
0.81508
0.839722
0.800519
0.801297
0.812656
0.705194
0.812931
0.808276
0.807434
0.812645
0.812978
0.81312
0.813449
0.512343
0.81189
0.716078
0.88586
0.821116
0.733307
0.672229
0.815441
0.80358
0.818786
0.646656
0.801695
0.813421
0.648138
0.799927
0.804116
0.81552
0.806323
0.856772
0.809862
0.607131
0.800886
0.775162
0.811232
0.889089
0.803343
0.815529
0.819365
0.832239
0.813486
0.82246
0.836384
0.635139
0.802693
0.655936
0.81383
0.813731
0.712356
0.813617
0.804887
0.713003
0.814983
0.701598
0.861103
0.784152
0.814377
0.812987
0.813513
0.668099
0.813738
0.633447
0.800254
0.792395
0.822353
0.815257
0.716201
0.766699
0.830099
0.81284
0.821338
0.821964
0.813523
0.825387
0.799568
0.552361
0.754872
0.759309
0.731281
0.83765
0.82244
0.834372
0.776133
0.80277
0.813119
0.813043
0.813046
0.774695
0.564068
0.803211
0.529056
0.808254
0.824362
0.799774
0.803768
0.813041
0.80603
0.782696
0.732262
0.813472
0.859169
0.81375
0.799358
0.736853
0.809691
0.788751
0.83375
0.504534
0.795997
0.805978
0.798948
0.689653
0.812929
0.810816
0.857201
0.569315
0.80735
0.803277
0.812906
0.612956
0.813175
0.803341
0.803411
0.803035
0.813285
0.813382
0.816172
0.813128
0.71761
0.804515
0.803208
0.813078
0.896175
0.813231
0.774062
0.841213
0.799193
0.80314
0.601549
0.812973
0.803365
0.825742
0.801985
0.866248
0.814876
0.853528
0.800413
0.82069
0.777926
0.558586
0.752818
0.794312
0.804008
0.813948
0.81388
0.555795
0.861804
0.858048
0.768569
0.757689
0.738541
0.812146
0.848501
0.81301
0.813745
0.813045
0.804283
0.726745
0.80351
0.799178
0.764181
0.824309
0.823047
0.861862
0.815714
0.813057
0.525969
0.808899
0.813017
0.800766
0.774038
0.818083
0.803116
0.81296
0.826929
0.798469
0.803633
0.801263
0.815223
0.839149
0.802442
0.79923
0.801571
0.766074
0.819918
0.567341
0.868394
0.8037
0.546037
0.803221
0.803181
0.819641
0.593122
0.606373
0.801612
0.80371
0.800913
0.860749
0.779991
0.814681
0.802945
0.865874
0.804724
0.80446
0.826346
0.815998
0.82018
0.821321
0.820372
0.867495
0.729363
0.852169
0.817252
0.653834
0.802592
0.803193
0.803646
0.821166
0.823546
0.804012
0.801148
0.800118
0.822719
0.803241
0.803618
0.799733
0.824424
0.803981
0.802022
0.806087
0.827899
0.80062
0.801581
0.824344
0.799648
0.815439
0.651434
0.826424
0.849862
0.804905
0.819618
0.803243
0.82878
0.837521
0.803405
0.821517
0.800582
0.807049
0.78957
0.802182
0.803204
0.806366
0.805936
0.804578
0.818589
0.814805
0.811251
0.831438
0.802252
0.802235
0.79997
0.789007
0.833813
0.803159
0.819347
0.815263
0.807135
0.805091
0.802953
0.838929
0.864882
0.799643
0.679078
0.801222
0.842172
0.816642
0.805203
0.804472
0.819718
0.844613
0.602642
0.828845
0.794557
0.850489
0.818773
0.812013
0.813299
0.808299
0.803964
0.81279
0.80877
0.59203
0.848002
0.794639
0.814239
0.854604
0.819321
0.763254
0.808663
0.814508
0.815506
0.802976
0.66185
0.809281
0.863167
0.802626
0.800751
0.7755
0.871227
0.800473
0.877078
0.806727
0.81721
0.820652
0.802303
0.803866
0.812671
0.815931
0.803544
0.813385
0.816787
0.881359
0.82071
0.809305
0.800212
0.828435
0.810489
0.838951
0.808846
0.80695
0.812199
0.816594
0.829932
0.813715
0.822565
0.832541
0.814241
0.699979
0.691313
0.813108
0.817787
0.803887
0.813182
0.514678
0.854885
0.799821
0.806233
0.813984
0.813539
0.80397
0.812539
0.800536
0.801253
0.808083
0.814764
0.756999
0.784697
0.822975
0.842792
0.834831
0.800324
0.805128
0.803361
0.812921
0.80574
0.799592
0.799854
0.80105
0.810936
0.797825
0.802821
0.835517
0.831411
0.730032
0.675222
0.807591
0.698949
0.79957
0.573088
0.80442
0.806961
0.803169
0.818204
0.833863
0.813978
0.812923
0.810275
0.803857
0.881529
0.816311
0.804877
0.772303
0.58664
0.810245
0.806695
0.769415
0.814466
0.813928
0.791489
0.800718
0.804041
0.625922
0.830462
0.803509
0.781576
0.779345
0.852724
0.809994
0.802953
0.80268
0.81027
0.811073
0.519238
0.801822
0.839513
0.813978
0.798589
0.589069
0.814572
0.814121
0.813015
0.833754
0.813969
0.803948
0.821926
0.805667
0.576024
0.808648
0.736681
0.798514
0.813688
0.722297
0.814973
0.846098
0.831622
0.664642
0.890907
0.785614
0.777497
0.796886
0.779534
0.808655
0.850078
0.808045
0.802886
0.813602
0.808913
0.782645
0.785953
0.81393
0.808391
0.834852
0.8213
0.835689
0.801341
0.799714
0.813107
0.856628
0.816489
0.818406
0.813401
0.607531
0.79554
0.823915
0.829359
0.86591
0.812667
0.818962
0.509275
0.809796
0.800651
0.812662
0.814805
0.847599
0.813109
0.811093
0.881505
0.764616
0.812566
0.81329
0.809072
0.80522
0.814275
0.65606
0.800511
0.849545
0.833518
0.810654
0.813596
0.81342
0.80957
0.699312
0.812534
0.800242
0.838588
0.818508
0.811671
0.83134
0.792777
0.81159
0.817849
0.808874
0.819322
0.744404
0.85485
0.818998
0.813844
0.813113
0.812762
0.815752
0.81719
0.812809
0.810828
0.841091
0.818629
0.800225
0.825289
0.826968
0.816103
0.814476
0.80043
0.801548
0.813104
0.819058
0.829414
0.812856
0.816491
0.799904
0.810004
0.812894
0.812855
0.802503
0.814708
0.81338
0.803256
0.812918
0.835674
0.800032
0.809477
0.821597
0.56031
0.814257
0.818199
0.815544
0.815044
0.821994
0.828842
0.81566
0.818869
0.701557
0.813115
0.801378
0.815657
0.819057
0.835071
0.821594
0.815559
0.829393
0.824966
0.81073
0.819186
0.819597
0.804266
0.81321
0.815644
0.819463
0.832133
0.812681
0.815737
0.802723
0.812991
0.813104
0.523254
0.627992
0.814351
0.821469
0.801788
0.822492
0.815945
0.84188
0.708231
0.813792
0.730622
0.817419
0.81036
0.813214
0.829364
0.813703
0.804946
0.812976
0.830094
0.839407
0.812848
0.719298
0.819258
0.816067
0.799982
0.803032
0.81535
0.855935
0.812702
0.813423
0.849709
0.829011
0.843275
0.574002
0.82913
0.813989
0.810938
0.817434
0.850629
0.817797
0.718496
0.799612
0.831754
0.799852
0.799796
0.805425
0.747914
0.813446
0.814387
0.725592
0.814397
0.827334
0.813365
0.814073
0.799297
0.818407
0.813041
0.823613
0.808705
0.808235
0.815005
0.705565
0.819106
0.814122
0.813027
0.640155
0.71852
0.599569
0.82327
0.530442
0.853936
0.727419
0.842813
0.812577
0.723007
0.821424
0.815916
0.742637
0.807684
0.818385
0.794411
0.816555
0.8159
0.81583
0.813041
0.807934
0.803668
0.737382
0.836222
0.820193
0.816642
0.799293
0.815426
0.802084
0.816043
0.813505
0.854723
0.817803
0.49774
0.813336
0.818819
0.818692
0.778085
0.815737
0.806728
0.818567
0.845455
0.596661
0.809177
0.799382
0.815358
0.817652
0.817721
0.812503
0.818629
0.81389
0.814616
0.803078
0.814312
0.846123
0.813973
0.792008
0.811536
0.622719
0.718662
0.813117
0.817027
0.802959
0.822326
0.735467
0.803153
0.803186
0.820233
0.639061
0.817626
0.799431
0.815452
0.864798
0.785516
0.821973
0.818007
0.822845
0.814062
0.769646
0.802438
0.813611
0.9023
0.827164
0.816461
0.832207
0.809657
0.868344
0.719251
0.692039
0.85242
0.802707
0.671923
0.850379
0.786074
0.831994