# vtk DataFile Version 1.0
unstructured grid
ascii
DATASET UNSTRUCTURED_GRID
points 7812 float
-1 0 0
-1 1 0
2 0 0
2 1 0
0 0 0
1 0 0
-1 1 0.1
-1 0 0.1
0 0 0.1
1 0 0.1
2 0 0.1
2 1 0.1
-0.99 0 0
-0.98 0 0
-0.97 0 0
-0.96 0 0
-0.95 0 0
-0.94 0 0
-0.93 0 0
-0.92 0 0
-0.91 0 0
-0.9 0 0
-0.89 0 0
-0.88 0 0
-0.87 0 0
-0.86 0 0
-0.85 0 0
-0.84 0 0
-0.83 0 0
-0.82 0 0
-0.81 0 0
-0.8 0 0
-0.79 0 0
-0.78 0 0
-0.77 0 0
-0.76 0 0
-0.75 0 0
-0.74 0 0
-0.73 0 0
-0.72 0 0
-0.71 0 0
-0.7 0 0
-0.69 0 0
-0.68 0 0
-0.67 0 0
-0.66 0 0
-0.65 0 0
-0.64 0 0
-0.63 0 0
-0.62 0 0
-0.61 0 0
-0.6 0 0
-0.59 0 0
-0.58 0 0
-0.57 0 0
-0.56 0 0
-0.55 0 0
-0.54 0 0
-0.53 0 0
-0.52 0 0
-0.51 0 0
-0.5 0 0
-0.49 0 0
-0.48 0 0
-0.47 0 0
-0.46 0 0
-0.45 0 0
-0.44 0 0
-0.43 0 0
-0.42 0 0
-0.41 0 0
-0.4 0 0
-0.39 0 0
-0.38 0 0
-0.37 0 0
-0.36 0 0
-0.35 0 0
-0.34 0 0
-0.33 0 0
-0.32 0 0
-0.31 0 0
-0.3 0 0
-0.29 0 0
-0.28 0 0
-0.27 0 0
-0.26 0 0
-0.25 0 0
-0.24 0 0
-0.23 0 0
-0.22 0 0
-0.21 0 0
-0.2 0 0
-0.19 0 0
-0.18 0 0
-0.17 0 0
-0.16 0 0
-0.15 0 0
-0.14 0 0
-0.13 0 0
-0.12 0 0
-0.11 0 0
-0.1 0 0
-0.09 0 0
-0.08 0 0
-0.07 0 0
-0.06 0 0
-0.05 0 0
-0.04 0 0
-0.03 0 0
-0.02 0 0
-0.01 0 0
1.01 0 0
1.02 0 0
1.03 0 0
1.04 0 0
1.05 0 0
1.06 0 0
1.07 0 0
1.08 0 0
1.09 0 0
1.1 0 0
1.11 0 0
1.12 0 0
1.13 0 0
1.14 0 0
1.15 0 0
1.16 0 0
1.17 0 0
1.18 0 0
1.19 0 0
1.2 0 0
1.21 0 0
1.22 0 0
1.23 0 0
1.24 0 0
1.25 0 0
1.26 0 0
1.27 0 0
1.28 0 0
1.29 0 0
1.3 0 0
1.31 0 0
1.32 0 0
1.33 0 0
1.34 0 0
1.35 0 0
1.36 0 0
1.37 0 0
1.38 0 0
1.39 0 0
1.4 0 0
1.41 0 0
1.42 0 0
1.43 0 0
1.44 0 0
1.45 0 0
1.46 0 0
1.47 0 0
1.48 0 0
1.49 0 0
1.5 0 0
1.51 0 0
1.52 0 0
1.53 0 0
1.54 0 0
1.55 0 0
1.56 0 0
1.57 0 0
1.58 0 0
1.59 0 0
1.6 0 0
1.61 0 0
1.62 0 0
1.63 0 0
1.64 0 0
1.65 0 0
1.66 0 0
1.67 0 0
1.68 0 0
1.69 0 0
1.7 0 0
1.71 0 0
1.72 0 0
1.73 0 0
1.74 0 0
1.75 0 0
1.76 0 0
1.77 0 0
1.78 0 0
1.79 0 0
1.8 0 0
1.81 0 0
1.82 0 0
1.83 0 0
1.84 0 0
1.85 0 0
1.86 0 0
1.87 0 0
1.88 0 0
1.89 0 0
1.9 0 0
1.91 0 0
1.92 0 0
1.93 0 0
1.94 0 0
1.95 0 0
1.96 0 0
1.97 0 0
1.98 0 0
1.99 0 0
2 0.010289 0
2 0.0215307 0
2 0.0338135 0
2 0.0472336 0
2 0.0618965 0
2 0.0779171 0
2 0.0954213 0
2 0.114546 0
2 0.135442 0
2 0.158274 0
2 0.183219 0
2 0.210474 0
2 0.240253 0
2 0.27279 0
2 0.308339 0
2 0.347181 0
2 0.389619 0
2 0.435987 0
2 0.486649 0
2 0.542002 0
2 0.602481 0
2 0.66856 0
2 0.740758 0
2 0.819642 0
2 0.90583 0
1.9 1 0
1.8 1 0
1.7 1 0
1.6 1 0
1.5 1 0
1.4 1 0
1.3 1 0
1.2 1 0
1.1 1 0
1 1 0
0.9 1 0
0.8 1 0
0.7 1 0
0.6 1 0
0.5 1 0
0.4 1 0
0.3 1 0
0.2 1 0
0.1 1 0
3.69793e-12 1 0
-0.1 1 0
-0.2 1 0
-0.3 1 0
-0.4 1 0
-0.5 1 0
-0.6 1 0
-0.7 1 0
-0.8 1 0
-0.9 1 0
-1 0.90583 0
-1 0.819642 0
-1 0.740758 0
-1 0.66856 0
-1 0.602481 0
-1 0.542002 0
-1 0.486649 0
-1 0.435987 0
-1 0.389619 0
-1 0.347181 0
-1 0.308339 0
-1 0.27279 0
-1 0.240253 0
-1 0.210474 0
-1 0.183219 0
-1 0.158274 0
-1 0.135442 0
-1 0.114546 0
-1 0.0954213 0
-1 0.0779171 0
-1 0.0618965 0
-1 0.0472336 0
-1 0.0338135 0
-1 0.0215307 0
-1 0.010289 0
0.00921362 0.00379763 0
0.0184561 0.00752451 0
0.0277268 0.0111804 0
0.0370253 0.0147652 0
0.0463511 0.0182786 0
0.0557034 0.0217203 0
0.0650819 0.0250903 0
0.074486 0.0283883 0
0.083915 0.0316141 0
0.0933685 0.0347675 0
0.102846 0.0378484 0
0.112347 0.0408565 0
0.12187 0.0437917 0
0.131416 0.0466538 0
0.140983 0.0494427 0
0.150572 0.0521581 0
0.160181 0.0547999 0
0.16981 0.0573681 0
0.179458 0.0598623 0
0.189125 0.0622825 0
0.198811 0.0646285 0
0.208514 0.0669001 0
0.218234 0.0690974 0
0.227971 0.07122 0
0.237724 0.073268 0
0.247493 0.0752411 0
0.257276 0.0771393 0
0.267073 0.0789625 0
0.276884 0.0807105 0
0.286708 0.0823832 0
0.296545 0.0839806 0
0.306394 0.0855025 0
0.316254 0.0869488 0
0.326125 0.0883196 0
0.336006 0.0896146 0
0.345896 0.0908339 0
0.355796 0.0919773 0
0.365704 0.0930447 0
0.375621 0.0940362 0
0.385544 0.0949517 0
0.395474 0.095791 0
0.40541 0.0965542 0
0.415352 0.0972412 0
0.425299 0.097852 0
0.43525 0.0983865 0
0.445205 0.0988447 0
0.455164 0.0992266 0
0.465125 0.0995321 0
0.475088 0.0997613 0
0.485052 0.0999141 0
0.495017 0.0999904 0
0.504983 0.0999904 0
0.514948 0.0999141 0
0.524912 0.0997613 0
0.534875 0.0995321 0
0.544836 0.0992266 0
0.554795 0.0988447 0
0.56475 0.0983865 0
0.574701 0.097852 0
0.584648 0.0972412 0
0.59459 0.0965542 0
0.604526 0.095791 0
0.614456 0.0949517 0
0.624379 0.0940362 0
0.634296 0.0930447 0
0.644204 0.0919773 0
0.654104 0.0908339 0
0.663994 0.0896146 0
0.673875 0.0883196 0
0.683746 0.0869488 0
0.693606 0.0855025 0
0.703455 0.0839806 0
0.713292 0.0823832 0
0.723116 0.0807105 0
0.732927 0.0789625 0
0.742724 0.0771393 0
0.752508 0.0752411 0
0.762276 0.073268 0
0.772029 0.07122 0
0.781766 0.0690974 0
0.791486 0.0669001 0
0.801189 0.0646285 0
0.810875 0.0622825 0
0.820542 0.0598623 0
0.83019 0.0573681 0
0.839819 0.0547999 0
0.849428 0.0521581 0
0.859017 0.0494427 0
0.868584 0.0466538 0
0.87813 0.0437917 0
0.887653 0.0408565 0
0.897154 0.0378484 0
0.906631 0.0347675 0
0.916085 0.0316141 0
0.925514 0.0283883 0
0.934918 0.0250903 0
0.944297 0.0217203 0
0.953649 0.0182786 0
0.962975 0.0147652 0
0.972273 0.0111804 0
0.981544 0.00752451 0
0.990786 0.00379763 0
-1 0.90583 0.1
-1 0.819642 0.1
-1 0.740758 0.1
-1 0.66856 0.1
-1 0.602481 0.1
-1 0.542002 0.1
-1 0.486649 0.1
-1 0.435987 0.1
-1 0.389619 0.1
-1 0.347181 0.1
-1 0.308339 0.1
-1 0.27279 0.1
-1 0.240253 0.1
-1 0.210474 0.1
-1 0.183219 0.1
-1 0.158274 0.1
-1 0.135442 0.1
-1 0.114546 0.1
-1 0.0954213 0.1
-1 0.0779171 0.1
-1 0.0618965 0.1
-1 0.0472336 0.1
-1 0.0338135 0.1
-1 0.0215307 0.1
-1 0.010289 0.1
-0.99 0 0.1
-0.98 0 0.1
-0.97 0 0.1
-0.96 0 0.1
-0.95 0 0.1
-0.94 0 0.1
-0.93 0 0.1
-0.92 0 0.1
-0.91 0 0.1
-0.9 0 0.1
-0.89 0 0.1
-0.88 0 0.1
-0.87 0 0.1
-0.86 0 0.1
-0.85 0 0.1
-0.84 0 0.1
-0.83 0 0.1
-0.82 0 0.1
-0.81 0 0.1
-0.8 0 0.1
-0.79 0 0.1
-0.78 0 0.1
-0.77 0 0.1
-0.76 0 0.1
-0.75 0 0.1
-0.74 0 0.1
-0.73 0 0.1
-0.72 0 0.1
-0.71 0 0.1
-0.7 0 0.1
-0.69 0 0.1
-0.68 0 0.1
-0.67 0 0.1
-0.66 0 0.1
-0.65 0 0.1
-0.64 0 0.1
-0.63 0 0.1
-0.62 0 0.1
-0.61 0 0.1
-0.6 0 0.1
-0.59 0 0.1
-0.58 0 0.1
-0.57 0 0.1
-0.56 0 0.1
-0.55 0 0.1
-0.54 0 0.1
-0.53 0 0.1
-0.52 0 0.1
-0.51 0 0.1
-0.5 0 0.1
-0.49 0 0.1
-0.48 0 0.1
-0.47 0 0.1
-0.46 0 0.1
-0.45 0 0.1
-0.44 0 0.1
-0.43 0 0.1
-0.42 0 0.1
-0.41 0 0.1
-0.4 0 0.1
-0.39 0 0.1
-0.38 0 0.1
-0.37 0 0.1
-0.36 0 0.1
-0.35 0 0.1
-0.34 0 0.1
-0.33 0 0.1
-0.32 0 0.1
-0.31 0 0.1
-0.3 0 0.1
-0.29 0 0.1
-0.28 0 0.1
-0.27 0 0.1
-0.26 0 0.1
-0.25 0 0.1
-0.24 0 0.1
-0.23 0 0.1
-0.22 0 0.1
-0.21 0 0.1
-0.2 0 0.1
-0.19 0 0.1
-0.18 0 0.1
-0.17 0 0.1
-0.16 0 0.1
-0.15 0 0.1
-0.14 0 0.1
-0.13 0 0.1
-0.12 0 0.1
-0.11 0 0.1
-0.1 0 0.1
-0.09 0 0.1
-0.08 0 0.1
-0.07 0 0.1
-0.06 0 0.1
-0.05 0 0.1
-0.04 0 0.1
-0.03 0 0.1
-0.02 0 0.1
-0.01 0 0.1
0.00921362 0.00379763 0.1
0.0184561 0.00752451 0.1
0.0277268 0.0111804 0.1
0.0370253 0.0147652 0.1
0.0463511 0.0182786 0.1
0.0557034 0.0217203 0.1
0.0650819 0.0250903 0.1
0.074486 0.0283883 0.1
0.083915 0.0316141 0.1
0.0933685 0.0347675 0.1
0.102846 0.0378484 0.1
0.112347 0.0408565 0.1
0.12187 0.0437917 0.1
0.131416 0.0466538 0.1
0.140983 0.0494427 0.1
0.150572 0.0521581 0.1
0.160181 0.0547999 0.1
0.16981 0.0573681 0.1
0.179458 0.0598623 0.1
0.189125 0.0622825 0.1
0.198811 0.0646285 0.1
0.208514 0.0669001 0.1
0.218234 0.0690974 0.1
0.227971 0.07122 0.1
0.237724 0.073268 0.1
0.247493 0.0752411 0.1
0.257276 0.0771393 0.1
0.267073 0.0789625 0.1
0.276884 0.0807105 0.1
0.286708 0.0823832 0.1
0.296545 0.0839806 0.1
0.306394 0.0855025 0.1
0.316254 0.0869488 0.1
0.326125 0.0883196 0.1
0.336006 0.0896146 0.1
0.345896 0.0908339 0.1
0.355796 0.0919773 0.1
0.365704 0.0930447 0.1
0.375621 0.0940362 0.1
0.385544 0.0949517 0.1
0.395474 0.095791 0.1
0.40541 0.0965542 0.1
0.415352 0.0972412 0.1
0.425299 0.097852 0.1
0.43525 0.0983865 0.1
0.445205 0.0988447 0.1
0.455164 0.0992266 0.1
0.465125 0.0995321 0.1
0.475088 0.0997613 0.1
0.485052 0.0999141 0.1
0.495017 0.0999904 0.1
0.504983 0.0999904 0.1
0.514948 0.0999141 0.1
0.524912 0.0997613 0.1
0.534875 0.0995321 0.1
0.544836 0.0992266 0.1
0.554795 0.0988447 0.1
0.56475 0.0983865 0.1
0.574701 0.097852 0.1
0.584648 0.0972412 0.1
0.59459 0.0965542 0.1
0.604526 0.095791 0.1
0.614456 0.0949517 0.1
0.624379 0.0940362 0.1
0.634296 0.0930447 0.1
0.644204 0.0919773 0.1
0.654104 0.0908339 0.1
0.663994 0.0896146 0.1
0.673875 0.0883196 0.1
0.683746 0.0869488 0.1
0.693606 0.0855025 0.1
0.703455 0.0839806 0.1
0.713292 0.0823832 0.1
0.723116 0.0807105 0.1
0.732927 0.0789625 0.1
0.742724 0.0771393 0.1
0.752508 0.0752411 0.1
0.762276 0.073268 0.1
0.772029 0.07122 0.1
0.781766 0.0690974 0.1
0.791486 0.0669001 0.1
0.801189 0.0646285 0.1
0.810875 0.0622825 0.1
0.820542 0.0598623 0.1
0.83019 0.0573681 0.1
0.839819 0.0547999 0.1
0.849428 0.0521581 0.1
0.859017 0.0494427 0.1
0.868584 0.0466538 0.1
0.87813 0.0437917 0.1
0.887653 0.0408565 0.1
0.897154 0.0378484 0.1
0.906631 0.0347675 0.1
0.916085 0.0316141 0.1
0.925514 0.0283883 0.1
0.934918 0.0250903 0.1
0.944297 0.0217203 0.1
0.953649 0.0182786 0.1
0.962975 0.0147652 0.1
0.972273 0.0111804 0.1
0.981544 0.00752451 0.1
0.990786 0.00379763 0.1
1.01 0 0.1
1.02 0 0.1
1.03 0 0.1
1.04 0 0.1
1.05 0 0.1
1.06 0 0.1
1.07 0 0.1
1.08 0 0.1
1.09 0 0.1
1.1 0 0.1
1.11 0 0.1
1.12 0 0.1
1.13 0 0.1
1.14 0 0.1
1.15 0 0.1
1.16 0 0.1
1.17 0 0.1
1.18 0 0.1
1.19 0 0.1
1.2 0 0.1
1.21 0 0.1
1.22 0 0.1
1.23 0 0.1
1.24 0 0.1
1.25 0 0.1
1.26 0 0.1
1.27 0 0.1
1.28 0 0.1
1.29 0 0.1
1.3 0 0.1
1.31 0 0.1
1.32 0 0.1
1.33 0 0.1
1.34 0 0.1
1.35 0 0.1
1.36 0 0.1
1.37 0 0.1
1.38 0 0.1
1.39 0 0.1
1.4 0 0.1
1.41 0 0.1
1.42 0 0.1
1.43 0 0.1
1.44 0 0.1
1.45 0 0.1
1.46 0 0.1
1.47 0 0.1
1.48 0 0.1
1.49 0 0.1
1.5 0 0.1
1.51 0 0.1
1.52 0 0.1
1.53 0 0.1
1.54 0 0.1
1.55 0 0.1
1.56 0 0.1
1.57 0 0.1
1.58 0 0.1
1.59 0 0.1
1.6 0 0.1
1.61 0 0.1
1.62 0 0.1
1.63 0 0.1
1.64 0 0.1
1.65 0 0.1
1.66 0 0.1
1.67 0 0.1
1.68 0 0.1
1.69 0 0.1
1.7 0 0.1
1.71 0 0.1
1.72 0 0.1
1.73 0 0.1
1.74 0 0.1
1.75 0 0.1
1.76 0 0.1
1.77 0 0.1
1.78 0 0.1
1.79 0 0.1
1.8 0 0.1
1.81 0 0.1
1.82 0 0.1
1.83 0 0.1
1.84 0 0.1
1.85 0 0.1
1.86 0 0.1
1.87 0 0.1
1.88 0 0.1
[...]
CELL_DATA 7425
SCALARS rho float
LOOKUP_TABLE default
0.847076
0.810634
0.909561
0.90779
0.807739
0.907826
0.900577
0.921594
0.939325
0.88019
0.909553
0.814861
0.92404
0.907671
0.812223
0.911821
0.804608
0.933122
0.807845
0.821853
0.908729
0.819141
0.877283
0.908479
0.80868
0.853752
0.907977
0.82717
0.806148
0.814153
0.900377
0.828789
0.808088
0.85678
0.835211
0.908501
0.807552
0.922058
0.815262
0.905934
0.858834
0.832376
0.891538
0.828086
0.844946
0.825922
0.892859
0.924573
0.834721
0.824791
0.824377
0.810785
0.819471
0.805802
0.827182
0.829282
0.908639
0.804702
0.880554
0.869904
0.839716
0.8134
0.933608
0.805768
0.804746
0.910973
0.84744
0.887485
0.828826
0.814089
0.811982
0.804808
0.914179
0.818884
0.823499
0.938799
0.810756
0.805666
0.93302
0.824751
0.914159
0.81314
0.928463
0.824503
0.903151
0.809218
0.846299
0.905794
0.839703
0.909742
0.830053
0.878177
0.826934
0.806886
0.911196
0.868168
0.822096
0.811607
0.908488
0.811611
0.909143
0.824268
0.807246
0.906285
0.849646
0.815317
0.906345
0.864339
0.916943
0.806778
0.911492
0.824232
0.82464
0.816063
0.891756
0.811667
0.907836
0.804527
0.826868
0.833945
0.810781
0.888433
0.940222
0.816029
0.912064
0.822568
0.813211
0.89366
0.859981
0.833599
0.91789
0.855626
0.835452
0.828738
0.833871
0.807942
0.819025
0.87264
0.84714
0.829563
0.860669
0.815245
0.932304
0.827306
0.810956
0.824055
0.844895
0.889575
0.82478
0.908553
0.898787
0.831299
0.811561
0.824244
0.825609
0.80777
0.815032
0.908707
0.892404
0.845308
0.807838
0.828523
0.80934
0.908665
0.908956
0.804678
0.93733
0.88997
0.813928
0.809159
0.909487
0.813179
0.892351
0.806649
0.80465
0.823813
0.812317
0.86886
0.844679
0.829671
0.807264
0.889828
0.913469
0.906151
0.831791
0.908628
0.805303
0.820219
0.807327
0.928867
0.946081
0.807062
0.814266
0.825339
0.916927
0.908148
0.820767
0.891336
0.827024
0.813343
0.815867
0.93846
0.852575
0.822644
0.845632
0.836609
0.849462
0.840779
0.820369
0.913751
0.813089
0.804212
0.903987
0.941884
0.911158
0.908863
0.916155
0.85831
0.834933
0.925494
0.839349
0.844281
0.826782
0.913553
0.920095
0.938861
0.908098
0.947609
0.82686
0.828125
0.82187
0.841324
0.813937
0.808631
0.805591
0.871086
0.830863
0.854876
0.829858
0.912797
0.82932
0.915172
0.8133
0.893643
0.815937
0.83103
0.908865
0.809283
0.907688
0.811353
0.934937
0.825094
0.94628
0.908535
0.823996
0.838896
0.805345
0.82402
0.824072
0.918413
0.828847
0.914648
0.917442
0.90595
0.92585
0.813391
0.806703
0.908467
0.912393
0.813743
0.855126
0.909666
0.816799
0.811418
0.908021
0.904294
0.931878
0.906999
0.815934
0.916698
0.827204
0.906333
0.820168
0.909249
0.807922
0.911827
0.804807
0.82463
0.855138
0.847481
0.82738
0.896732
0.939863
0.914128
0.825334
0.818991
0.858599
0.908502
0.835659
0.888362
0.80911
0.858968
0.83102
0.858318
0.916424
0.933445
0.941834
0.924661
0.908492
0.823982
0.815725
0.807816
0.947961
0.909557
0.828732
0.907984
0.808847
0.829538
0.891462
0.902575
0.868545
0.805346
0.805087
0.911546
0.912043
0.85002
0.928809
0.823896
0.824946
0.868519
0.928382
0.920415
0.808577
0.824621
0.860557
0.856743
0.827571
0.883115
0.907948
0.917218
0.926
0.829559
0.82657
0.807857
0.894264
0.820971
0.868607
0.817212
0.915343
0.802496
0.813723
0.809237
0.805007
0.931066
0.914777
0.91291
0.85277
0.820667
0.844311
0.824819
0.852122
0.895729
0.805017
0.823932
0.853867
0.821038
0.90938
0.911788
0.805395
0.804717
0.823857
0.838075
0.820625
0.937257
0.931215
0.802701
0.828116
0.843522
0.812542
0.936346
0.806502
0.94606
0.824517
0.831542
0.824051
0.929703
0.808437
0.890343
0.932924
0.812265
0.810901
0.91352
0.813197
0.908367
0.816898
0.896222
0.813403
0.844101
0.812227
0.858558
0.903055
0.856917
0.915802
0.915193
0.841753
0.817902
0.879913
0.810634
0.911743
0.837158
0.908013
0.908689
0.807815
0.908431
0.815653
0.908501
0.908625
0.907667
0.824893
0.908441
0.824848
0.815402
0.80988
0.890545
0.881339
0.81164
0.802427
0.908586
0.864278
0.811937
0.850755
0.853058
0.849531
0.932527
0.909022
0.913085
0.906142
0.805538
0.94546
0.81233
0.904281
0.866992
0.808377
0.826665
0.900066
0.913515
0.814271
0.828521
0.873522
0.839001
0.852699
0.809394
0.853471
0.889363
0.824182
0.815501
0.828368
0.881732
0.880891
0.928819
0.917171
0.909507
0.937876
0.855579
0.840853
0.908391
0.907319
0.817376
0.815941
0.808782
0.90923
0.834288
0.911537
0.823969
0.830394
0.878026
0.914944
0.840152
0.805532
0.909708
0.816546
0.9248
0.925676
0.807524
0.883349
0.903687
0.80624
0.909951
0.830227
0.826483
0.804616
0.890805
0.908367
0.863896
0.910511
0.809977
0.91286
0.8047
0.818499
0.815247
0.84993
0.866216
0.857006
0.923242
0.895168
0.907597
0.882451
0.815214
0.917599
0.908887
0.8064
0.853335
0.898931
0.817307
0.80612
0.835864
0.927235
0.907761
0.823362
0.937128
0.908468
0.909007
0.909046
0.869956
0.851568
0.903169
0.813158
0.904698
0.921002
0.819169
0.928308
0.924349
0.833965
0.814219
0.901395
0.94708
0.892236
0.896007
0.813135
0.827715
0.805631
0.94725
0.918139
0.914051
0.850853
0.928234
0.823268
0.914413
0.838752
0.912877
0.820754
0.809392
0.821014
0.8912
0.913017
0.897395
0.908724
0.816867
0.854705
0.80621
0.809481
0.848664
0.907002
0.825736
0.816879
0.921848
0.935369
0.826199
0.808071
0.904374
0.908916
0.886173
0.819705
0.823141
0.807974
0.81595
0.814544
0.811181
0.907946
0.805083
0.908778
0.824261
0.823389
0.80829
0.898002
0.868779
0.944562
0.910445
0.883348
0.927233
0.901644
0.820357
0.907922
0.80887
0.806323
0.906355
0.825082
0.819943
0.908874
0.810457
0.834051
0.938837
0.908588
0.906606
0.913959
0.804602
0.824766
0.908332
0.824872
0.807359
0.808817
0.943978
0.831221
0.810325
0.82079
0.815478
0.810681
0.896092
0.909822
0.812451
0.904987
0.802265
0.908535
0.926207
0.809331
0.904401
0.938616
0.856312
0.910103
0.812919
0.926037
0.919931
0.805871
0.90396
0.804366
0.805936
0.913414
0.806211
0.808185
0.824751
0.824627
0.914994
0.945115
0.882349
0.890775
0.907923
0.816222
0.908668
0.813108
0.908418
0.912457
0.908602
0.839884
0.873625
0.909519
0.911567
0.908364
0.915815
0.908525
0.814709
0.896561
0.80607
0.908104
0.912201
0.911003
0.869477
0.921101
0.907066
0.825829
0.817999
0.824232
0.804435
0.872305
0.913694
0.908729
0.820065
0.827972
0.919352
0.931987
0.919881
0.916637
0.905518
0.815714
0.80451
0.814998
0.869899
0.939135
0.825057
0.906142
0.816715
0.858681
0.819994
0.816033
0.805496
0.909564
0.81156
0.916586
0.911563
0.812111
0.908859
0.809553
0.814225
0.84379
0.910439
0.907997
0.908493
0.817322
0.807374
0.871473
0.815052
0.920623
0.920048
0.810734
0.926966
0.816745
0.81492
0.920932
0.908919
0.816691
0.933151
0.913532
0.828345
0.884184
0.876944
0.935403
0.812615
0.810653
0.854341
0.814123
0.811414
0.86595
0.825332
0.911503
0.80957
0.814522
0.804181
0.910334
0.898199
0.932353
0.946499
0.873485
0.905485
0.812689
0.814988
0.823626
0.817995
0.912453
0.807262
0.824496
0.906064
0.887751
0.908446
0.815373
0.814373
0.909097
0.828065
0.90527
0.840962
0.914032
0.870842
0.910069
0.904369
0.912576
0.824682
0.806739
0.909192
0.825037
0.823078
0.905803
0.909527
0.912919
0.896035
0.814128
0.814047
0.833514
0.824835
0.804991
0.824496
0.904975
0.82918
0.809195
0.826183
0.811507
0.83341
0.818139
0.921553
0.826747
0.824428
0.909113
0.903743
0.917671
0.834477
0.829443
0.818438
0.81117
0.944621
0.808449
0.878726
0.920117
0.914789
0.943512
0.888309
0.806659
0.810226
0.813275
0.843908
0.946255
0.821819
0.842559
0.916388
0.913814
0.918229
0.910447
0.91907
0.908132
0.80747
0.804269
0.825278
0.819063
0.820674
0.819581
0.826293
0.814648
0.926083
0.845155
0.824024
0.81524
0.909011
0.930523
0.804553
0.827369
0.943992
0.902267
0.928667
0.912327
0.916244
0.909123
0.919364
0.93974
0.815578
0.924438
0.80994
0.908441
0.809073
0.908723
0.929126
0.843091
0.928399
0.908998
0.825851
0.824262
0.831235
0.912132
0.89411
0.833027
0.852545
0.842419
0.9059
0.895401
0.815553
0.933922
0.804077
0.912398
0.815529
0.839109
0.851807
0.817795
0.812481
0.914238
0.807753
0.814779
0.935629
0.907381
0.804295
0.845717
0.827594
0.80426
0.816597
0.923791
0.884647
0.830778
0.908768
0.81651
0.826012
0.802645
0.814964
0.841265
0.824918
0.915123
0.90854
0.91011
0.820118
0.810339
0.833746
0.858914
0.843717
0.908496
0.815505
0.824837
0.939153
0.884127
0.910907
0.911897
0.885524
0.908857
0.919761
0.907823
0.916134
0.918619
0.929742
0.811901
0.816497
0.858155
0.908571
0.805433
0.816228
0.806138
0.819692
0.911428
0.908161
0.90377
0.908814
0.826168
0.825088
0.812693
0.908604
0.805009
0.81114
0.812518
0.881953
0.917056
0.816048
0.818949
0.864256
0.921027
0.811437
0.826627
0.899544
0.904037
0.880515
0.82267
0.88152
0.829326
0.803136
0.947342
0.88238
0.809561
0.920605
0.809047
0.848631
0.818685
0.892253
0.904694
0.919021
0.906494
0.819029
0.813835
0.823064
0.820228
0.816591
0.909073
0.827925
0.871553
0.944626
0.881244
0.908751
0.887604
0.946736
0.806089
0.896429
0.882489
0.804937
0.880009
0.920181
0.804403
0.85648
0.82434
0.803547
0.824448
0.920135
0.908552
0.836952
0.820421
0.824223
0.911962
0.80491
0.817821
0.809651
0.887945
0.804987
0.906069
0.902377
0.818875
0.910324
0.825814
0.882997
0.906804
0.811104
0.938461
0.809055
0.828283
0.890973
0.810865
0.816058
0.825519
0.906237
0.908793
0.929061
0.807338
0.81229
0.809406
0.813309
0.853047
0.900511
0.863926
0.860397
0.906608
0.804276
0.825059
0.807482
0.883283
0.82005
0.946014
0.825445
0.894439
0.912323
0.902176
0.898526
0.930346
0.895488
0.874263
0.870957
0.857957
0.908571
0.913208
0.898052
0.82329
0.909242
0.909593
0.826705
0.904276
0.911038
0.901099
0.948733
0.900478
0.87107
0.914267
0.814691
0.814296
0.835864
0.941104
0.821527
0.932165
0.818873
0.807561
0.826169
0.931464
0.852434
0.819587
0.810388
0.899458
0.911455
0.807716
0.808589
0.909007
0.923499
0.812533
0.821512
0.833789
0.908356
0.81041
0.820777
0.908058
0.906878
0.812718
0.904979
0.868205
0.832396
0.915955
0.893885
0.914975
0.809994
0.82636
0.8049
0.807913
0.916765
0.85619
0.85966
0.914189
0.87172
0.909075
0.928182
0.90872
0.909385
0.892641
0.810156
0.923965
0.906996
0.88014
0.911005
0.922587
0.843764
0.811922
0.826725
0.91108
0.876665
0.809744
0.808818
0.806014
0.805599
0.926052
0.946791
0.826154
0.814
0.804198
0.802223
0.807018
0.946985
0.912303
0.804241
0.947624
0.910737
0.804122
0.887941
0.804263
0.822734
0.844852
0.926717
0.921911
0.83324
0.872412
0.814919
0.906941
0.813405
0.83479
0.825641
0.920837
0.821451
0.811003
0.806435
0.804207
0.887204
0.849293
0.813452
0.913818
0.823926
0.909262
0.942908
0.901004
0.82128
0.822253
0.872952
0.817006
0.806386
0.805615
0.824858
0.808239
0.825098
0.926461
0.903054
0.824352
0.841696
0.909851
0.949065
0.818793
0.809869
0.819538
0.946987
0.91794
0.893827
0.827351
0.813548
0.87761
0.909104
0.808323
0.803546
0.906648
0.862999
0.859781
0.807394
0.808941
0.828795
0.861136
0.802408
0.907998
0.939165
0.908638
0.827807
0.899447
0.935446
0.908461
0.90499
0.815731
0.949143
0.883311
0.812671
0.913382
0.94725
0.867244
0.843908
0.949246
0.859757
0.876806
0.842444
0.909221
0.807562
0.835423
0.850806
0.900609
0.92081
0.910388
0.861294
0.920161
0.888695
0.809632
0.824463
0.818935
0.903503
0.817577
0.907322
0.900579
0.847579
0.910622
0.883007
0.911883
0.82609
0.908454
0.888667
0.921816
0.808641
0.862732
0.904719
0.894809
0.814442
0.83181
0.912126
0.807351
0.824901
0.825708
0.911825
0.839113
0.842652
0.808908
0.891587
0.85258
0.865488
0.827489
0.833039
0.837025
0.809011
0.834185
0.908662
0.833706
0.884202
0.852424
0.838311
0.836855
0.880778
0.804596
0.828363
0.908933
0.805976
0.810409
0.884915
0.91713
0.806466
0.908053
0.808302
0.94637
0.872505
0.814621
0.87899
0.908761
0.916512
0.905547
0.878387
0.908137
0.884669
0.913358
0.809434
0.884781
0.910901
0.886761
0.802663
0.814
0.884012
0.860276
0.834508
0.810572
0.804835
0.908472
0.908265
0.853862
0.815141
0.838395
0.865174
0.842343
0.818368
0.908652
0.92342
0.809253
0.853685
0.911416
0.8041
0.804033
0.912726
0.948418
0.813042
0.947888
0.804155
0.910885
0.803957
0.874766
0.811134
0.844692
0.80494
0.896687
0.804107
0.857935
0.897786
0.895659
0.829656
0.818111
0.841239
0.846158
0.810488
0.870112
0.877488
0.845063
0.865781
0.926569
0.829265
0.819148
0.826674
0.897416
0.865381
0.884707
0.81321
0.917527
0.854272
0.80451
0.918175
0.817639
0.912455
0.842287
0.868001
0.902661
0.943379
0.92099
0.907914
0.933906
0.812799
0.810445
0.807214
0.869924
0.825998
0.852486
0.880454
0.835598
0.826886
0.922799
0.91741
0.814093
0.807184
0.833023
0.92083
0.808899
0.840904
0.838153
0.881922
0.808589
0.899179
0.841667
0.824757
0.843983
0.841851
0.850621
0.824958
0.809974
0.849386
0.852836
0.912651
0.815203
0.885637
0.864487
0.845268
0.860806
0.829114
0.911334
0.884621
0.825442
0.854351
0.879753
0.918348
0.91513
0.944943
0.915493
0.827338
0.876312
0.90931
0.813047
0.908937
0.948628
0.805446
0.934014
0.827715
0.909651
0.910788
0.911436
0.912364
0.910776
0.806531
0.909619
0.914105
0.916095
0.909901
0.804608
0.910281
0.909783
0.864585
0.909931
0.913293
0.910131
0.808264
0.858355
0.911789
0.910097
0.908468
0.807052
0.945654
0.825096
0.911142
0.836488
0.848894
0.815102
0.914814
0.809341
0.807216
0.908762
0.824831
0.812526
0.916137
0.889554
0.909321
0.908564
0.901978
0.862449
0.839616
0.914457
0.910788
0.890056
0.910662
0.908182
0.816246
0.910612
0.88602
0.918372
0.910008
0.919162
0.910027
0.816833
0.914456
0.910722
0.91413
0.912253
0.911311
0.910382
0.807599
0.911473
0.81276
0.813489
0.812816
0.910251
0.943179
0.888953
0.825493
0.929427
0.812254
0.923438
0.812268
0.908625
0.811448
0.917546
0.93962
0.812866
0.829307
0.809055
0.940938
0.817421
0.81488
0.942097
0.928962
0.936806
0.814832
0.910056
0.833087
0.943134
0.908057
0.93828
0.807909
0.81416
0.917039
0.909365
0.808658
0.81108
0.896829
0.829301
0.944125
0.814683
0.814799
0.93249
0.938393
0.935992
0.930966
0.83433
0.824707
0.831773
0.915663
0.906769
0.826294
0.833212
0.91583
0.82482
0.818215
0.860178
0.80686
0.931507
0.859996
0.807771
0.810052
0.817636
0.895928
0.91163
0.814755
0.852412
0.807373
0.824825
0.816688
0.916834
0.893938
0.818121
0.818276
0.90177
0.930384
0.90875
0.907816
0.856282
0.894549
0.861534
0.925172
0.925998
0.826737
0.926946
0.899744
0.826006
0.904405
0.832206
0.912279
0.824603
0.920065
0.943813
0.927923
0.857796
0.926673
0.856892
0.805682
0.817326
0.907935
0.916454
0.831087
0.824961
0.908556
0.931007
0.898943
0.908717
0.929745
0.908412
0.805868
0.842805
0.826252
0.817533
0.827055
0.909277
0.819336
0.824493
0.879998
0.806486
0.939487
0.94333
0.942632
0.813484
0.844234
0.806511
0.835899
0.895998
0.819733
0.807141
0.808555
0.816983
0.814334
0.885933
0.828998
0.93041
0.909638
0.899336
0.80516
0.827554
0.82504
0.80967
0.902325
0.832215
0.807213
0.910236
0.805141
0.832555
0.935589
0.902849
0.827059
0.84528
0.813135
0.806359
0.928253
0.84371
0.935789
0.806283
0.807091
0.806527
0.933934
0.932228
0.911814
0.938889
0.827841
0.810097
0.806097
0.941346
0.918003
0.934831
0.884981
0.82494
0.80314
0.80521
0.851332
0.942993
0.806479
0.819966
0.824705
0.913078
0.900684
0.826365
0.808586
0.908642
0.817226
0.842559
0.872823
0.890801
0.907666
0.816672
0.92276
0.842928
0.90908
0.826002
0.878368
0.825709
0.824729
0.816688
0.825496
0.942023
0.816652
0.941943
0.809616
0.825161
0.808209
0.805077
0.825189
0.907787
0.908561
0.908831
0.913006
0.942648
0.833396
0.814108
0.942864
0.807286
0.887313
0.818802
0.804674
0.929804
0.908439
0.812701
0.811213
0.806787
0.903143
0.908628
0.811182
0.804289
0.810935
0.825452
0.909349
0.844393
0.910683
0.80867
0.841514
0.811359
0.893395
0.818494
0.837085
0.851191
0.809069
0.812516
0.808595
0.908977
0.824499
0.905735
0.807349
0.827874
0.810294
0.809842
0.900754
0.906645
0.818725
0.908157
0.908497
0.910448
0.877229
0.907479
0.910693
0.861686
0.81015
0.808219
0.809099
0.908866
0.907776
0.811474
0.808672
0.807108
0.908592
0.810678
0.808567
0.806795
0.908428
0.809008
0.806775
0.812115
0.907553
0.809793
0.809162
0.819774
0.805102
0.915856
0.861734
0.908418
0.908153
0.812043
0.909667
0.807912
0.908507
0.909128
0.807001
0.908563
0.805613
0.814356
0.822139
0.806882
0.810587
0.812135
0.812905
0.812723
0.909418
0.917979
0.815291
0.908653
0.811097
0.805487
0.806875
0.824766
0.907694
0.807795
0.909665
0.916406
0.813512
0.812765
0.80459
0.907938
0.827016
0.806668
0.86788
0.806265
0.909612
0.912485
0.813594
0.80975
0.818319
0.908124
0.838332
0.820684
0.890169
0.827149
0.909607
0.815677
0.816358
0.81489
0.808901
0.816045
0.814163
0.849869
0.91035
0.824767
0.92102
0.911212
0.909778
0.885636
0.814459
0.919349
0.910017
0.823497
0.863372
0.815517
0.912457
0.893159
0.805705
0.881059
0.911937
0.8042
0.913668
0.894498
0.91142
0.909116
0.811798
0.811384
0.936941
0.914089
0.812442
0.928072
0.817787
0.915068
0.82472
0.814635
0.808782
0.904772
0.815615
0.822514
0.814729
0.812774
0.816549
0.912972
0.903684
0.92298
0.906084
0.821411
0.817134
0.850606
0.831979
0.935141
0.911085
0.812916
0.928659
0.833614
0.90774
0.805184
0.812035
0.916598
0.925042
0.809324
0.931057
0.807504
0.807302
0.814578
0.899038
0.874191
0.890624
0.908318
0.826625
0.822007
0.80771
0.89858
0.807103
0.817883
0.812803
0.806214
0.80581
0.80616
0.895805
0.813369
0.811758
0.90892
0.821165
0.82817
0.830287
0.819741
0.841388
0.807474
0.837853
0.810159
0.813409
0.811653
0.910641
0.821638
0.923804
0.940899
0.814765
0.81242
0.915535
0.913518
0.813491
0.818509
0.839291
0.814726
0.814247
0.819259
0.919811
0.924248
0.809313
0.813189
0.809448
0.836105
0.901907
0.807672
0.883505
0.812676
0.90847
0.814649
0.811839
0.812004
0.824958
0.815166
0.834562
0.807927
0.909454
0.923695
0.817016
0.845153
0.816951
0.922395
0.946257
0.908745
0.923758
0.810032
0.908822
0.824896
0.845795
0.814055
0.865639
0.824748
0.92735
0.830045
0.917382
0.823895
0.823842
0.863139
0.916555
0.815682
0.882432
0.821293
0.823059
0.814621
0.824589
0.81478
0.808237
0.928521
0.92096
0.812879
0.810813
0.921017
0.815083
0.823556
0.906436
0.823097
0.89739
0.824567
0.940181
0.911556
0.902855
0.818073
0.931685
0.852797
0.813467
0.905712
0.900956
0.912949
0.945238
0.818135
0.833445
0.923103
0.80759
0.927808
0.817436
0.908537
0.936901
0.815517
0.914419
0.815999
0.815918
0.930878
0.918579
0.813289
0.921137
0.860383
0.812083
0.910594
0.821967
0.815872
0.908769
0.931121
0.81454
0.832439
0.909638
0.808846
0.909284
0.909325
0.816416
0.904394
0.890193
0.910891
0.909551
0.815394
0.909626
0.864609
0.825702
0.90975
0.817008
0.937638
0.939669
0.910755
0.909855
0.940962
0.912547
0.908206
0.909901
0.807986
0.81975
0.905142
0.817617
0.816729
0.807793
0.807133
0.939606
0.909952
0.820813
0.942156
0.910251
0.80816
0.914207
0.943191
0.936831
0.806846
0.918335
0.929815
0.8204
0.944194
0.907937
0.82193
0.916273
0.819082
0.842555
0.92015
0.910118
0.905252
0.911454
0.908096
0.905269
0.913487
0.910087
0.870695
0.93978
0.807395
0.915146
0.81833
0.822548
0.908799
0.898004
0.908547
0.908452
0.936153
0.818689
0.818578
0.904565
0.936431
0.915162
0.818179
0.908738
0.933968
0.914835
0.805358
0.9447
0.936061
0.834335
0.847938
0.8178
0.908957
0.809318
0.90641
0.914423
0.824343
0.872374
0.925829
0.828989
0.901035
0.917675
0.935556
0.904302
0.926671
0.813801
0.943878
0.902961
0.826439
0.932465
0.874655
0.824877
0.912856
0.805899
0.804818
0.916178
0.90993
0.938369
0.93153
0.909395
0.902006
0.90456
0.839542
0.907803
0.923255
0.915696
0.911556
0.826875
0.911122
0.875518
0.806288
0.821404
0.808462
0.806098
0.812338
0.881701
0.930997
0.918303
0.864197
0.917434
0.820268
0.929039
0.918497
0.806021
0.9098
0.943363
0.819493
0.814184
0.900748
0.910635
0.830686
0.909899
0.919227
0.944766
0.852595
0.827018
0.851132
0.819239
0.834373
0.825294
0.87736
0.823842
0.932595
0.837451
0.898979
0.911355
0.881348
0.813826
0.910602
0.823993
0.910793
0.914456
0.914476
0.942683
0.920435
0.808039
0.879499
0.822124
0.907675
0.911242
0.804349
0.816968
0.811841
0.914124
0.926035
0.826673
0.909973
0.831647
0.910641
0.909999
0.910267
0.82023
0.817113
0.812669
0.817946
0.823699
0.849059
0.81535
0.806846
0.915797
0.910724
0.910353
0.935862
0.91023
0.911519
0.913049
0.806957
0.9123
0.910381
0.917579
0.824714
0.923801
0.854863
0.825423
0.939505
0.911776
0.808744
0.908731
0.824986
0.804084
0.803298
0.90942
0.829843
0.911309
0.80711
0.915825
0.826867
0.818477
0.908781
0.910859
0.819304
0.923029
0.8204
0.805845
0.926165
0.919136
0.820101
0.913242
0.824169
0.932466
0.828274
0.826273
0.830221
0.825634
0.804892
0.829754