# vtk DataFile Version 1.0
unstructured grid
ascii
DATASET UNSTRUCTURED_GRID
points 7812 float
-1 0 0
-1 1 0
2 0 0
2 1 0
0 0 0
1 0 0
-1 1 0.1
-1 0 0.1
0 0 0.1
1 0 0.1
2 0 0.1
2 1 0.1
-0.99 0 0
-0.98 0 0
-0.97 0 0
-0.96 0 0
-0.95 0 0
-0.94 0 0
-0.93 0 0
-0.92 0 0
-0.91 0 0
-0.9 0 0
-0.89 0 0
-0.88 0 0
-0.87 0 0
-0.86 0 0
-0.85 0 0
-0.84 0 0
-0.83 0 0
-0.82 0 0
-0.81 0 0
-0.8 0 0
-0.79 0 0
-0.78 0 0
-0.77 0 0
-0.76 0 0
-0.75 0 0
-0.74 0 0
-0.73 0 0
-0.72 0 0
-0.71 0 0
-0.7 0 0
-0.69 0 0
-0.68 0 0
-0.67 0 0
-0.66 0 0
-0.65 0 0
-0.64 0 0
-0.63 0 0
-0.62 0 0
-0.61 0 0
-0.6 0 0
-0.59 0 0
-0.58 0 0
-0.57 0 0
-0.56 0 0
-0.55 0 0
-0.54 0 0
-0.53 0 0
-0.52 0 0
-0.51 0 0
-0.5 0 0
-0.49 0 0
-0.48 0 0
-0.47 0 0
-0.46 0 0
-0.45 0 0
-0.44 0 0
-0.43 0 0
-0.42 0 0
-0.41 0 0
-0.4 0 0
-0.39 0 0
-0.38 0 0
-0.37 0 0
-0.36 0 0
-0.35 0 0
-0.34 0 0
-0.33 0 0
-0.32 0 0
-0.31 0 0
-0.3 0 0
-0.29 0 0
-0.28 0 0
-0.27 0 0
-0.26 0 0
-0.25 0 0
-0.24 0 0
-0.23 0 0
-0.22 0 0
-0.21 0 0
-0.2 0 0
-0.19 0 0
-0.18 0 0
-0.17 0 0
-0.16 0 0
-0.15 0 0
-0.14 0 0
-0.13 0 0
-0.12 0 0
-0.11 0 0
-0.1 0 0
-0.09 0 0
-0.08 0 0
-0.07 0 0
-0.06 0 0
-0.05 0 0
-0.04 0 0
-0.03 0 0
-0.02 0 0
-0.01 0 0
1.01 0 0
1.02 0 0
1.03 0 0
1.04 0 0
1.05 0 0
1.06 0 0
1.07 0 0
1.08 0 0
1.09 0 0
1.1 0 0
1.11 0 0
1.12 0 0
1.13 0 0
1.14 0 0
1.15 0 0
1.16 0 0
1.17 0 0
1.18 0 0
1.19 0 0
1.2 0 0
1.21 0 0
1.22 0 0
1.23 0 0
1.24 0 0
1.25 0 0
1.26 0 0
1.27 0 0
1.28 0 0
1.29 0 0
1.3 0 0
1.31 0 0
1.32 0 0
1.33 0 0
1.34 0 0
1.35 0 0
1.36 0 0
1.37 0 0
1.38 0 0
1.39 0 0
1.4 0 0
1.41 0 0
1.42 0 0
1.43 0 0
1.44 0 0
1.45 0 0
1.46 0 0
1.47 0 0
1.48 0 0
1.49 0 0
1.5 0 0
1.51 0 0
1.52 0 0
1.53 0 0
1.54 0 0
1.55 0 0
1.56 0 0
1.57 0 0
1.58 0 0
1.59 0 0
1.6 0 0
1.61 0 0
1.62 0 0
1.63 0 0
1.64 0 0
1.65 0 0
1.66 0 0
1.67 0 0
1.68 0 0
1.69 0 0
1.7 0 0
1.71 0 0
1.72 0 0
1.73 0 0
1.74 0 0
1.75 0 0
1.76 0 0
1.77 0 0
1.78 0 0
1.79 0 0
1.8 0 0
1.81 0 0
1.82 0 0
1.83 0 0
1.84 0 0
1.85 0 0
1.86 0 0
1.87 0 0
1.88 0 0
1.89 0 0
1.9 0 0
1.91 0 0
1.92 0 0
1.93 0 0
1.94 0 0
1.95 0 0
1.96 0 0
1.97 0 0
1.98 0 0
1.99 0 0
2 0.010289 0
2 0.0215307 0
2 0.0338135 0
2 0.0472336 0
2 0.0618965 0
2 0.0779171 0
2 0.0954213 0
2 0.114546 0
2 0.135442 0
2 0.158274 0
2 0.183219 0
2 0.210474 0
2 0.240253 0
2 0.27279 0
2 0.308339 0
2 0.347181 0
2 0.389619 0
2 0.435987 0
2 0.486649 0
2 0.542002 0
2 0.602481 0
2 0.66856 0
2 0.740758 0
2 0.819642 0
2 0.90583 0
1.9 1 0
1.8 1 0
1.7 1 0
1.6 1 0
1.5 1 0
1.4 1 0
1.3 1 0
1.2 1 0
1.1 1 0
1 1 0
0.9 1 0
0.8 1 0
0.7 1 0
0.6 1 0
0.5 1 0
0.4 1 0
0.3 1 0
0.2 1 0
0.1 1 0
3.69793e-12 1 0
-0.1 1 0
-0.2 1 0
-0.3 1 0
-0.4 1 0
-0.5 1 0
-0.6 1 0
-0.7 1 0
-0.8 1 0
-0.9 1 0
-1 0.90583 0
-1 0.819642 0
-1 0.740758 0
-1 0.66856 0
-1 0.602481 0
-1 0.542002 0
-1 0.486649 0
-1 0.435987 0
-1 0.389619 0
-1 0.347181 0
-1 0.308339 0
-1 0.27279 0
-1 0.240253 0
-1 0.210474 0
-1 0.183219 0
-1 0.158274 0
-1 0.135442 0
-1 0.114546 0
-1 0.0954213 0
-1 0.0779171 0
-1 0.0618965 0
-1 0.0472336 0
-1 0.0338135 0
-1 0.0215307 0
-1 0.010289 0
0.00921362 0.00379763 0
0.0184561 0.00752451 0
0.0277268 0.0111804 0
0.0370253 0.0147652 0
0.0463511 0.0182786 0
0.0557034 0.0217203 0
0.0650819 0.0250903 0
0.074486 0.0283883 0
0.083915 0.0316141 0
0.0933685 0.0347675 0
0.102846 0.0378484 0
0.112347 0.0408565 0
0.12187 0.0437917 0
0.131416 0.0466538 0
0.140983 0.0494427 0
0.150572 0.0521581 0
0.160181 0.0547999 0
0.16981 0.0573681 0
0.179458 0.0598623 0
0.189125 0.0622825 0
0.198811 0.0646285 0
0.208514 0.0669001 0
0.218234 0.0690974 0
0.227971 0.07122 0
0.237724 0.073268 0
0.247493 0.0752411 0
0.257276 0.0771393 0
0.267073 0.0789625 0
0.276884 0.0807105 0
0.286708 0.0823832 0
0.296545 0.0839806 0
0.306394 0.0855025 0
0.316254 0.0869488 0
0.326125 0.0883196 0
0.336006 0.0896146 0
0.345896 0.0908339 0
0.355796 0.0919773 0
0.365704 0.0930447 0
0.375621 0.0940362 0
0.385544 0.0949517 0
0.395474 0.095791 0
0.40541 0.0965542 0
0.415352 0.0972412 0
0.425299 0.097852 0
0.43525 0.0983865 0
0.445205 0.0988447 0
0.455164 0.0992266 0
0.465125 0.0995321 0
0.475088 0.0997613 0
0.485052 0.0999141 0
0.495017 0.0999904 0
0.504983 0.0999904 0
0.514948 0.0999141 0
0.524912 0.0997613 0
0.534875 0.0995321 0
0.544836 0.0992266 0
0.554795 0.0988447 0
0.56475 0.0983865 0
0.574701 0.097852 0
0.584648 0.0972412 0
0.59459 0.0965542 0
0.604526 0.095791 0
0.614456 0.0949517 0
0.624379 0.0940362 0
0.634296 0.0930447 0
0.644204 0.0919773 0
0.654104 0.0908339 0
0.663994 0.0896146 0
0.673875 0.0883196 0
0.683746 0.0869488 0
0.693606 0.0855025 0
0.703455 0.0839806 0
0.713292 0.0823832 0
0.723116 0.0807105 0
0.732927 0.0789625 0
0.742724 0.0771393 0
0.752508 0.0752411 0
0.762276 0.073268 0
0.772029 0.07122 0
0.781766 0.0690974 0
0.791486 0.0669001 0
0.801189 0.0646285 0
0.810875 0.0622825 0
0.820542 0.0598623 0
0.83019 0.0573681 0
0.839819 0.0547999 0
0.849428 0.0521581 0
0.859017 0.0494427 0
0.868584 0.0466538 0
0.87813 0.0437917 0
0.887653 0.0408565 0
0.897154 0.0378484 0
0.906631 0.0347675 0
0.916085 0.0316141 0
0.925514 0.0283883 0
0.934918 0.0250903 0
0.944297 0.0217203 0
0.953649 0.0182786 0
0.962975 0.0147652 0
0.972273 0.0111804 0
0.981544 0.00752451 0
0.990786 0.00379763 0
-1 0.90583 0.1
-1 0.819642 0.1
-1 0.740758 0.1
-1 0.66856 0.1
-1 0.602481 0.1
-1 0.542002 0.1
-1 0.486649 0.1
-1 0.435987 0.1
-1 0.389619 0.1
-1 0.347181 0.1
-1 0.308339 0.1
-1 0.27279 0.1
-1 0.240253 0.1
-1 0.210474 0.1
-1 0.183219 0.1
-1 0.158274 0.1
-1 0.135442 0.1
-1 0.114546 0.1
-1 0.0954213 0.1
-1 0.0779171 0.1
-1 0.0618965 0.1
-1 0.0472336 0.1
-1 0.0338135 0.1
-1 0.0215307 0.1
-1 0.010289 0.1
-0.99 0 0.1
-0.98 0 0.1
-0.97 0 0.1
-0.96 0 0.1
-0.95 0 0.1
-0.94 0 0.1
-0.93 0 0.1
-0.92 0 0.1
-0.91 0 0.1
-0.9 0 0.1
-0.89 0 0.1
-0.88 0 0.1
-0.87 0 0.1
-0.86 0 0.1
-0.85 0 0.1
-0.84 0 0.1
-0.83 0 0.1
-0.82 0 0.1
-0.81 0 0.1
-0.8 0 0.1
-0.79 0 0.1
-0.78 0 0.1
-0.77 0 0.1
-0.76 0 0.1
-0.75 0 0.1
-0.74 0 0.1
-0.73 0 0.1
-0.72 0 0.1
-0.71 0 0.1
-0.7 0 0.1
-0.69 0 0.1
-0.68 0 0.1
-0.67 0 0.1
-0.66 0 0.1
-0.65 0 0.1
-0.64 0 0.1
-0.63 0 0.1
-0.62 0 0.1
-0.61 0 0.1
-0.6 0 0.1
-0.59 0 0.1
-0.58 0 0.1
-0.57 0 0.1
-0.56 0 0.1
-0.55 0 0.1
-0.54 0 0.1
-0.53 0 0.1
-0.52 0 0.1
-0.51 0 0.1
-0.5 0 0.1
-0.49 0 0.1
-0.48 0 0.1
-0.47 0 0.1
-0.46 0 0.1
-0.45 0 0.1
-0.44 0 0.1
-0.43 0 0.1
-0.42 0 0.1
-0.41 0 0.1
-0.4 0 0.1
-0.39 0 0.1
-0.38 0 0.1
-0.37 0 0.1
-0.36 0 0.1
-0.35 0 0.1
-0.34 0 0.1
-0.33 0 0.1
-0.32 0 0.1
-0.31 0 0.1
-0.3 0 0.1
-0.29 0 0.1
-0.28 0 0.1
-0.27 0 0.1
-0.26 0 0.1
-0.25 0 0.1
-0.24 0 0.1
-0.23 0 0.1
-0.22 0 0.1
-0.21 0 0.1
-0.2 0 0.1
-0.19 0 0.1
-0.18 0 0.1
-0.17 0 0.1
-0.16 0 0.1
-0.15 0 0.1
-0.14 0 0.1
-0.13 0 0.1
-0.12 0 0.1
-0.11 0 0.1
-0.1 0 0.1
-0.09 0 0.1
-0.08 0 0.1
-0.07 0 0.1
-0.06 0 0.1
-0.05 0 0.1
-0.04 0 0.1
-0.03 0 0.1
-0.02 0 0.1
-0.01 0 0.1
0.00921362 0.00379763 0.1
0.0184561 0.00752451 0.1
0.0277268 0.0111804 0.1
0.0370253 0.0147652 0.1
0.0463511 0.0182786 0.1
0.0557034 0.0217203 0.1
0.0650819 0.0250903 0.1
0.074486 0.0283883 0.1
0.083915 0.0316141 0.1
0.0933685 0.0347675 0.1
0.102846 0.0378484 0.1
0.112347 0.0408565 0.1
0.12187 0.0437917 0.1
0.131416 0.0466538 0.1
0.140983 0.0494427 0.1
0.150572 0.0521581 0.1
0.160181 0.0547999 0.1
0.16981 0.0573681 0.1
0.179458 0.0598623 0.1
0.189125 0.0622825 0.1
0.198811 0.0646285 0.1
0.208514 0.0669001 0.1
0.218234 0.0690974 0.1
0.227971 0.07122 0.1
0.237724 0.073268 0.1
0.247493 0.0752411 0.1
0.257276 0.0771393 0.1
0.267073 0.0789625 0.1
0.276884 0.0807105 0.1
0.286708 0.0823832 0.1
0.296545 0.0839806 0.1
0.306394 0.0855025 0.1
0.316254 0.0869488 0.1
0.326125 0.0883196 0.1
0.336006 0.0896146 0.1
0.345896 0.0908339 0.1
0.355796 0.0919773 0.1
0.365704 0.0930447 0.1
0.375621 0.0940362 0.1
0.385544 0.0949517 0.1
0.395474 0.095791 0.1
0.40541 0.0965542 0.1
0.415352 0.0972412 0.1
0.425299 0.097852 0.1
0.43525 0.0983865 0.1
0.445205 0.0988447 0.1
0.455164 0.0992266 0.1
0.465125 0.0995321 0.1
0.475088 0.0997613 0.1
0.485052 0.0999141 0.1
0.495017 0.0999904 0.1
0.504983 0.0999904 0.1
0.514948 0.0999141 0.1
0.524912 0.0997613 0.1
0.534875 0.0995321 0.1
0.544836 0.0992266 0.1
0.554795 0.0988447 0.1
0.56475 0.0983865 0.1
0.574701 0.097852 0.1
0.584648 0.0972412 0.1
0.59459 0.0965542 0.1
0.604526 0.095791 0.1
0.614456 0.0949517 0.1
0.624379 0.0940362 0.1
0.634296 0.0930447 0.1
0.644204 0.0919773 0.1
0.654104 0.0908339 0.1
0.663994 0.0896146 0.1
0.673875 0.0883196 0.1
0.683746 0.0869488 0.1
0.693606 0.0855025 0.1
0.703455 0.0839806 0.1
0.713292 0.0823832 0.1
0.723116 0.0807105 0.1
0.732927 0.0789625 0.1
0.742724 0.0771393 0.1
0.752508 0.0752411 0.1
0.762276 0.073268 0.1
0.772029 0.07122 0.1
0.781766 0.0690974 0.1
0.791486 0.0669001 0.1
0.801189 0.0646285 0.1
0.810875 0.0622825 0.1
0.820542 0.0598623 0.1
0.83019 0.0573681 0.1
0.839819 0.0547999 0.1
0.849428 0.0521581 0.1
0.859017 0.0494427 0.1
0.868584 0.0466538 0.1
0.87813 0.0437917 0.1
0.887653 0.0408565 0.1
0.897154 0.0378484 0.1
0.906631 0.0347675 0.1
0.916085 0.0316141 0.1
0.925514 0.0283883 0.1
0.934918 0.0250903 0.1
0.944297 0.0217203 0.1
0.953649 0.0182786 0.1
0.962975 0.0147652 0.1
0.972273 0.0111804 0.1
0.981544 0.00752451 0.1
0.990786 0.00379763 0.1
1.01 0 0.1
1.02 0 0.1
1.03 0 0.1
1.04 0 0.1
1.05 0 0.1
1.06 0 0.1
1.07 0 0.1
1.08 0 0.1
1.09 0 0.1
1.1 0 0.1
1.11 0 0.1
1.12 0 0.1
1.13 0 0.1
1.14 0 0.1
1.15 0 0.1
1.16 0 0.1
1.17 0 0.1
1.18 0 0.1
1.19 0 0.1
1.2 0 0.1
1.21 0 0.1
1.22 0 0.1
1.23 0 0.1
1.24 0 0.1
1.25 0 0.1
1.26 0 0.1
1.27 0 0.1
1.28 0 0.1
1.29 0 0.1
1.3 0 0.1
1.31 0 0.1
1.32 0 0.1
1.33 0 0.1
1.34 0 0.1
1.35 0 0.1
1.36 0 0.1
1.37 0 0.1
1.38 0 0.1
1.39 0 0.1
1.4 0 0.1
1.41 0 0.1
1.42 0 0.1
1.43 0 0.1
1.44 0 0.1
1.45 0 0.1
1.46 0 0.1
1.47 0 0.1
1.48 0 0.1
1.49 0 0.1
1.5 0 0.1
1.51 0 0.1
1.52 0 0.1
1.53 0 0.1
1.54 0 0.1
1.55 0 0.1
1.56 0 0.1
1.57 0 0.1
1.58 0 0.1
1.59 0 0.1
1.6 0 0.1
1.61 0 0.1
1.62 0 0.1
1.63 0 0.1
1.64 0 0.1
1.65 0 0.1
1.66 0 0.1
1.67 0 0.1
1.68 0 0.1
1.69 0 0.1
1.7 0 0.1
1.71 0 0.1
1.72 0 0.1
1.73 0 0.1
1.74 0 0.1
1.75 0 0.1
1.76 0 0.1
1.77 0 0.1
1.78 0 0.1
1.79 0 0.1
1.8 0 0.1
1.81 0 0.1
1.82 0 0.1
1.83 0 0.1
1.84 0 0.1
1.85 0 0.1
1.86 0 0.1
1.87 0 0.1
1.88 0 0.1
[...]
CELL_DATA 7425
SCALARS rho float
LOOKUP_TABLE default
0.681065
0.805052
0.85247
0.854979
0.802207
0.850904
0.845262
0.853478
0.855892
0.77688
0.877114
0.809662
0.853833
0.854837
0.805146
0.852258
0.801682
0.855099
0.804049
0.779333
0.857542
0.820317
0.765965
0.855799
0.804189
0.763102
0.856904
0.846746
0.800758
0.808167
0.84431
0.73957
0.804135
0.725724
0.672842
0.855779
0.803743
0.853554
0.810616
0.853577
0.770445
0.751342
0.817656
0.703572
0.693162
0.766553
0.829794
0.853902
0.730013
0.731331
0.755618
0.805091
0.812026
0.801945
0.719675
0.687228
0.853489
0.802372
0.776944
0.751478
0.765506
0.807174
0.855171
0.802114
0.799674
0.852109
0.678899
0.804692
0.688939
0.808144
0.805226
0.803794
0.893228
0.819494
0.811111
0.855885
0.805048
0.801
0.855079
0.765557
0.852466
0.806826
0.851098
0.792758
0.855328
0.803197
0.667444
0.854421
0.675303
0.867928
0.706686
0.769766
0.843906
0.803912
0.852078
0.799413
0.83379
0.792639
0.854646
0.804266
0.843248
0.748996
0.803601
0.853969
0.682994
0.81054
0.85223
0.761729
0.852878
0.802037
0.851677
0.789294
0.793553
0.811509
0.817544
0.79153
0.85684
0.803738
0.708075
0.715933
0.804992
0.807631
0.856015
0.794642
0.876011
0.837425
0.807263
0.829859
0.724713
0.663865
0.852595
0.727401
0.669776
0.864704
0.728435
0.802264
0.810954
0.769558
0.672021
0.760019
0.775326
0.809971
0.851328
0.716693
0.804445
0.784865
0.66157
0.823247
0.786914
0.855694
0.841438
0.707168
0.8045
0.754009
0.716644
0.803482
0.809997
0.857076
0.824775
0.736192
0.803703
0.704458
0.803201
0.856714
0.852516
0.803434
0.855662
0.813624
0.80611
0.802964
0.852503
0.805919
0.825691
0.802011
0.802266
0.77019
0.805137
0.799766
0.701454
0.700518
0.802347
0.823058
0.89037
0.855674
0.702531
0.853497
0.801666
0.826521
0.802448
0.854411
0.856555
0.803908
0.806705
0.716384
0.852789
0.851149
0.781389
0.826843
0.857775
0.807411
0.811677
0.854024
0.692031
0.837466
0.665518
0.676133
0.681417
0.713148
0.826792
0.890214
0.807073
0.799558
0.858953
0.856286
0.851533
0.852629
0.852649
0.701851
0.702635
0.854105
0.677596
0.699199
0.713131
0.84808
0.852889
0.85589
0.857985
0.857035
0.861206
0.719347
0.832855
0.767595
0.805229
0.804249
0.803318
0.763347
0.756789
0.690355
0.710814
0.879455
0.871839
0.843499
0.807255
0.830106
0.811586
0.758109
0.853042
0.802697
0.854074
0.797061
0.852039
0.733111
0.856769
0.853795
0.77181
0.659906
0.802336
0.746948
0.840087
0.852624
0.740932
0.852301
0.852974
0.86595
0.849649
0.805657
0.803919
0.854657
0.877383
0.806776
0.689337
0.868087
0.813031
0.805504
0.855149
0.857085
0.854583
0.851405
0.796797
0.852834
0.863455
0.866048
0.826052
0.860793
0.803772
0.852268
0.803731
0.767323
0.762036
0.671395
0.707285
0.833874
0.855906
0.852461
0.852273
0.787522
0.709952
0.85535
0.674551
0.80509
0.803121
0.71094
0.684382
0.702993
0.852779
0.855135
0.856277
0.852712
0.85515
0.780339
0.810672
0.80285
0.857069
0.863248
0.864265
0.858131
0.80389
0.704514
0.823856
0.853966
0.745473
0.801727
0.803319
0.879272
0.852296
0.675046
0.854386
0.772223
0.850034
0.778786
0.850883
0.91337
0.802486
0.798862
0.723186
0.704106
0.721565
0.816397
0.854667
0.852825
0.854158
0.878438
0.854673
0.80228
0.824962
0.823901
0.784257
0.803786
0.891345
0.801869
0.806322
0.802993
0.803554
0.85443
0.852524
0.852206
0.718689
0.828428
0.732772
0.809722
0.720528
0.833422
0.803403
0.837331
0.77911
0.815522
0.843736
0.852106
0.802148
0.803496
0.811474
0.756688
0.822535
0.855648
0.854405
0.801248
0.754358
0.660109
0.806099
0.853485
0.803884
0.856815
0.798202
0.684977
0.842852
0.854498
0.804149
0.814536
0.855075
0.805596
0.804409
0.852388
0.807063
0.853115
0.781581
0.836499
0.80739
0.665022
0.804819
0.703966
0.856812
0.704966
0.851967
0.890246
0.708686
0.817322
0.787888
0.804302
0.885039
0.678231
0.853079
0.853228
0.803691
0.854667
0.811011
0.853661
0.857167
0.853604
0.770405
0.855517
0.768747
0.810467
0.796678
0.821689
0.794536
0.805596
0.802543
0.848194
0.795291
0.805466
0.687759
0.69388
0.7553
0.854554
0.864811
0.880415
0.854691
0.801651
0.856521
0.805696
0.847598
0.736283
0.80308
0.764391
0.845078
0.851013
0.807005
0.721223
0.772835
0.666653
0.682176
0.803287
0.685994
0.824275
0.772312
0.78232
0.740296
0.797746
0.803222
0.850288
0.852926
0.85244
0.854221
0.767624
0.715021
0.8614
0.841647
0.789821
0.810915
0.803827
0.860686
0.766662
0.873355
0.770933
0.770653
0.801863
0.848488
0.67261
0.801785
0.86389
0.813278
0.854023
0.849836
0.802045
0.816304
0.855713
0.803842
0.864818
0.745032
0.717818
0.802487
0.823234
0.852825
0.762904
0.868159
0.802859
0.851899
0.801673
0.787174
0.809398
0.67637
0.733574
0.700283
0.852564
0.828582
0.854265
0.785255
0.809848
0.853019
0.852437
0.801923
0.779658
0.831485
0.814966
0.803885
0.758645
0.854252
0.850693
0.837145
0.853391
0.8545
0.875997
0.872766
0.787968
0.682496
0.856437
0.806536
0.86074
0.853405
0.82186
0.854448
0.853987
0.717878
0.80686
0.840545
0.856879
0.819386
0.834587
0.806071
0.85767
0.801709
0.856831
0.852964
0.885607
0.679095
0.854333
0.840622
0.893286
0.66148
0.852223
0.828388
0.797922
0.814196
0.822781
0.882146
0.838252
0.857592
0.813566
0.694935
0.803546
0.80447
0.756712
0.868656
0.768172
0.803137
0.853326
0.854987
0.856806
0.797278
0.855072
0.859492
0.819479
0.823872
0.840305
0.802401
0.811309
0.808132
0.80528
0.847987
0.803588
0.865267
0.775788
0.810024
0.803983
0.840129
0.771946
0.856613
0.852291
0.788123
0.854241
0.844278
0.826792
0.853983
0.802969
0.802784
0.866466
0.774333
0.824938
0.864777
0.804417
0.66589
0.855738
0.855943
0.867918
0.849227
0.803704
0.80951
0.870874
0.784693
0.802762
0.803252
0.856565
0.770116
0.804128
0.828173
0.809421
0.797244
0.828345
0.864893
0.80625
0.862228
0.802475
0.854024
0.853122
0.804497
0.859483
0.85568
0.747608
0.852349
0.806678
0.853189
0.912043
0.802842
0.846018
0.802523
0.802636
0.852319
0.802687
0.80407
0.787981
0.756431
0.843709
0.856682
0.793859
0.825205
0.852982
0.812052
0.85322
0.806751
0.854687
0.886795
0.857169
0.702927
0.753864
0.86327
0.852226
0.864346
0.852056
0.86797
0.808476
0.83666
0.802114
0.860847
0.877363
0.871461
0.778391
0.853618
0.851825
0.753651
0.817435
0.781503
0.802401
0.778461
0.852333
0.857332
0.821639
0.859039
0.852816
0.854948
0.848767
0.85227
0.857241
0.811322
0.80162
0.809514
0.78312
0.854323
0.779701
0.856086
0.813416
0.702819
0.785924
0.811692
0.801992
0.852578
0.804289
0.85231
0.852235
0.80543
0.851851
0.804213
0.807293
0.705036
0.86756
0.854032
0.855153
0.815309
0.803418
0.750014
0.808107
0.91365
0.852321
0.8033
0.853405
0.789197
0.808586
0.852263
0.852929
0.813568
0.855088
0.852397
0.693691
0.811069
0.801921
0.854939
0.806004
0.803294
0.696636
0.807151
0.804306
0.761923
0.835079
0.852124
0.803782
0.808398
0.80196
0.851459
0.839652
0.854996
0.856859
0.754428
0.855013
0.801317
0.808701
0.840034
0.817668
0.851907
0.80262
0.762088
0.851744
0.820228
0.85263
0.793872
0.807231
0.852864
0.75532
0.847872
0.735886
0.885689
0.754556
0.866073
0.835953
0.886704
0.79705
0.8033
0.852785
0.834217
0.835414
0.852265
0.852556
0.850731
0.832897
0.804526
0.808225
0.771105
0.825899
0.80071
0.731728
0.854022
0.698146
0.802579
0.857463
0.80556
0.7519
0.800292
0.853612
0.714153
0.789797
0.85198
0.853624
0.84493
0.707598
0.769666
0.811942
0.80353
0.856651
0.802918
0.776784
0.852834
0.852533
0.856095
0.805863
0.803875
0.804759
0.805424
0.661244
0.856679
0.831577
0.693165
0.852755
0.852428
0.852954
0.852301
0.852926
0.853869
0.802003
0.796966
0.777742
0.821587
0.827616
0.823545
0.834451
0.780464
0.849203
0.775557
0.778546
0.809704
0.852882
0.854634
0.801485
0.855271
0.856564
0.835011
0.850451
0.851695
0.852657
0.86067
0.853168
0.855823
0.811063
0.853848
0.802688
0.852423
0.804296
0.853485
0.85454
0.690597
0.85445
0.859383
0.854998
0.835491
0.67217
0.852162
0.830915
0.662057
0.742304
0.733205
0.856776
0.833552
0.81077
0.854815
0.803708
0.852247
0.810882
0.667751
0.754192
0.817231
0.806333
0.852191
0.804046
0.809671
0.853273
0.851099
0.802045
0.757189
0.853599
0.803684
0.813622
0.853478
0.791797
0.670912
0.858425
0.813319
0.751803
0.803133
0.807888
0.705928
0.826349
0.851767
0.855657
0.852355
0.825683
0.804832
0.767382
0.708341
0.663749
0.854497
0.80978
0.787187
0.85588
0.813308
0.852274
0.885114
0.795364
0.853043
0.852187
0.854244
0.89461
0.852823
0.852989
0.803453
0.8128
0.753434
0.855882
0.80234
0.811357
0.803461
0.790329
0.872569
0.852713
0.858378
0.852979
0.765974
0.771548
0.805068
0.850844
0.803771
0.805126
0.803007
0.810283
0.852454
0.778904
0.821044
0.720661
0.85309
0.803156
0.7462
0.844267
0.847144
0.778121
0.802905
0.793121
0.876648
0.801272
0.856938
0.798062
0.802639
0.853308
0.804129
0.677504
0.820113
0.825245
0.836495
0.853101
0.852965
0.776482
0.806852
0.839945
0.826396
0.813594
0.860211
0.691972
0.748793
0.856653
0.781497
0.853249
0.802644
0.856863
0.803597
0.836135
0.787867
0.796325
0.800343
0.848505
0.803784
0.698859
0.784278
0.800037
0.846896
0.853244
0.856136
0.671303
0.823247
0.789665
0.875822
0.801415
0.817271
0.80277
0.815687
0.801714
0.852505
0.854512
0.820835
0.851336
0.71816
0.80759
0.847702
0.805245
0.85294
0.803918
0.713957
0.820807
0.804576
0.811453
0.826463
0.866917
0.857881
0.854535
0.802205
0.805426
0.803669
0.787551
0.69066
0.834381
0.77975
0.725925
0.851725
0.801698
0.782887
0.802521
0.78924
0.791102
0.855578
0.822118
0.832106
0.851598
0.845128
0.842248
0.854712
0.834573
0.756216
0.74919
0.705377
0.856449
0.883523
0.837995
0.838403
0.86717
0.877311
0.771551
0.846609
0.877806
0.840889
0.85716
0.843131
0.778204
0.849071
0.808061
0.807521
0.662962
0.856176
0.776705
0.854825
0.813114
0.804047
0.715995
0.854714
0.688755
0.823739
0.803907
0.843454
0.873231
0.804031
0.797293
0.852805
0.851222
0.806149
0.777237
0.669879
0.8523
0.803181
0.82845
0.854399
0.837686
0.806665
0.8561
0.769751
0.674792
0.896236
0.830875
0.852563
0.804253
0.721226
0.801631
0.802553
0.852827
0.784324
0.708894
0.893158
0.762379
0.86059
0.85279
0.858398
0.86425
0.8264
0.804813
0.853458
0.868393
0.776883
0.882815
0.853625
0.667316
0.804346
0.759425
0.871582
0.798312
0.804193
0.8041
0.802266
0.803156
0.849053
0.856921
0.85229
0.807232
0.803651
0.80182
0.802519
0.856401
0.852295
0.803524
0.856688
0.869059
0.803748
0.813632
0.803326
0.837805
0.775897
0.854188
0.853183
0.71463
0.761799
0.805749
0.852062
0.805451
0.667323
0.853661
0.852173
0.83189
0.805244
0.80389
0.802895
0.817601
0.672611
0.804479
0.852423
0.833263
0.852766
0.856432
0.833081
0.773569
0.803372
0.804585
0.792695
0.802129
0.794146
0.759831
0.802985
0.813036
0.850674
0.853212
0.846696
0.673063
0.864127
0.857167
0.819164
0.803701
0.820872
0.855357
0.903081
0.825809
0.863857
0.805593
0.797961
0.875903
0.802474
0.800849
0.852383
0.720762
0.707935
0.803996
0.804325
0.691972
0.715252
0.800593
0.853443
0.855927
0.853357
0.761197
0.842503
0.855144
0.854863
0.847446
0.811064
0.857194
0.790217
0.805409
0.851841
0.855614
0.730366
0.672301
0.857237
0.711667
0.764001
0.666688
0.863376
0.80259
0.679647
0.681602
0.848423
0.913893
0.852089
0.713964
0.853032
0.816315
0.803534
0.790692
0.820787
0.842252
0.793295
0.851473
0.834927
0.682543
0.852054
0.801371
0.851281
0.711084
0.853004
0.820065
0.853291
0.802593
0.722272
0.861007
0.831804
0.807874
0.666749
0.852184
0.80272
0.849794
0.722916
0.852213
0.708682
0.771558
0.803328
0.824871
0.781858
0.768015
0.727008
0.674805
0.713177
0.802565
0.676898
0.853372
0.689738
0.79191
0.744023
0.716754
0.68306
0.78288
0.803564
0.726097
0.852935
0.80289
0.80423
0.795207
0.899213
0.801967
0.853795
0.804086
0.856763
0.753516
0.80848
0.77649
0.853125
0.896437
0.856137
0.787051
0.853048
0.803698
0.890343
0.804458
0.792768
0.870076
0.808859
0.800609
0.806815
0.792597
0.790172
0.732324
0.804967
0.803477
0.850627
0.858318
0.685583
0.809124
0.675391
0.725107
0.718716
0.818693
0.852608
0.848507
0.804049
0.689646
0.884249
0.803552
0.803688
0.879351
0.856721
0.783496
0.856428
0.803387
0.85226
0.803762
0.761741
0.804606
0.738211
0.801835
0.834674
0.802982
0.703179
0.838292
0.834917
0.74612
0.817853
0.672926
0.670402
0.804065
0.746536
0.767364
0.669295
0.77402
0.854138
0.71394
0.783447
0.727948
0.835944
0.727941
0.795811
0.806817
0.848451
0.729397
0.80321
0.903563
0.799365
0.852307
0.701556
0.746898
0.835546
0.856491
0.853127
0.868447
0.854656
0.804339
0.803685
0.803966
0.763363
0.729094
0.695278
0.806613
0.686778
0.735291
0.849311
0.852323
0.807331
0.80211
0.697112
0.847853
0.803913
0.67599
0.680217
0.783625
0.803692
0.837426
0.667878
0.800773
0.677314
0.772394
0.691366
0.814144
0.803865
0.685526
0.687311
0.88209
0.810104
0.798679
0.769585
0.719031
0.716291
0.718721
0.851061
0.793486
0.772743
0.6998
0.791856
0.847401
0.852349
0.85628
0.852631
0.861946
0.793836
0.851873
0.803637
0.868975
0.857134
0.803676
0.855095
0.734142
0.847552
0.84728
0.850393
0.847202
0.850639
0.803825
0.851458
0.847103
0.847151
0.851175
0.800719
0.850906
0.852259
0.725422
0.852143
0.882846
0.851986
0.795631
0.711257
0.875579
0.852355
0.854285
0.802256
0.85531
0.765322
0.871363
0.702552
0.77765
0.809239
0.852501
0.803929
0.803942
0.85797
0.807334
0.805949
0.852725
0.809971
0.861869
0.863198
0.843955
0.723535
0.720775
0.852422
0.851248
0.823268
0.869289
0.865969
0.811782
0.848625
0.809878
0.852313
0.851667
0.852616
0.852298
0.813687
0.852476
0.870191
0.852454
0.850184
0.852259
0.851866
0.79048
0.84948
0.805508
0.805853
0.805807
0.852308
0.855115
0.818125
0.762365
0.853778
0.80601
0.848266
0.806122
0.872758
0.804667
0.851941
0.855679
0.806083
0.683444
0.804322
0.855933
0.815416
0.809633
0.856151
0.854329
0.855542
0.809457
0.877997
0.669762
0.856328
0.862613
0.85542
0.803884
0.808318
0.852882
0.862531
0.802807
0.803439
0.835946
0.694164
0.856489
0.808806
0.808501
0.854291
0.855671
0.855401
0.854796
0.671831
0.812471
0.760904
0.895769
0.85103
0.744091
0.724521
0.852681
0.805635
0.818382
0.709259
0.80326
0.854876
0.710365
0.802449
0.804606
0.815979
0.83078
0.874326
0.809156
0.685704
0.802933
0.780564
0.81069
0.898651
0.830475
0.814487
0.818643
0.85152
0.854718
0.853311
0.859466
0.70509
0.831924
0.716814
0.853939
0.854026
0.723188
0.854126
0.836953
0.724426
0.845743
0.739967
0.877482
0.788607
0.853389
0.856495
0.854235
0.73619
0.854217
0.698626
0.802519
0.796145
0.85262
0.852795
0.746149
0.773337
0.856829
0.854186
0.842936
0.853074
0.854624
0.854461
0.802172
0.663757
0.764751
0.7777
0.742635
0.861302
0.822324
0.832117
0.812831
0.803048
0.855972
0.856478
0.856379
0.784718
0.669077
0.803552
0.68156
0.834931
0.82403
0.80236
0.803877
0.813798
0.805999
0.814446
0.753431
0.854709
0.874316
0.84083
0.802012
0.749208
0.811263
0.792964
0.852887
0.679677
0.797684
0.841744
0.801782
0.721005
0.855136
0.842296
0.854086
0.666346
0.807039
0.803759
0.853667
0.715022
0.855422
0.803845
0.803991
0.803297
0.855193
0.854969
0.851417
0.855886
0.728788
0.804748
0.803831
0.856217
0.90414
0.855303
0.806655
0.838559
0.799989
0.803814
0.68295
0.856367
0.803712
0.82524
0.803854
0.881304
0.842656
0.850307
0.802758
0.852375
0.786547
0.67161
0.793383
0.825626
0.839361
0.812881
0.85336
0.668398
0.875677
0.854761
0.805231
0.769976
0.748629
0.81297
0.845386
0.856257
0.813488
0.856278
0.804332
0.73814
0.803604
0.80191
0.771167
0.853459
0.853486
0.875577
0.851603
0.856392
0.69473
0.808273
0.856387
0.802882
0.805156
0.816767
0.803616
0.854057
0.855218
0.799963
0.804713
0.803074
0.84494
0.861576
0.804121
0.801864
0.803588
0.773883
0.85248
0.674062
0.881038
0.804218
0.662817
0.804569
0.829799
0.819365
0.715139
0.689731
0.803425
0.805196
0.803025
0.874903
0.784886
0.846473
0.803147
0.862439
0.80477
0.804601
0.847833
0.847961
0.820086
0.852312
0.852062
0.880277
0.770995
0.868394
0.851603
0.715374
0.803997
0.803327
0.803671
0.852802
0.853057
0.804951
0.803149
0.802528
0.853347
0.804378
0.804191
0.802315
0.854022
0.804332
0.803413
0.805811
0.85492
0.802916
0.80338
0.824157
0.802167
0.852675
0.71364
0.854948
0.867494
0.805539
0.852504
0.803986
0.85613
0.861129
0.803945
0.852698
0.802684
0.807984
0.793933
0.80348
0.804382
0.806072
0.806407
0.805749
0.851715
0.853035
0.810516
0.85756
0.804008
0.803416
0.802447
0.79244
0.857975
0.80396
0.852371
0.85271
0.807292
0.805994
0.803705
0.860947
0.861373
0.802254
0.732679
0.803014
0.864119
0.852154
0.806507
0.804632
0.818731
0.864373
0.718727
0.828109
0.825186
0.84836
0.851979
0.81133
0.812849
0.809023
0.804344
0.812175
0.80841
0.676974
0.868044
0.797523
0.853541
0.872684
0.852425
0.796447
0.808708
0.853277
0.849807
0.804409
0.722129
0.810165
0.878912
0.828843
0.802764
0.810134
0.883685
0.802466
0.888675
0.831529
0.852015
0.852695
0.804161
0.804885
0.855129
0.852328
0.805096
0.854131
0.816835
0.892409
0.820158
0.808685
0.802646
0.852709
0.809849
0.83718
0.80907
0.806581
0.812831
0.852341
0.852456
0.853243
0.851071
0.830429
0.814619
0.761568
0.723178
0.855245
0.852244
0.805437
0.854049
0.683346
0.870301
0.802262
0.805932
0.851497
0.853584
0.804417
0.853887
0.802776
0.803117
0.808668
0.841044
0.796814
0.813312
0.853215
0.841085
0.832463
0.802674
0.836491
0.803882
0.812282
0.806299
0.802224
0.802324
0.802937
0.834593
0.799582
0.804466
0.859884
0.830353
0.764236
0.694522
0.808185
0.759451
0.802239
0.706858
0.804737
0.807198
0.80461
0.852268
0.832551
0.85381
0.856003
0.809592
0.803956
0.892827
0.852387
0.806274
0.782974
0.710887
0.809494
0.807734
0.781558
0.853175
0.853929
0.794721
0.801692
0.80444
0.723425
0.851226
0.803986
0.81656
0.787309
0.869529
0.809248
0.804544
0.804433
0.811982
0.810387
0.678577
0.803387
0.862481
0.853866
0.800695
0.695501
0.814343
0.853553
0.856858
0.858832
0.853738
0.804545
0.853126
0.807645
0.67509
0.808336
0.783649
0.800741
0.854291
0.746675
0.852932
0.843851
0.829428
0.723966
0.899703
0.791358
0.812223
0.799681
0.786115
0.808932
0.847465
0.808834
0.803869
0.854453
0.847633
0.789309
0.791237
0.85292
0.809272
0.832243
0.850793
0.833021
0.833688
0.802668
0.856066
0.874195
0.845379
0.818049
0.854889
0.684744
0.797939
0.85139
0.849441
0.881011
0.856417
0.818307
0.676543
0.84913
0.802826
0.853315
0.815341
0.866459
0.855537
0.81031
0.892085
0.779953
0.812
0.854619
0.847089
0.805143
0.853366
0.717464
0.801397
0.869168
0.831022
0.811184
0.847549
0.854798
0.808881
0.738404
0.847112
0.802653
0.861846
0.851613
0.812414
0.853893
0.82502
0.84686
0.851308
0.809841
0.852338
0.789105
0.851476
0.852228
0.814289
0.855665
0.855649
0.850432
0.851025
0.855899
0.846845
0.862418
0.852089
0.802628
0.823695
0.852298
0.816286
0.813855
0.802723
0.803219
0.855974
0.852387
0.827422
0.856128
0.850734
0.802445
0.846663
0.856314
0.855287
0.802736
0.85312
0.854483
0.804697
0.85648
0.859198
0.801983
0.846826
0.82139
0.676784
0.85303
0.851943
0.846738
0.850186
0.852603
0.853395
0.851762
0.852352
0.750546
0.856015
0.803164
0.852571
0.818875
0.832439
0.852968
0.838196
0.856479
0.854293
0.853096
0.817669
0.819579
0.83857
0.855559
0.852562
0.8185
0.857975
0.854594
0.85249
0.803645
0.856618
0.855391
0.683937
0.71848
0.813429
0.852988
0.803516
0.851391
0.852496
0.838736
0.755027
0.85404
0.759352
0.84408
0.848138
0.855411
0.852711
0.854137
0.806452
0.856491
0.851901
0.838085
0.854485
0.763311
0.818813
0.851833
0.802389
0.803761
0.85273
0.872566
0.855383
0.854877
0.8683
0.850442
0.860595
0.700837
0.855653
0.853605
0.848087
0.852272
0.84817
0.852268
0.761423
0.802224
0.829447
0.802421
0.802309
0.805891
0.784396
0.854796
0.852543
0.775113
0.85222
0.825525
0.854307
0.852218
0.80204
0.851873
0.856477
0.823147
0.808126
0.839528
0.849756
0.704335
0.852375
0.852538
0.856664
0.721956
0.729748
0.678845
0.821897
0.691496
0.85107
0.768297
0.839579
0.854224
0.771878
0.842955
0.850906
0.780344
0.807731
0.852316
0.797223
0.851121
0.852471
0.852405
0.856379
0.846539
0.804129
0.77609
0.834736
0.851271
0.851452
0.801895
0.814684
0.804049
0.852448
0.853781
0.851425
0.851566
0.679895
0.848277
0.852268
0.852346
0.786116
0.814954
0.806371
0.81747
0.843284
0.684329
0.809929
0.802109
0.852559
0.851937
0.851754
0.854755
0.852292
0.849205
0.850578
0.803359
0.849946
0.866929
0.851831
0.795177
0.851115
0.698314
0.730538
0.855971
0.852073
0.803963
0.853261
0.746019
0.803642
0.803605
0.852665
0.689289
0.852255
0.802159
0.852684
0.861371
0.791331
0.853126
0.852271
0.822488
0.853655
0.781146
0.803531
0.853935
0.908978
0.825383
0.85237
0.829921
0.851273
0.86475
0.730627
0.697909
0.84894
0.803095