# vtk DataFile Version 1.0
unstructured grid
ascii
DATASET UNSTRUCTURED_GRID
points 7812 float
-1 0 0
-1 1 0
2 0 0
2 1 0
0 0 0
1 0 0
-1 1 0.1
-1 0 0.1
0 0 0.1
1 0 0.1
2 0 0.1
2 1 0.1
-0.99 0 0
-0.98 0 0
-0.97 0 0
-0.96 0 0
-0.95 0 0
-0.94 0 0
-0.93 0 0
-0.92 0 0
-0.91 0 0
-0.9 0 0
-0.89 0 0
-0.88 0 0
-0.87 0 0
-0.86 0 0
-0.85 0 0
-0.84 0 0
-0.83 0 0
-0.82 0 0
-0.81 0 0
-0.8 0 0
-0.79 0 0
-0.78 0 0
-0.77 0 0
-0.76 0 0
-0.75 0 0
-0.74 0 0
-0.73 0 0
-0.72 0 0
-0.71 0 0
-0.7 0 0
-0.69 0 0
-0.68 0 0
-0.67 0 0
-0.66 0 0
-0.65 0 0
-0.64 0 0
-0.63 0 0
-0.62 0 0
-0.61 0 0
-0.6 0 0
-0.59 0 0
-0.58 0 0
-0.57 0 0
-0.56 0 0
-0.55 0 0
-0.54 0 0
-0.53 0 0
-0.52 0 0
-0.51 0 0
-0.5 0 0
-0.49 0 0
-0.48 0 0
-0.47 0 0
-0.46 0 0
-0.45 0 0
-0.44 0 0
-0.43 0 0
-0.42 0 0
-0.41 0 0
-0.4 0 0
-0.39 0 0
-0.38 0 0
-0.37 0 0
-0.36 0 0
-0.35 0 0
-0.34 0 0
-0.33 0 0
-0.32 0 0
-0.31 0 0
-0.3 0 0
-0.29 0 0
-0.28 0 0
-0.27 0 0
-0.26 0 0
-0.25 0 0
-0.24 0 0
-0.23 0 0
-0.22 0 0
-0.21 0 0
-0.2 0 0
-0.19 0 0
-0.18 0 0
-0.17 0 0
-0.16 0 0
-0.15 0 0
-0.14 0 0
-0.13 0 0
-0.12 0 0
-0.11 0 0
-0.1 0 0
-0.09 0 0
-0.08 0 0
-0.07 0 0
-0.06 0 0
-0.05 0 0
-0.04 0 0
-0.03 0 0
-0.02 0 0
-0.01 0 0
1.01 0 0
1.02 0 0
1.03 0 0
1.04 0 0
1.05 0 0
1.06 0 0
1.07 0 0
1.08 0 0
1.09 0 0
1.1 0 0
1.11 0 0
1.12 0 0
1.13 0 0
1.14 0 0
1.15 0 0
1.16 0 0
1.17 0 0
1.18 0 0
1.19 0 0
1.2 0 0
1.21 0 0
1.22 0 0
1.23 0 0
1.24 0 0
1.25 0 0
1.26 0 0
1.27 0 0
1.28 0 0
1.29 0 0
1.3 0 0
1.31 0 0
1.32 0 0
1.33 0 0
1.34 0 0
1.35 0 0
1.36 0 0
1.37 0 0
1.38 0 0
1.39 0 0
1.4 0 0
1.41 0 0
1.42 0 0
1.43 0 0
1.44 0 0
1.45 0 0
1.46 0 0
1.47 0 0
1.48 0 0
1.49 0 0
1.5 0 0
1.51 0 0
1.52 0 0
1.53 0 0
1.54 0 0
1.55 0 0
1.56 0 0
1.57 0 0
1.58 0 0
1.59 0 0
1.6 0 0
1.61 0 0
1.62 0 0
1.63 0 0
1.64 0 0
1.65 0 0
1.66 0 0
1.67 0 0
1.68 0 0
1.69 0 0
1.7 0 0
1.71 0 0
1.72 0 0
1.73 0 0
1.74 0 0
1.75 0 0
1.76 0 0
1.77 0 0
1.78 0 0
1.79 0 0
1.8 0 0
1.81 0 0
1.82 0 0
1.83 0 0
1.84 0 0
1.85 0 0
1.86 0 0
1.87 0 0
1.88 0 0
1.89 0 0
1.9 0 0
1.91 0 0
1.92 0 0
1.93 0 0
1.94 0 0
1.95 0 0
1.96 0 0
1.97 0 0
1.98 0 0
1.99 0 0
2 0.010289 0
2 0.0215307 0
2 0.0338135 0
2 0.0472336 0
2 0.0618965 0
2 0.0779171 0
2 0.0954213 0
2 0.114546 0
2 0.135442 0
2 0.158274 0
2 0.183219 0
2 0.210474 0
2 0.240253 0
2 0.27279 0
2 0.308339 0
2 0.347181 0
2 0.389619 0
2 0.435987 0
2 0.486649 0
2 0.542002 0
2 0.602481 0
2 0.66856 0
2 0.740758 0
2 0.819642 0
2 0.90583 0
1.9 1 0
1.8 1 0
1.7 1 0
1.6 1 0
1.5 1 0
1.4 1 0
1.3 1 0
1.2 1 0
1.1 1 0
1 1 0
0.9 1 0
0.8 1 0
0.7 1 0
0.6 1 0
0.5 1 0
0.4 1 0
0.3 1 0
0.2 1 0
0.1 1 0
3.69793e-12 1 0
-0.1 1 0
-0.2 1 0
-0.3 1 0
-0.4 1 0
-0.5 1 0
-0.6 1 0
-0.7 1 0
-0.8 1 0
-0.9 1 0
-1 0.90583 0
-1 0.819642 0
-1 0.740758 0
-1 0.66856 0
-1 0.602481 0
-1 0.542002 0
-1 0.486649 0
-1 0.435987 0
-1 0.389619 0
-1 0.347181 0
-1 0.308339 0
-1 0.27279 0
-1 0.240253 0
-1 0.210474 0
-1 0.183219 0
-1 0.158274 0
-1 0.135442 0
-1 0.114546 0
-1 0.0954213 0
-1 0.0779171 0
-1 0.0618965 0
-1 0.0472336 0
-1 0.0338135 0
-1 0.0215307 0
-1 0.010289 0
0.00921362 0.00379763 0
0.0184561 0.00752451 0
0.0277268 0.0111804 0
0.0370253 0.0147652 0
0.0463511 0.0182786 0
0.0557034 0.0217203 0
0.0650819 0.0250903 0
0.074486 0.0283883 0
0.083915 0.0316141 0
0.0933685 0.0347675 0
0.102846 0.0378484 0
0.112347 0.0408565 0
0.12187 0.0437917 0
0.131416 0.0466538 0
0.140983 0.0494427 0
0.150572 0.0521581 0
0.160181 0.0547999 0
0.16981 0.0573681 0
0.179458 0.0598623 0
0.189125 0.0622825 0
0.198811 0.0646285 0
0.208514 0.0669001 0
0.218234 0.0690974 0
0.227971 0.07122 0
0.237724 0.073268 0
0.247493 0.0752411 0
0.257276 0.0771393 0
0.267073 0.0789625 0
0.276884 0.0807105 0
0.286708 0.0823832 0
0.296545 0.0839806 0
0.306394 0.0855025 0
0.316254 0.0869488 0
0.326125 0.0883196 0
0.336006 0.0896146 0
0.345896 0.0908339 0
0.355796 0.0919773 0
0.365704 0.0930447 0
0.375621 0.0940362 0
0.385544 0.0949517 0
0.395474 0.095791 0
0.40541 0.0965542 0
0.415352 0.0972412 0
0.425299 0.097852 0
0.43525 0.0983865 0
0.445205 0.0988447 0
0.455164 0.0992266 0
0.465125 0.0995321 0
0.475088 0.0997613 0
0.485052 0.0999141 0
0.495017 0.0999904 0
0.504983 0.0999904 0
0.514948 0.0999141 0
0.524912 0.0997613 0
0.534875 0.0995321 0
0.544836 0.0992266 0
0.554795 0.0988447 0
0.56475 0.0983865 0
0.574701 0.097852 0
0.584648 0.0972412 0
0.59459 0.0965542 0
0.604526 0.095791 0
0.614456 0.0949517 0
0.624379 0.0940362 0
0.634296 0.0930447 0
0.644204 0.0919773 0
0.654104 0.0908339 0
0.663994 0.0896146 0
0.673875 0.0883196 0
0.683746 0.0869488 0
0.693606 0.0855025 0
0.703455 0.0839806 0
0.713292 0.0823832 0
0.723116 0.0807105 0
0.732927 0.0789625 0
0.742724 0.0771393 0
0.752508 0.0752411 0
0.762276 0.073268 0
0.772029 0.07122 0
0.781766 0.0690974 0
0.791486 0.0669001 0
0.801189 0.0646285 0
0.810875 0.0622825 0
0.820542 0.0598623 0
0.83019 0.0573681 0
0.839819 0.0547999 0
0.849428 0.0521581 0
0.859017 0.0494427 0
0.868584 0.0466538 0
0.87813 0.0437917 0
0.887653 0.0408565 0
0.897154 0.0378484 0
0.906631 0.0347675 0
0.916085 0.0316141 0
0.925514 0.0283883 0
0.934918 0.0250903 0
0.944297 0.0217203 0
0.953649 0.0182786 0
0.962975 0.0147652 0
0.972273 0.0111804 0
0.981544 0.00752451 0
0.990786 0.00379763 0
-1 0.90583 0.1
-1 0.819642 0.1
-1 0.740758 0.1
-1 0.66856 0.1
-1 0.602481 0.1
-1 0.542002 0.1
-1 0.486649 0.1
-1 0.435987 0.1
-1 0.389619 0.1
-1 0.347181 0.1
-1 0.308339 0.1
-1 0.27279 0.1
-1 0.240253 0.1
-1 0.210474 0.1
-1 0.183219 0.1
-1 0.158274 0.1
-1 0.135442 0.1
-1 0.114546 0.1
-1 0.0954213 0.1
-1 0.0779171 0.1
-1 0.0618965 0.1
-1 0.0472336 0.1
-1 0.0338135 0.1
-1 0.0215307 0.1
-1 0.010289 0.1
-0.99 0 0.1
-0.98 0 0.1
-0.97 0 0.1
-0.96 0 0.1
-0.95 0 0.1
-0.94 0 0.1
-0.93 0 0.1
-0.92 0 0.1
-0.91 0 0.1
-0.9 0 0.1
-0.89 0 0.1
-0.88 0 0.1
-0.87 0 0.1
-0.86 0 0.1
-0.85 0 0.1
-0.84 0 0.1
-0.83 0 0.1
-0.82 0 0.1
-0.81 0 0.1
-0.8 0 0.1
-0.79 0 0.1
-0.78 0 0.1
-0.77 0 0.1
-0.76 0 0.1
-0.75 0 0.1
-0.74 0 0.1
-0.73 0 0.1
-0.72 0 0.1
-0.71 0 0.1
-0.7 0 0.1
-0.69 0 0.1
-0.68 0 0.1
-0.67 0 0.1
-0.66 0 0.1
-0.65 0 0.1
-0.64 0 0.1
-0.63 0 0.1
-0.62 0 0.1
-0.61 0 0.1
-0.6 0 0.1
-0.59 0 0.1
-0.58 0 0.1
-0.57 0 0.1
-0.56 0 0.1
-0.55 0 0.1
-0.54 0 0.1
-0.53 0 0.1
-0.52 0 0.1
-0.51 0 0.1
-0.5 0 0.1
-0.49 0 0.1
-0.48 0 0.1
-0.47 0 0.1
-0.46 0 0.1
-0.45 0 0.1
-0.44 0 0.1
-0.43 0 0.1
-0.42 0 0.1
-0.41 0 0.1
-0.4 0 0.1
-0.39 0 0.1
-0.38 0 0.1
-0.37 0 0.1
-0.36 0 0.1
-0.35 0 0.1
-0.34 0 0.1
-0.33 0 0.1
-0.32 0 0.1
-0.31 0 0.1
-0.3 0 0.1
-0.29 0 0.1
-0.28 0 0.1
-0.27 0 0.1
-0.26 0 0.1
-0.25 0 0.1
-0.24 0 0.1
-0.23 0 0.1
-0.22 0 0.1
-0.21 0 0.1
-0.2 0 0.1
-0.19 0 0.1
-0.18 0 0.1
-0.17 0 0.1
-0.16 0 0.1
-0.15 0 0.1
-0.14 0 0.1
-0.13 0 0.1
-0.12 0 0.1
-0.11 0 0.1
-0.1 0 0.1
-0.09 0 0.1
-0.08 0 0.1
-0.07 0 0.1
-0.06 0 0.1
-0.05 0 0.1
-0.04 0 0.1
-0.03 0 0.1
-0.02 0 0.1
-0.01 0 0.1
0.00921362 0.00379763 0.1
0.0184561 0.00752451 0.1
0.0277268 0.0111804 0.1
0.0370253 0.0147652 0.1
0.0463511 0.0182786 0.1
0.0557034 0.0217203 0.1
0.0650819 0.0250903 0.1
0.074486 0.0283883 0.1
0.083915 0.0316141 0.1
0.0933685 0.0347675 0.1
0.102846 0.0378484 0.1
0.112347 0.0408565 0.1
0.12187 0.0437917 0.1
0.131416 0.0466538 0.1
0.140983 0.0494427 0.1
0.150572 0.0521581 0.1
0.160181 0.0547999 0.1
0.16981 0.0573681 0.1
0.179458 0.0598623 0.1
0.189125 0.0622825 0.1
0.198811 0.0646285 0.1
0.208514 0.0669001 0.1
0.218234 0.0690974 0.1
0.227971 0.07122 0.1
0.237724 0.073268 0.1
0.247493 0.0752411 0.1
0.257276 0.0771393 0.1
0.267073 0.0789625 0.1
0.276884 0.0807105 0.1
0.286708 0.0823832 0.1
0.296545 0.0839806 0.1
0.306394 0.0855025 0.1
0.316254 0.0869488 0.1
0.326125 0.0883196 0.1
0.336006 0.0896146 0.1
0.345896 0.0908339 0.1
0.355796 0.0919773 0.1
0.365704 0.0930447 0.1
0.375621 0.0940362 0.1
0.385544 0.0949517 0.1
0.395474 0.095791 0.1
0.40541 0.0965542 0.1
0.415352 0.0972412 0.1
0.425299 0.097852 0.1
0.43525 0.0983865 0.1
0.445205 0.0988447 0.1
0.455164 0.0992266 0.1
0.465125 0.0995321 0.1
0.475088 0.0997613 0.1
0.485052 0.0999141 0.1
0.495017 0.0999904 0.1
0.504983 0.0999904 0.1
0.514948 0.0999141 0.1
0.524912 0.0997613 0.1
0.534875 0.0995321 0.1
0.544836 0.0992266 0.1
0.554795 0.0988447 0.1
0.56475 0.0983865 0.1
0.574701 0.097852 0.1
0.584648 0.0972412 0.1
0.59459 0.0965542 0.1
0.604526 0.095791 0.1
0.614456 0.0949517 0.1
0.624379 0.0940362 0.1
0.634296 0.0930447 0.1
0.644204 0.0919773 0.1
0.654104 0.0908339 0.1
0.663994 0.0896146 0.1
0.673875 0.0883196 0.1
0.683746 0.0869488 0.1
0.693606 0.0855025 0.1
0.703455 0.0839806 0.1
0.713292 0.0823832 0.1
0.723116 0.0807105 0.1
0.732927 0.0789625 0.1
0.742724 0.0771393 0.1
0.752508 0.0752411 0.1
0.762276 0.073268 0.1
0.772029 0.07122 0.1
0.781766 0.0690974 0.1
0.791486 0.0669001 0.1
0.801189 0.0646285 0.1
0.810875 0.0622825 0.1
0.820542 0.0598623 0.1
0.83019 0.0573681 0.1
0.839819 0.0547999 0.1
0.849428 0.0521581 0.1
0.859017 0.0494427 0.1
0.868584 0.0466538 0.1
0.87813 0.0437917 0.1
0.887653 0.0408565 0.1
0.897154 0.0378484 0.1
0.906631 0.0347675 0.1
0.916085 0.0316141 0.1
0.925514 0.0283883 0.1
0.934918 0.0250903 0.1
0.944297 0.0217203 0.1
0.953649 0.0182786 0.1
0.962975 0.0147652 0.1
0.972273 0.0111804 0.1
0.981544 0.00752451 0.1
0.990786 0.00379763 0.1
1.01 0 0.1
1.02 0 0.1
1.03 0 0.1
1.04 0 0.1
1.05 0 0.1
1.06 0 0.1
1.07 0 0.1
1.08 0 0.1
1.09 0 0.1
1.1 0 0.1
1.11 0 0.1
1.12 0 0.1
1.13 0 0.1
1.14 0 0.1
1.15 0 0.1
1.16 0 0.1
1.17 0 0.1
1.18 0 0.1
1.19 0 0.1
1.2 0 0.1
1.21 0 0.1
1.22 0 0.1
1.23 0 0.1
1.24 0 0.1
1.25 0 0.1
1.26 0 0.1
1.27 0 0.1
1.28 0 0.1
1.29 0 0.1
1.3 0 0.1
1.31 0 0.1
1.32 0 0.1
1.33 0 0.1
1.34 0 0.1
1.35 0 0.1
1.36 0 0.1
1.37 0 0.1
1.38 0 0.1
1.39 0 0.1
1.4 0 0.1
1.41 0 0.1
1.42 0 0.1
1.43 0 0.1
1.44 0 0.1
1.45 0 0.1
1.46 0 0.1
1.47 0 0.1
1.48 0 0.1
1.49 0 0.1
1.5 0 0.1
1.51 0 0.1
1.52 0 0.1
1.53 0 0.1
1.54 0 0.1
1.55 0 0.1
1.56 0 0.1
1.57 0 0.1
1.58 0 0.1
1.59 0 0.1
1.6 0 0.1
1.61 0 0.1
1.62 0 0.1
1.63 0 0.1
1.64 0 0.1
1.65 0 0.1
1.66 0 0.1
1.67 0 0.1
1.68 0 0.1
1.69 0 0.1
1.7 0 0.1
1.71 0 0.1
1.72 0 0.1
1.73 0 0.1
1.74 0 0.1
1.75 0 0.1
1.76 0 0.1
1.77 0 0.1
1.78 0 0.1
1.79 0 0.1
1.8 0 0.1
1.81 0 0.1
1.82 0 0.1
1.83 0 0.1
1.84 0 0.1
1.85 0 0.1
1.86 0 0.1
1.87 0 0.1
1.88 0 0.1
[...]
CELL_DATA 7425
SCALARS rho float
LOOKUP_TABLE default
0.592455
0.805256
0.821149
0.828873
0.800688
0.820698
0.822135
0.816003
0.815016
0.740535
0.864199
0.810567
0.815792
0.82873
0.804822
0.81884
0.79994
0.815247
0.80366
0.768217
0.832574
0.822423
0.726824
0.829415
0.804067
0.707797
0.832479
0.850143
0.800412
0.808715
0.820621
0.723823
0.803808
0.656432
0.529683
0.829382
0.803669
0.815984
0.811671
0.829277
0.719936
0.709245
0.791361
0.692877
0.592861
0.749496
0.800889
0.815732
0.674422
0.717767
0.74621
0.805374
0.812712
0.80027
0.705975
0.697659
0.824406
0.800969
0.740415
0.703583
0.71521
0.807907
0.815222
0.800513
0.799034
0.819271
0.58946
0.774857
0.690977
0.80867
0.805094
0.80331
0.883934
0.8215
0.811215
0.815073
0.805276
0.800669
0.815224
0.758015
0.817726
0.80749
0.812228
0.789449
0.836884
0.802186
0.57947
0.831174
0.550161
0.84946
0.69654
0.731724
0.847031
0.803363
0.819068
0.760951
0.837158
0.788622
0.827051
0.803674
0.809808
0.738282
0.803449
0.829515
0.601627
0.811571
0.825746
0.710814
0.816802
0.800408
0.818391
0.785276
0.790552
0.812698
0.7911
0.786965
0.832523
0.803208
0.693975
0.656995
0.805268
0.778783
0.814988
0.790961
0.859807
0.840385
0.807959
0.805575
0.664511
0.514625
0.816292
0.659397
0.525005
0.870041
0.675486
0.80078
0.81146
0.726064
0.58709
0.728533
0.727034
0.810585
0.811623
0.703019
0.804058
0.780195
0.570383
0.790392
0.782946
0.829141
0.81801
0.695374
0.804018
0.744275
0.701553
0.803452
0.810964
0.831726
0.798951
0.660261
0.803012
0.694436
0.802206
0.831074
0.822014
0.802598
0.815084
0.786257
0.806569
0.801827
0.821298
0.80569
0.793015
0.800368
0.80081
0.743176
0.804819
0.761426
0.601271
0.694024
0.800861
0.794304
0.880361
0.83303
0.683429
0.824418
0.799885
0.828556
0.801016
0.81535
0.814695
0.803386
0.80724
0.701067
0.816813
0.820806
0.771058
0.798693
0.863145
0.808087
0.812651
0.8132
0.617013
0.840444
0.578154
0.541354
0.599928
0.611919
0.829223
0.879909
0.807767
0.798911
0.842271
0.815024
0.81836
0.822315
0.816991
0.641246
0.58093
0.815643
0.553516
0.599555
0.698839
0.813446
0.815913
0.815073
0.834367
0.815006
0.866399
0.705332
0.83624
0.718162
0.805475
0.804114
0.802378
0.716637
0.724347
0.622828
0.69869
0.86443
0.877977
0.808043
0.807951
0.800481
0.812447
0.720672
0.823137
0.801455
0.827088
0.79507
0.811854
0.720014
0.814898
0.825205
0.743037
0.535299
0.800853
0.736026
0.844402
0.816168
0.725024
0.817334
0.816658
0.850764
0.811424
0.805218
0.803417
0.827075
0.861609
0.806653
0.622492
0.849853
0.81336
0.805842
0.828899
0.838328
0.814962
0.822898
0.793996
0.816874
0.868887
0.850766
0.828412
0.837934
0.803128
0.818848
0.803297
0.760031
0.706029
0.585887
0.69412
0.80395
0.814932
0.817733
0.856619
0.780402
0.648912
0.82847
0.531099
0.775811
0.802078
0.649595
0.526213
0.642296
0.816991
0.815222
0.815022
0.814624
0.828112
0.774965
0.81175
0.802866
0.815004
0.841835
0.869481
0.834776
0.803324
0.694889
0.797334
0.835274
0.694461
0.799973
0.802395
0.865528
0.818792
0.597277
0.815338
0.743726
0.854161
0.734869
0.812049
0.908003
0.801125
0.796514
0.662296
0.638902
0.707719
0.782623
0.827922
0.816742
0.815613
0.885225
0.859987
0.80079
0.800445
0.826427
0.742042
0.80293
0.880017
0.801535
0.806017
0.801874
0.802766
0.814935
0.817481
0.818091
0.641283
0.831078
0.653984
0.809342
0.644352
0.804193
0.802525
0.841305
0.732769
0.816691
0.810282
0.818669
0.800576
0.802689
0.811671
0.703652
0.82486
0.815079
0.814898
0.800862
0.737179
0.564843
0.806661
0.813038
0.803345
0.814981
0.795582
0.534341
0.847283
0.81527
0.804034
0.787169
0.815245
0.805569
0.803979
0.817971
0.807755
0.824002
0.769869
0.813862
0.808074
0.567686
0.804334
0.643304
0.83967
0.639583
0.81648
0.878549
0.603542
0.818895
0.751013
0.804641
0.873961
0.543238
0.824585
0.823767
0.803669
0.827156
0.811892
0.824932
0.831946
0.826247
0.742813
0.828896
0.761764
0.811168
0.794681
0.795072
0.760479
0.805903
0.80221
0.816103
0.755238
0.805482
0.608781
0.618425
0.694855
0.814793
0.845231
0.865637
0.831109
0.799855
0.814728
0.80573
0.819954
0.683457
0.801999
0.744666
0.825109
0.816535
0.806749
0.707154
0.729749
0.540978
0.609364
0.802355
0.614999
0.794268
0.765732
0.771262
0.725224
0.764326
0.769509
0.811383
0.816744
0.821144
0.813497
0.714987
0.613986
0.840147
0.808635
0.783848
0.811152
0.803208
0.837756
0.723305
0.856201
0.764008
0.732748
0.766671
0.813287
0.552134
0.800053
0.842729
0.814272
0.815697
0.81163
0.800458
0.782352
0.836706
0.803268
0.844066
0.722502
0.703491
0.801148
0.796604
0.823522
0.712102
0.848977
0.801724
0.817773
0.799924
0.779935
0.809544
0.598883
0.680394
0.635668
0.81482
0.80505
0.827728
0.751043
0.810859
0.816622
0.82195
0.80023
0.733442
0.798658
0.815606
0.803349
0.709498
0.815524
0.820456
0.841105
0.812804
0.826766
0.863005
0.858064
0.746715
0.60756
0.838962
0.806711
0.844265
0.816093
0.823866
0.815467
0.815713
0.658611
0.806553
0.810863
0.814918
0.793278
0.811805
0.805921
0.862622
0.799926
0.814834
0.816539
0.872634
0.601823
0.815402
0.844002
0.883856
0.537469
0.818125
0.831043
0.796531
0.81509
0.796389
0.86835
0.813521
0.832647
0.814049
0.623158
0.802735
0.804377
0.696713
0.853938
0.759493
0.80221
0.815852
0.814722
0.861757
0.795743
0.834689
0.835951
0.786253
0.826116
0.843848
0.800971
0.81172
0.808182
0.805556
0.816457
0.802816
0.846232
0.769709
0.810038
0.803507
0.816477
0.726062
0.814975
0.819995
0.754375
0.815519
0.817746
0.828838
0.826536
0.801847
0.80153
0.851319
0.768003
0.826507
0.84524
0.804776
0.516104
0.814936
0.829643
0.853186
0.814406
0.803253
0.809237
0.855854
0.780441
0.802782
0.802255
0.815012
0.731631
0.803619
0.830965
0.809394
0.795409
0.795346
0.844287
0.806848
0.84618
0.802148
0.825709
0.814687
0.804428
0.842751
0.814904
0.684301
0.820406
0.807351
0.814759
0.906502
0.801608
0.817383
0.801233
0.801303
0.817941
0.801396
0.803638
0.783698
0.747322
0.808314
0.814982
0.759883
0.793213
0.824492
0.81329
0.823771
0.807082
0.827195
0.875918
0.831961
0.586307
0.711054
0.841881
0.818975
0.845174
0.816551
0.851009
0.808572
0.813635
0.80051
0.839532
0.861774
0.853739
0.734408
0.815974
0.823635
0.743382
0.818396
0.776501
0.801044
0.735718
0.817809
0.832176
0.823871
0.864045
0.816061
0.815282
0.812039
0.816447
0.836871
0.812494
0.799866
0.810503
0.740397
0.813396
0.774352
0.834001
0.814018
0.642052
0.77837
0.812294
0.800342
0.82142
0.803677
0.81648
0.818987
0.80536
0.820979
0.804369
0.807149
0.605175
0.848077
0.826554
0.828106
0.816153
0.803395
0.704297
0.807876
0.908189
0.815442
0.802338
0.814818
0.78301
0.808577
0.81515
0.822832
0.814959
0.815221
0.81798
0.688267
0.779668
0.766767
0.814676
0.806137
0.802322
0.625174
0.806988
0.803767
0.711438
0.838435
0.818887
0.803095
0.808591
0.800411
0.818908
0.815241
0.815276
0.814976
0.711917
0.832863
0.800643
0.808729
0.8441
0.818819
0.818013
0.801264
0.753819
0.825217
0.789202
0.822961
0.789992
0.807008
0.82251
0.73801
0.818906
0.660798
0.872742
0.707016
0.846067
0.802577
0.87577
0.794556
0.802318
0.822238
0.83749
0.839307
0.826801
0.821422
0.816449
0.802765
0.804514
0.80889
0.73044
0.828161
0.800314
0.718199
0.83171
0.693499
0.8013
0.862465
0.805869
0.707755
0.798294
0.815976
0.700263
0.785707
0.820972
0.832953
0.808805
0.6106
0.732974
0.812739
0.802646
0.815011
0.801763
0.739231
0.815873
0.817488
0.814572
0.776887
0.803424
0.804771
0.804942
0.565383
0.814811
0.834949
0.587528
0.81697
0.817853
0.816531
0.820007
0.816266
0.825983
0.800393
0.795476
0.770875
0.823698
0.830474
0.825898
0.836457
0.766881
0.810932
0.729152
0.772902
0.810006
0.822627
0.815257
0.80117
0.860262
0.815011
0.802095
0.811552
0.817815
0.816988
0.837831
0.816346
0.81486
0.812241
0.815731
0.801491
0.822533
0.804045
0.824332
0.815427
0.583074
0.815468
0.835705
0.860014
0.83922
0.503802
0.818516
0.805887
0.507198
0.674896
0.6537
0.835426
0.809285
0.811918
0.814805
0.803294
0.818463
0.811776
0.541836
0.69221
0.818927
0.806864
0.817376
0.803695
0.810642
0.812933
0.821752
0.800515
0.698652
0.857956
0.803245
0.815045
0.815529
0.759471
0.498959
0.834164
0.814425
0.741318
0.802796
0.807625
0.600752
0.828573
0.816562
0.829101
0.820413
0.827339
0.804958
0.724533
0.64674
0.56704
0.826754
0.809866
0.78326
0.815018
0.781647
0.819556
0.873941
0.764011
0.823147
0.815379
0.82724
0.884158
0.816282
0.813801
0.803553
0.814133
0.695941
0.829577
0.800871
0.811542
0.802602
0.784835
0.855098
0.823545
0.841396
0.823062
0.757181
0.757029
0.804598
0.819699
0.803187
0.805472
0.802903
0.777602
0.816497
0.763316
0.822437
0.665087
0.815845
0.803244
0.734425
0.824315
0.819423
0.741898
0.801447
0.75909
0.883401
0.800908
0.814946
0.764562
0.801406
0.816141
0.804148
0.594553
0.8219
0.800024
0.803118
0.816374
0.826968
0.759038
0.806753
0.843221
0.828253
0.814843
0.837054
0.686992
0.702617
0.815012
0.746031
0.823737
0.77293
0.814935
0.802814
0.811715
0.753766
0.794581
0.766326
0.81175
0.803246
0.634417
0.779621
0.799471
0.850794
0.816229
0.83001
0.535233
0.825733
0.78584
0.859611
0.801145
0.818838
0.801575
0.78735
0.799962
0.827042
0.836716
0.822709
0.818778
0.703407
0.775677
0.816945
0.805604
0.81203
0.804102
0.700905
0.794268
0.804287
0.811896
0.828386
0.852019
0.833144
0.815425
0.800667
0.805253
0.802927
0.780495
0.615728
0.802061
0.73457
0.665273
0.824233
0.799995
0.777209
0.801123
0.755917
0.785857
0.813564
0.823347
0.80483
0.817727
0.818741
0.821752
0.815361
0.809812
0.714346
0.701961
0.644038
0.830623
0.870294
0.8165
0.842488
0.848815
0.864447
0.739375
0.818071
0.863776
0.81173
0.814986
0.817547
0.735464
0.814192
0.807983
0.807455
0.526065
0.815025
0.762546
0.815144
0.81413
0.803719
0.701396
0.815177
0.614659
0.825971
0.803283
0.823308
0.856084
0.803628
0.795765
0.822488
0.813475
0.806398
0.763559
0.520867
0.822431
0.803336
0.830358
0.827173
0.803878
0.807273
0.835553
0.723719
0.512473
0.886803
0.802159
0.817461
0.804533
0.707087
0.79986
0.801183
0.816874
0.739882
0.649666
0.883789
0.716764
0.837748
0.813932
0.834156
0.843747
0.793999
0.804956
0.815498
0.853584
0.740239
0.871343
0.815908
0.567793
0.803728
0.748183
0.85386
0.762492
0.804422
0.804143
0.800728
0.802124
0.810802
0.815006
0.857324
0.807194
0.802984
0.801463
0.801103
0.814348
0.818582
0.802764
0.814593
0.85021
0.803194
0.78502
0.802466
0.841047
0.729723
0.815562
0.815706
0.667055
0.715725
0.805882
0.824452
0.804942
0.521661
0.858251
0.815076
0.834397
0.805533
0.803463
0.801823
0.787926
0.591103
0.804603
0.817848
0.83685
0.822133
0.815022
0.799947
0.74963
0.801878
0.768209
0.788133
0.800519
0.791438
0.751135
0.801861
0.812575
0.812297
0.833258
0.85078
0.560194
0.843017
0.814957
0.82116
0.802979
0.823035
0.813188
0.895088
0.801518
0.869377
0.805982
0.761963
0.862841
0.802502
0.800449
0.825552
0.663586
0.648523
0.803572
0.804093
0.690269
0.657438
0.800105
0.825304
0.815072
0.824092
0.735686
0.818463
0.814855
0.827546
0.81845
0.812219
0.814978
0.756377
0.80508
0.817418
0.813442
0.67898
0.571633
0.815016
0.653059
0.724019
0.560629
0.842498
0.801234
0.537967
0.604972
0.828571
0.908421
0.81979
0.655542
0.816016
0.787992
0.802722
0.78712
0.821999
0.811695
0.788872
0.822545
0.802728
0.592946
0.819481
0.768523
0.817634
0.696241
0.823725
0.791252
0.815828
0.801278
0.66597
0.844401
0.807839
0.807862
0.505693
0.818537
0.801418
0.854011
0.708568
0.818781
0.597574
0.724013
0.802383
0.798129
0.736803
0.718863
0.712864
0.518563
0.611244
0.801264
0.528984
0.824104
0.538974
0.758928
0.676836
0.616756
0.550885
0.747317
0.803189
0.711519
0.822839
0.801695
0.803783
0.7629
0.890201
0.800287
0.825921
0.803687
0.814885
0.708379
0.808702
0.738708
0.823434
0.886601
0.834701
0.749824
0.824271
0.772227
0.880463
0.804403
0.760361
0.851665
0.778529
0.800131
0.806602
0.759952
0.747995
0.677377
0.805203
0.803141
0.8195
0.834724
0.614985
0.809211
0.546365
0.671483
0.626319
0.819813
0.822582
0.810891
0.804176
0.619274
0.873084
0.802815
0.803055
0.864331
0.814537
0.773207
0.814272
0.802561
0.819563
0.803235
0.719307
0.804278
0.663503
0.800152
0.805655
0.801964
0.642262
0.812887
0.811557
0.726058
0.819017
0.556005
0.581763
0.804374
0.699046
0.728008
0.57693
0.72688
0.815552
0.701064
0.773939
0.714306
0.813961
0.673221
0.7638
0.807174
0.812426
0.659269
0.802273
0.895627
0.797156
0.818507
0.593979
0.696643
0.802682
0.815018
0.815877
0.852511
0.814645
0.804546
0.803965
0.803515
0.716563
0.71553
0.619822
0.773446
0.545328
0.721976
0.811806
0.816224
0.807326
0.800516
0.578059
0.810927
0.803952
0.560991
0.552269
0.748445
0.803761
0.807753
0.555317
0.798995
0.575018
0.725515
0.612176
0.814455
0.803203
0.601742
0.612372
0.868631
0.810877
0.767085
0.721158
0.629745
0.658405
0.704595
0.817704
0.761452
0.765248
0.627931
0.755916
0.811142
0.81714
0.814542
0.817254
0.867761
0.756927
0.820531
0.803645
0.852177
0.814968
0.802948
0.815077
0.720061
0.814627
0.813701
0.816883
0.812895
0.817571
0.803421
0.81955
0.812159
0.811541
0.818908
0.800338
0.818253
0.820566
0.670492
0.820232
0.869162
0.819804
0.79338
0.649124
0.859448
0.820413
0.826328
0.800731
0.813313
0.757539
0.853497
0.579271
0.731098
0.810139
0.817433
0.804077
0.803533
0.83333
0.806036
0.806048
0.817056
0.782168
0.839715
0.84301
0.816639
0.667363
0.626594
0.817524
0.818292
0.790202
0.85062
0.848202
0.812149
0.815321
0.779452
0.815915
0.819469
0.815951
0.820398
0.814331
0.817581
0.85201
0.81772
0.816221
0.819227
0.819415
0.785574
0.815825
0.805222
0.805464
0.805686
0.8202
0.813559
0.789904
0.753672
0.814624
0.806516
0.810669
0.806622
0.858537
0.804323
0.81581
0.814737
0.806135
0.692099
0.804118
0.814791
0.816267
0.810617
0.814843
0.815248
0.815041
0.810437
0.865095
0.512779
0.81488
0.842709
0.81468
0.80332
0.809008
0.816808
0.840817
0.8016
0.80253
0.813782
0.692227
0.814905
0.809223
0.808601
0.814534
0.814913
0.815036
0.815325
0.522684
0.812597
0.720837
0.886379
0.822523
0.732243
0.683809
0.817146
0.804457
0.8198
0.649734
0.802289
0.815301
0.651139
0.801037
0.804477
0.816757
0.807496
0.857632
0.810101
0.610995
0.801756
0.775343
0.81154
0.889595
0.80468
0.815828
0.820257
0.833176
0.815357
0.823904
0.837491
0.638428
0.804136
0.658916
0.815653
0.815562
0.709306
0.815457
0.806433
0.710439
0.816436
0.70636
0.861911
0.78479
0.816155
0.814959
0.815362
0.672064
0.815577
0.636386
0.801126
0.79288
0.823773
0.816974
0.71889
0.766904
0.831366
0.814716
0.822385
0.823418
0.815388
0.826755
0.800603
0.557456
0.754474
0.761035
0.729817
0.838782
0.823711
0.835346
0.778189
0.802926
0.815061
0.815012
0.81501
0.775677
0.568852
0.803349
0.539362
0.809561
0.825619
0.800865
0.803942
0.814294
0.806324
0.784324
0.733339
0.815343
0.859917
0.815059
0.800391
0.735851
0.81069
0.789295
0.834682
0.517853
0.79634
0.807654
0.800061
0.696589
0.814842
0.81231
0.858981
0.573866
0.807648
0.80341
0.814757
0.620848
0.81509
0.803473
0.803569
0.803184
0.815185
0.815268
0.817798
0.815066
0.714657
0.804763
0.803343
0.815033
0.89661
0.815138
0.775699
0.842434
0.799411
0.803256
0.605538
0.814939
0.803499
0.826977
0.8026
0.866997
0.81621
0.855104
0.801512
0.822169
0.778742
0.563987
0.755146
0.795895
0.80568
0.814201
0.815677
0.561096
0.862499
0.859797
0.770599
0.758103
0.738168
0.813392
0.849908
0.81497
0.814589
0.815004
0.804477
0.725741
0.803682
0.800245
0.764187
0.825682
0.824474
0.862549
0.817365
0.815021
0.558749
0.809136
0.814982
0.801665
0.775532
0.818386
0.803217
0.814825
0.828265
0.798836
0.804444
0.801978
0.816635
0.840226
0.803504
0.800237
0.802743
0.765871
0.821433
0.572348
0.869033
0.803919
0.551634
0.804171
0.804491
0.820734
0.614086
0.610505
0.802527
0.80482
0.801917
0.861453
0.780541
0.816175
0.803113
0.867966
0.804928
0.804654
0.827388
0.817496
0.821372
0.822771
0.821851
0.868138
0.731374
0.852965
0.818841
0.656898
0.803432
0.803374
0.803835
0.822643
0.824934
0.804786
0.802107
0.801133
0.824153
0.804015
0.803858
0.800806
0.825815
0.804173
0.802523
0.806312
0.82918
0.8018
0.802496
0.825639
0.800619
0.817144
0.654551
0.827769
0.850722
0.8056
0.821147
0.803497
0.830075
0.838651
0.803559
0.822975
0.801377
0.808113
0.789932
0.802638
0.803993
0.806583
0.80666
0.80559
0.820128
0.816551
0.811592
0.832679
0.803339
0.802541
0.801
0.789488
0.834967
0.803435
0.820881
0.816977
0.807771
0.806003
0.803066
0.839987
0.866863
0.80072
0.681674
0.801892
0.843228
0.818277
0.806338
0.804666
0.820485
0.845569
0.619412
0.830126
0.796103
0.852204
0.820315
0.812458
0.814
0.809348
0.80416
0.813348
0.809187
0.595723
0.848973
0.79531
0.816028
0.855487
0.820858
0.764833
0.809361
0.816276
0.817095
0.803197
0.664876
0.810434
0.863946
0.803912
0.801503
0.777363
0.871857
0.801169
0.877671
0.807936
0.818816
0.822146
0.803495
0.804675
0.814596
0.817602
0.80467
0.815235
0.817889
0.881929
0.821509
0.809556
0.801364
0.829598
0.810763
0.840315
0.809666
0.807179
0.81336
0.818239
0.831017
0.815514
0.823913
0.833489
0.815385
0.705065
0.697373
0.815018
0.81938
0.805059
0.815037
0.526865
0.855644
0.800756
0.806454
0.815701
0.81536
0.804231
0.814416
0.801506
0.802035
0.809045
0.816035
0.759288
0.78606
0.824393
0.844272
0.835793
0.801357
0.806645
0.803517
0.813238
0.806505
0.800655
0.800829
0.801766
0.812083
0.798211
0.803929
0.83668
0.832677
0.733398
0.6921
0.80795
0.705001
0.800723
0.589348
0.80471
0.80764
0.804183
0.819781
0.83515
0.81579
0.814875
0.810575
0.804129
0.882111
0.81797
0.80604
0.773239
0.60012
0.810492
0.807793
0.770481
0.816231
0.815746
0.79196
0.801058
0.804291
0.645007
0.831468
0.803676
0.78346
0.780162
0.853546
0.810229
0.804048
0.803854
0.811287
0.811448
0.529928
0.802505
0.840615
0.815792
0.799001
0.595157
0.815477
0.815916
0.815002
0.834949
0.815778
0.804368
0.823385
0.806589
0.580507
0.809098
0.739702
0.799094
0.815532
0.72381
0.816708
0.847613
0.832419
0.667589
0.891378
0.786244
0.779363
0.797251
0.779896
0.809494
0.851654
0.809109
0.803302
0.815457
0.810688
0.783361
0.786573
0.815707
0.809511
0.835678
0.822689
0.836537
0.802922
0.800571
0.815053
0.857488
0.817864
0.81942
0.815283
0.611195
0.795965
0.825218
0.830335
0.86666
0.814651
0.819874
0.520045
0.811593
0.801596
0.814509
0.816014
0.848515
0.815032
0.811355
0.882053
0.766063
0.813158
0.815165
0.810819
0.805491
0.816056
0.658988
0.800836
0.850498
0.834322
0.81172
0.815176
0.815297
0.809811
0.704303
0.81414
0.801391
0.839703
0.820047
0.812864
0.832424
0.794417
0.813225
0.819401
0.810049
0.820856
0.747329
0.856433
0.820541
0.815003
0.815041
0.814705
0.817356
0.818759
0.814761
0.812493
0.842119
0.820181
0.801299
0.826048
0.828177
0.817247
0.815144
0.801442
0.802219
0.815046
0.820605
0.830215
0.814817
0.818077
0.801052
0.811696
0.814861
0.814778
0.802676
0.816461
0.815245
0.803612
0.814892
0.836801
0.800312
0.811197
0.822811
0.566546
0.816025
0.819763
0.817012
0.816666
0.823428
0.830016
0.817319
0.820422
0.703957
0.815059
0.802126
0.817349
0.820168
0.835908
0.82306
0.816649
0.830676
0.826346
0.812652
0.819481
0.820805
0.805899
0.81513
0.817336
0.820236
0.833362
0.814582
0.817423
0.802898
0.814968
0.815021
0.535589
0.634157
0.814654
0.82294
0.802691
0.823856
0.817622
0.842913
0.710499
0.815621
0.733237
0.818701
0.812095
0.815127
0.830485
0.81554
0.806168
0.814948
0.831147
0.840893
0.814736
0.721428
0.820013
0.817713
0.80093
0.803147
0.817061
0.856751
0.814636
0.815303
0.850612
0.830048
0.844124
0.584434
0.830389
0.815791
0.812648
0.819043
0.852279
0.81939
0.720534
0.80067
0.832536
0.80103
0.800801
0.806074
0.749653
0.815322
0.81613
0.72868
0.816126
0.828108
0.815223
0.815815
0.8004
0.81996
0.81501
0.824796
0.808947
0.809733
0.816613
0.694008
0.82065
0.815875
0.815005
0.645031
0.716146
0.603402
0.824031
0.54791
0.855629
0.72936
0.843835
0.814466
0.72767
0.822468
0.817531
0.74443
0.808297
0.819956
0.794565
0.818153
0.817578
0.817508
0.815005
0.809708
0.803842
0.739222
0.837571
0.821648
0.818249
0.800285
0.816084
0.80331
0.817715
0.815336
0.856335
0.819368
0.512494
0.814954
0.82037
0.820252
0.778745
0.816383
0.806954
0.819188
0.846972
0.601096
0.810278
0.80052
0.817062
0.819237
0.819297
0.814418
0.82019
0.815522
0.816271
0.803232
0.815955
0.847129
0.815704
0.792521
0.813339
0.626373
0.717052
0.815059
0.818643
0.803445
0.823774
0.735021
0.80324
0.803255
0.821742
0.698222
0.819226
0.800584
0.817157
0.866822
0.786093
0.823429
0.819592
0.824044
0.815864
0.770589
0.802714
0.815443
0.90268
0.82795
0.818112
0.833009
0.811549
0.8705
0.717305
0.691381
0.853901
0.802834
0.693983