# vtk DataFile Version 1.0
unstructured grid
ascii
DATASET UNSTRUCTURED_GRID
points 7812 float
-1 0 0
-1 1 0
2 0 0
2 1 0
0 0 0
1 0 0
-1 1 0.1
-1 0 0.1
0 0 0.1
1 0 0.1
2 0 0.1
2 1 0.1
-0.99 0 0
-0.98 0 0
-0.97 0 0
-0.96 0 0
-0.95 0 0
-0.94 0 0
-0.93 0 0
-0.92 0 0
-0.91 0 0
-0.9 0 0
-0.89 0 0
-0.88 0 0
-0.87 0 0
-0.86 0 0
-0.85 0 0
-0.84 0 0
-0.83 0 0
-0.82 0 0
-0.81 0 0
-0.8 0 0
-0.79 0 0
-0.78 0 0
-0.77 0 0
-0.76 0 0
-0.75 0 0
-0.74 0 0
-0.73 0 0
-0.72 0 0
-0.71 0 0
-0.7 0 0
-0.69 0 0
-0.68 0 0
-0.67 0 0
-0.66 0 0
-0.65 0 0
-0.64 0 0
-0.63 0 0
-0.62 0 0
-0.61 0 0
-0.6 0 0
-0.59 0 0
-0.58 0 0
-0.57 0 0
-0.56 0 0
-0.55 0 0
-0.54 0 0
-0.53 0 0
-0.52 0 0
-0.51 0 0
-0.5 0 0
-0.49 0 0
-0.48 0 0
-0.47 0 0
-0.46 0 0
-0.45 0 0
-0.44 0 0
-0.43 0 0
-0.42 0 0
-0.41 0 0
-0.4 0 0
-0.39 0 0
-0.38 0 0
-0.37 0 0
-0.36 0 0
-0.35 0 0
-0.34 0 0
-0.33 0 0
-0.32 0 0
-0.31 0 0
-0.3 0 0
-0.29 0 0
-0.28 0 0
-0.27 0 0
-0.26 0 0
-0.25 0 0
-0.24 0 0
-0.23 0 0
-0.22 0 0
-0.21 0 0
-0.2 0 0
-0.19 0 0
-0.18 0 0
-0.17 0 0
-0.16 0 0
-0.15 0 0
-0.14 0 0
-0.13 0 0
-0.12 0 0
-0.11 0 0
-0.1 0 0
-0.09 0 0
-0.08 0 0
-0.07 0 0
-0.06 0 0
-0.05 0 0
-0.04 0 0
-0.03 0 0
-0.02 0 0
-0.01 0 0
1.01 0 0
1.02 0 0
1.03 0 0
1.04 0 0
1.05 0 0
1.06 0 0
1.07 0 0
1.08 0 0
1.09 0 0
1.1 0 0
1.11 0 0
1.12 0 0
1.13 0 0
1.14 0 0
1.15 0 0
1.16 0 0
1.17 0 0
1.18 0 0
1.19 0 0
1.2 0 0
1.21 0 0
1.22 0 0
1.23 0 0
1.24 0 0
1.25 0 0
1.26 0 0
1.27 0 0
1.28 0 0
1.29 0 0
1.3 0 0
1.31 0 0
1.32 0 0
1.33 0 0
1.34 0 0
1.35 0 0
1.36 0 0
1.37 0 0
1.38 0 0
1.39 0 0
1.4 0 0
1.41 0 0
1.42 0 0
1.43 0 0
1.44 0 0
1.45 0 0
1.46 0 0
1.47 0 0
1.48 0 0
1.49 0 0
1.5 0 0
1.51 0 0
1.52 0 0
1.53 0 0
1.54 0 0
1.55 0 0
1.56 0 0
1.57 0 0
1.58 0 0
1.59 0 0
1.6 0 0
1.61 0 0
1.62 0 0
1.63 0 0
1.64 0 0
1.65 0 0
1.66 0 0
1.67 0 0
1.68 0 0
1.69 0 0
1.7 0 0
1.71 0 0
1.72 0 0
1.73 0 0
1.74 0 0
1.75 0 0
1.76 0 0
1.77 0 0
1.78 0 0
1.79 0 0
1.8 0 0
1.81 0 0
1.82 0 0
1.83 0 0
1.84 0 0
1.85 0 0
1.86 0 0
1.87 0 0
1.88 0 0
1.89 0 0
1.9 0 0
1.91 0 0
1.92 0 0
1.93 0 0
1.94 0 0
1.95 0 0
1.96 0 0
1.97 0 0
1.98 0 0
1.99 0 0
2 0.010289 0
2 0.0215307 0
2 0.0338135 0
2 0.0472336 0
2 0.0618965 0
2 0.0779171 0
2 0.0954213 0
2 0.114546 0
2 0.135442 0
2 0.158274 0
2 0.183219 0
2 0.210474 0
2 0.240253 0
2 0.27279 0
2 0.308339 0
2 0.347181 0
2 0.389619 0
2 0.435987 0
2 0.486649 0
2 0.542002 0
2 0.602481 0
2 0.66856 0
2 0.740758 0
2 0.819642 0
2 0.90583 0
1.9 1 0
1.8 1 0
1.7 1 0
1.6 1 0
1.5 1 0
1.4 1 0
1.3 1 0
1.2 1 0
1.1 1 0
1 1 0
0.9 1 0
0.8 1 0
0.7 1 0
0.6 1 0
0.5 1 0
0.4 1 0
0.3 1 0
0.2 1 0
0.1 1 0
3.69793e-12 1 0
-0.1 1 0
-0.2 1 0
-0.3 1 0
-0.4 1 0
-0.5 1 0
-0.6 1 0
-0.7 1 0
-0.8 1 0
-0.9 1 0
-1 0.90583 0
-1 0.819642 0
-1 0.740758 0
-1 0.66856 0
-1 0.602481 0
-1 0.542002 0
-1 0.486649 0
-1 0.435987 0
-1 0.389619 0
-1 0.347181 0
-1 0.308339 0
-1 0.27279 0
-1 0.240253 0
-1 0.210474 0
-1 0.183219 0
-1 0.158274 0
-1 0.135442 0
-1 0.114546 0
-1 0.0954213 0
-1 0.0779171 0
-1 0.0618965 0
-1 0.0472336 0
-1 0.0338135 0
-1 0.0215307 0
-1 0.010289 0
0.00921362 0.00379763 0
0.0184561 0.00752451 0
0.0277268 0.0111804 0
0.0370253 0.0147652 0
0.0463511 0.0182786 0
0.0557034 0.0217203 0
0.0650819 0.0250903 0
0.074486 0.0283883 0
0.083915 0.0316141 0
0.0933685 0.0347675 0
0.102846 0.0378484 0
0.112347 0.0408565 0
0.12187 0.0437917 0
0.131416 0.0466538 0
0.140983 0.0494427 0
0.150572 0.0521581 0
0.160181 0.0547999 0
0.16981 0.0573681 0
0.179458 0.0598623 0
0.189125 0.0622825 0
0.198811 0.0646285 0
0.208514 0.0669001 0
0.218234 0.0690974 0
0.227971 0.07122 0
0.237724 0.073268 0
0.247493 0.0752411 0
0.257276 0.0771393 0
0.267073 0.0789625 0
0.276884 0.0807105 0
0.286708 0.0823832 0
0.296545 0.0839806 0
0.306394 0.0855025 0
0.316254 0.0869488 0
0.326125 0.0883196 0
0.336006 0.0896146 0
0.345896 0.0908339 0
0.355796 0.0919773 0
0.365704 0.0930447 0
0.375621 0.0940362 0
0.385544 0.0949517 0
0.395474 0.095791 0
0.40541 0.0965542 0
0.415352 0.0972412 0
0.425299 0.097852 0
0.43525 0.0983865 0
0.445205 0.0988447 0
0.455164 0.0992266 0
0.465125 0.0995321 0
0.475088 0.0997613 0
0.485052 0.0999141 0
0.495017 0.0999904 0
0.504983 0.0999904 0
0.514948 0.0999141 0
0.524912 0.0997613 0
0.534875 0.0995321 0
0.544836 0.0992266 0
0.554795 0.0988447 0
0.56475 0.0983865 0
0.574701 0.097852 0
0.584648 0.0972412 0
0.59459 0.0965542 0
0.604526 0.095791 0
0.614456 0.0949517 0
0.624379 0.0940362 0
0.634296 0.0930447 0
0.644204 0.0919773 0
0.654104 0.0908339 0
0.663994 0.0896146 0
0.673875 0.0883196 0
0.683746 0.0869488 0
0.693606 0.0855025 0
0.703455 0.0839806 0
0.713292 0.0823832 0
0.723116 0.0807105 0
0.732927 0.0789625 0
0.742724 0.0771393 0
0.752508 0.0752411 0
0.762276 0.073268 0
0.772029 0.07122 0
0.781766 0.0690974 0
0.791486 0.0669001 0
0.801189 0.0646285 0
0.810875 0.0622825 0
0.820542 0.0598623 0
0.83019 0.0573681 0
0.839819 0.0547999 0
0.849428 0.0521581 0
0.859017 0.0494427 0
0.868584 0.0466538 0
0.87813 0.0437917 0
0.887653 0.0408565 0
0.897154 0.0378484 0
0.906631 0.0347675 0
0.916085 0.0316141 0
0.925514 0.0283883 0
0.934918 0.0250903 0
0.944297 0.0217203 0
0.953649 0.0182786 0
0.962975 0.0147652 0
0.972273 0.0111804 0
0.981544 0.00752451 0
0.990786 0.00379763 0
-1 0.90583 0.1
-1 0.819642 0.1
-1 0.740758 0.1
-1 0.66856 0.1
-1 0.602481 0.1
-1 0.542002 0.1
-1 0.486649 0.1
-1 0.435987 0.1
-1 0.389619 0.1
-1 0.347181 0.1
-1 0.308339 0.1
-1 0.27279 0.1
-1 0.240253 0.1
-1 0.210474 0.1
-1 0.183219 0.1
-1 0.158274 0.1
-1 0.135442 0.1
-1 0.114546 0.1
-1 0.0954213 0.1
-1 0.0779171 0.1
-1 0.0618965 0.1
-1 0.0472336 0.1
-1 0.0338135 0.1
-1 0.0215307 0.1
-1 0.010289 0.1
-0.99 0 0.1
-0.98 0 0.1
-0.97 0 0.1
-0.96 0 0.1
-0.95 0 0.1
-0.94 0 0.1
-0.93 0 0.1
-0.92 0 0.1
-0.91 0 0.1
-0.9 0 0.1
-0.89 0 0.1
-0.88 0 0.1
-0.87 0 0.1
-0.86 0 0.1
-0.85 0 0.1
-0.84 0 0.1
-0.83 0 0.1
-0.82 0 0.1
-0.81 0 0.1
-0.8 0 0.1
-0.79 0 0.1
-0.78 0 0.1
-0.77 0 0.1
-0.76 0 0.1
-0.75 0 0.1
-0.74 0 0.1
-0.73 0 0.1
-0.72 0 0.1
-0.71 0 0.1
-0.7 0 0.1
-0.69 0 0.1
-0.68 0 0.1
-0.67 0 0.1
-0.66 0 0.1
-0.65 0 0.1
-0.64 0 0.1
-0.63 0 0.1
-0.62 0 0.1
-0.61 0 0.1
-0.6 0 0.1
-0.59 0 0.1
-0.58 0 0.1
-0.57 0 0.1
-0.56 0 0.1
-0.55 0 0.1
-0.54 0 0.1
-0.53 0 0.1
-0.52 0 0.1
-0.51 0 0.1
-0.5 0 0.1
-0.49 0 0.1
-0.48 0 0.1
-0.47 0 0.1
-0.46 0 0.1
-0.45 0 0.1
-0.44 0 0.1
-0.43 0 0.1
-0.42 0 0.1
-0.41 0 0.1
-0.4 0 0.1
-0.39 0 0.1
-0.38 0 0.1
-0.37 0 0.1
-0.36 0 0.1
-0.35 0 0.1
-0.34 0 0.1
-0.33 0 0.1
-0.32 0 0.1
-0.31 0 0.1
-0.3 0 0.1
-0.29 0 0.1
-0.28 0 0.1
-0.27 0 0.1
-0.26 0 0.1
-0.25 0 0.1
-0.24 0 0.1
-0.23 0 0.1
-0.22 0 0.1
-0.21 0 0.1
-0.2 0 0.1
-0.19 0 0.1
-0.18 0 0.1
-0.17 0 0.1
-0.16 0 0.1
-0.15 0 0.1
-0.14 0 0.1
-0.13 0 0.1
-0.12 0 0.1
-0.11 0 0.1
-0.1 0 0.1
-0.09 0 0.1
-0.08 0 0.1
-0.07 0 0.1
-0.06 0 0.1
-0.05 0 0.1
-0.04 0 0.1
-0.03 0 0.1
-0.02 0 0.1
-0.01 0 0.1
0.00921362 0.00379763 0.1
0.0184561 0.00752451 0.1
0.0277268 0.0111804 0.1
0.0370253 0.0147652 0.1
0.0463511 0.0182786 0.1
0.0557034 0.0217203 0.1
0.0650819 0.0250903 0.1
0.074486 0.0283883 0.1
0.083915 0.0316141 0.1
0.0933685 0.0347675 0.1
0.102846 0.0378484 0.1
0.112347 0.0408565 0.1
0.12187 0.0437917 0.1
0.131416 0.0466538 0.1
0.140983 0.0494427 0.1
0.150572 0.0521581 0.1
0.160181 0.0547999 0.1
0.16981 0.0573681 0.1
0.179458 0.0598623 0.1
0.189125 0.0622825 0.1
0.198811 0.0646285 0.1
0.208514 0.0669001 0.1
0.218234 0.0690974 0.1
0.227971 0.07122 0.1
0.237724 0.073268 0.1
0.247493 0.0752411 0.1
0.257276 0.0771393 0.1
0.267073 0.0789625 0.1
0.276884 0.0807105 0.1
0.286708 0.0823832 0.1
0.296545 0.0839806 0.1
0.306394 0.0855025 0.1
0.316254 0.0869488 0.1
0.326125 0.0883196 0.1
0.336006 0.0896146 0.1
0.345896 0.0908339 0.1
0.355796 0.0919773 0.1
0.365704 0.0930447 0.1
0.375621 0.0940362 0.1
0.385544 0.0949517 0.1
0.395474 0.095791 0.1
0.40541 0.0965542 0.1
0.415352 0.0972412 0.1
0.425299 0.097852 0.1
0.43525 0.0983865 0.1
0.445205 0.0988447 0.1
0.455164 0.0992266 0.1
0.465125 0.0995321 0.1
0.475088 0.0997613 0.1
0.485052 0.0999141 0.1
0.495017 0.0999904 0.1
0.504983 0.0999904 0.1
0.514948 0.0999141 0.1
0.524912 0.0997613 0.1
0.534875 0.0995321 0.1
0.544836 0.0992266 0.1
0.554795 0.0988447 0.1
0.56475 0.0983865 0.1
0.574701 0.097852 0.1
0.584648 0.0972412 0.1
0.59459 0.0965542 0.1
0.604526 0.095791 0.1
0.614456 0.0949517 0.1
0.624379 0.0940362 0.1
0.634296 0.0930447 0.1
0.644204 0.0919773 0.1
0.654104 0.0908339 0.1
0.663994 0.0896146 0.1
0.673875 0.0883196 0.1
0.683746 0.0869488 0.1
0.693606 0.0855025 0.1
0.703455 0.0839806 0.1
0.713292 0.0823832 0.1
0.723116 0.0807105 0.1
0.732927 0.0789625 0.1
0.742724 0.0771393 0.1
0.752508 0.0752411 0.1
0.762276 0.073268 0.1
0.772029 0.07122 0.1
0.781766 0.0690974 0.1
0.791486 0.0669001 0.1
0.801189 0.0646285 0.1
0.810875 0.0622825 0.1
0.820542 0.0598623 0.1
0.83019 0.0573681 0.1
0.839819 0.0547999 0.1
0.849428 0.0521581 0.1
0.859017 0.0494427 0.1
0.868584 0.0466538 0.1
0.87813 0.0437917 0.1
0.887653 0.0408565 0.1
0.897154 0.0378484 0.1
0.906631 0.0347675 0.1
0.916085 0.0316141 0.1
0.925514 0.0283883 0.1
0.934918 0.0250903 0.1
0.944297 0.0217203 0.1
0.953649 0.0182786 0.1
0.962975 0.0147652 0.1
0.972273 0.0111804 0.1
0.981544 0.00752451 0.1
0.990786 0.00379763 0.1
1.01 0 0.1
1.02 0 0.1
1.03 0 0.1
1.04 0 0.1
1.05 0 0.1
1.06 0 0.1
1.07 0 0.1
1.08 0 0.1
1.09 0 0.1
1.1 0 0.1
1.11 0 0.1
1.12 0 0.1
1.13 0 0.1
1.14 0 0.1
1.15 0 0.1
1.16 0 0.1
1.17 0 0.1
1.18 0 0.1
1.19 0 0.1
1.2 0 0.1
1.21 0 0.1
1.22 0 0.1
1.23 0 0.1
1.24 0 0.1
1.25 0 0.1
1.26 0 0.1
1.27 0 0.1
1.28 0 0.1
1.29 0 0.1
1.3 0 0.1
1.31 0 0.1
1.32 0 0.1
1.33 0 0.1
1.34 0 0.1
1.35 0 0.1
1.36 0 0.1
1.37 0 0.1
1.38 0 0.1
1.39 0 0.1
1.4 0 0.1
1.41 0 0.1
1.42 0 0.1
1.43 0 0.1
1.44 0 0.1
1.45 0 0.1
1.46 0 0.1
1.47 0 0.1
1.48 0 0.1
1.49 0 0.1
1.5 0 0.1
1.51 0 0.1
1.52 0 0.1
1.53 0 0.1
1.54 0 0.1
1.55 0 0.1
1.56 0 0.1
1.57 0 0.1
1.58 0 0.1
1.59 0 0.1
1.6 0 0.1
1.61 0 0.1
1.62 0 0.1
1.63 0 0.1
1.64 0 0.1
1.65 0 0.1
1.66 0 0.1
1.67 0 0.1
1.68 0 0.1
1.69 0 0.1
1.7 0 0.1
1.71 0 0.1
1.72 0 0.1
1.73 0 0.1
1.74 0 0.1
1.75 0 0.1
1.76 0 0.1
1.77 0 0.1
1.78 0 0.1
1.79 0 0.1
1.8 0 0.1
1.81 0 0.1
1.82 0 0.1
1.83 0 0.1
1.84 0 0.1
1.85 0 0.1
1.86 0 0.1
1.87 0 0.1
1.88 0 0.1
[...]
CELL_DATA 7425
SCALARS rho float
LOOKUP_TABLE default
0.591395
0.805215
0.820853
0.828604
0.800475
0.820405
0.821874
0.815692
0.814704
0.740144
0.864026
0.81048
0.815481
0.82846
0.804644
0.818537
0.799755
0.814935
0.803627
0.768026
0.832312
0.822347
0.726407
0.829144
0.804032
0.706838
0.83222
0.84978
0.800365
0.808604
0.820356
0.724139
0.803774
0.655555
0.527507
0.829111
0.80364
0.815674
0.811585
0.829016
0.719134
0.708135
0.791065
0.694533
0.591561
0.749248
0.800563
0.81542
0.672179
0.718022
0.74618
0.805333
0.812634
0.800085
0.7066
0.700747
0.82412
0.800853
0.740022
0.703041
0.714095
0.807857
0.81491
0.800344
0.798986
0.81897
0.588437
0.774525
0.693831
0.808555
0.804968
0.803291
0.883793
0.821424
0.811145
0.814761
0.805234
0.800626
0.814912
0.757901
0.817419
0.80744
0.811912
0.789256
0.836664
0.802022
0.578463
0.830921
0.548597
0.849245
0.69839
0.731317
0.846675
0.803331
0.818767
0.760388
0.836964
0.788502
0.826773
0.803474
0.809491
0.738326
0.80342
0.829254
0.600742
0.811487
0.825472
0.710128
0.816494
0.800206
0.818088
0.785133
0.79036
0.81264
0.790803
0.786837
0.832265
0.80319
0.695005
0.65267
0.805227
0.778462
0.814675
0.790847
0.85961
0.840056
0.807909
0.805293
0.663836
0.512423
0.815983
0.658516
0.522949
0.8696
0.673157
0.800567
0.811382
0.725548
0.586069
0.72783
0.726268
0.810436
0.811307
0.703717
0.803934
0.780066
0.5694
0.79001
0.782861
0.828869
0.817743
0.697306
0.803844
0.744279
0.702193
0.80342
0.810878
0.831462
0.798653
0.658647
0.802946
0.69597
0.80204
0.830807
0.821722
0.802563
0.814771
0.785949
0.806509
0.801636
0.821002
0.80548
0.792644
0.800167
0.800684
0.742587
0.80464
0.760869
0.599803
0.696325
0.800676
0.793969
0.880214
0.832782
0.679077
0.824133
0.799685
0.828302
0.800843
0.815038
0.814382
0.803353
0.807178
0.701715
0.816505
0.820513
0.770867
0.798368
0.862737
0.808029
0.812529
0.812887
0.616181
0.840117
0.577127
0.539359
0.599034
0.609607
0.829033
0.87976
0.807719
0.798862
0.842065
0.814711
0.818057
0.822023
0.816683
0.640601
0.574166
0.815331
0.551886
0.598121
0.69962
0.813134
0.815602
0.814761
0.834114
0.814694
0.865968
0.706167
0.836065
0.717083
0.805411
0.804079
0.802322
0.71608
0.723614
0.622155
0.700116
0.864242
0.877502
0.807719
0.807902
0.80015
0.812309
0.719766
0.822847
0.801229
0.826813
0.79498
0.811538
0.720178
0.814586
0.824922
0.742404
0.533919
0.800714
0.736111
0.844214
0.815858
0.725315
0.817028
0.816349
0.850572
0.811108
0.804939
0.803389
0.826797
0.861415
0.806431
0.621838
0.84964
0.813058
0.805797
0.828629
0.838106
0.81465
0.822613
0.793894
0.816565
0.868445
0.850573
0.828223
0.837686
0.803067
0.818545
0.803278
0.759912
0.705069
0.584885
0.695249
0.803626
0.814619
0.817427
0.856226
0.780251
0.648272
0.828196
0.528948
0.775488
0.801913
0.648951
0.516733
0.641657
0.816683
0.81491
0.81471
0.814312
0.827837
0.77485
0.811691
0.802829
0.814692
0.841597
0.869048
0.834524
0.803249
0.696797
0.797026
0.835052
0.693881
0.799778
0.802347
0.865351
0.818489
0.596432
0.815026
0.7431
0.853777
0.734277
0.811733
0.907894
0.800909
0.796299
0.66162
0.638227
0.708423
0.782204
0.827649
0.816433
0.815302
0.884719
0.859621
0.800578
0.800168
0.826347
0.741459
0.802844
0.87986
0.801508
0.805753
0.801683
0.802734
0.814623
0.817175
0.817787
0.640254
0.830883
0.652315
0.809159
0.643332
0.803873
0.802484
0.841128
0.731946
0.816615
0.809966
0.818366
0.80042
0.802658
0.811594
0.702344
0.824781
0.814767
0.814585
0.800829
0.737109
0.563864
0.806612
0.812723
0.803318
0.814668
0.795386
0.525096
0.847054
0.814958
0.804001
0.786861
0.814933
0.805444
0.803847
0.817665
0.807706
0.823716
0.769621
0.813599
0.808017
0.566683
0.804118
0.642666
0.83946
0.638903
0.816172
0.878389
0.601435
0.818766
0.750586
0.804597
0.873804
0.541252
0.824302
0.82348
0.803637
0.826878
0.811769
0.824648
0.831682
0.825969
0.742212
0.828624
0.761721
0.811024
0.794594
0.794763
0.760084
0.805851
0.802188
0.815799
0.754621
0.805377
0.607909
0.617583
0.693699
0.81448
0.845006
0.865452
0.830854
0.799645
0.814416
0.805615
0.819669
0.682866
0.801856
0.744337
0.824872
0.816229
0.806466
0.708023
0.729232
0.53949
0.608609
0.802201
0.61427
0.793919
0.765612
0.771024
0.725566
0.763935
0.769096
0.811066
0.816435
0.820848
0.813184
0.714082
0.611615
0.83991
0.808315
0.783706
0.810883
0.803126
0.837508
0.722314
0.855996
0.763923
0.731894
0.766222
0.812974
0.550686
0.79986
0.842493
0.814119
0.815386
0.811313
0.80024
0.781931
0.836483
0.80324
0.843833
0.722253
0.704126
0.801042
0.796294
0.823235
0.711412
0.848756
0.801488
0.817468
0.799738
0.779782
0.809295
0.598033
0.679802
0.635011
0.814508
0.804781
0.827455
0.750673
0.810804
0.816312
0.821658
0.800024
0.732616
0.798308
0.815331
0.803323
0.708302
0.815212
0.820163
0.840924
0.812489
0.826487
0.862832
0.857879
0.746143
0.606731
0.83875
0.806583
0.84406
0.815782
0.82371
0.815155
0.815402
0.654581
0.806259
0.810556
0.814606
0.792983
0.81154
0.805729
0.862206
0.799717
0.814522
0.81623
0.872463
0.600987
0.81509
0.84367
0.883714
0.536056
0.81782
0.830852
0.796455
0.815014
0.796082
0.868172
0.813242
0.832386
0.813769
0.622392
0.802688
0.804337
0.695554
0.853749
0.759541
0.802125
0.815541
0.81441
0.861346
0.795667
0.834455
0.835699
0.785853
0.825962
0.843538
0.80077
0.811484
0.807954
0.805512
0.816156
0.802786
0.846012
0.769574
0.809982
0.803456
0.816208
0.725465
0.814662
0.819696
0.754008
0.815207
0.817463
0.82858
0.826258
0.801677
0.801416
0.851126
0.767977
0.826206
0.845016
0.804734
0.513931
0.814623
0.829372
0.852997
0.814096
0.803235
0.809105
0.855666
0.780359
0.802745
0.80211
0.8147
0.730764
0.8035
0.830807
0.809094
0.795323
0.794982
0.844056
0.806801
0.84598
0.802126
0.825427
0.814375
0.80439
0.842544
0.814591
0.683325
0.820108
0.807301
0.814447
0.906392
0.801505
0.817091
0.801137
0.801184
0.817636
0.801281
0.803595
0.783696
0.747241
0.807991
0.814669
0.759496
0.792847
0.824209
0.813233
0.823483
0.806976
0.826918
0.875762
0.831698
0.583927
0.710599
0.841644
0.818673
0.844953
0.816243
0.850805
0.808343
0.813368
0.800335
0.839295
0.861582
0.85353
0.733819
0.815664
0.823352
0.743461
0.818132
0.776342
0.800938
0.735177
0.817504
0.831913
0.823792
0.863615
0.815751
0.81497
0.811723
0.816139
0.836638
0.812435
0.799681
0.810446
0.739816
0.813082
0.774307
0.833756
0.813771
0.641405
0.778223
0.812095
0.800167
0.821125
0.803473
0.816172
0.818685
0.805236
0.820684
0.804331
0.806892
0.60357
0.847855
0.826276
0.827831
0.815916
0.803364
0.703802
0.807556
0.90808
0.815131
0.802096
0.814505
0.782865
0.80831
0.814839
0.822541
0.814895
0.814909
0.817675
0.690771
0.779288
0.766315
0.814363
0.806025
0.802082
0.624401
0.806734
0.803592
0.71078
0.8382
0.818585
0.802976
0.808395
0.800273
0.818607
0.814966
0.814963
0.814663
0.711465
0.832617
0.80057
0.80847
0.843867
0.818591
0.817708
0.801107
0.753727
0.824942
0.788833
0.822672
0.789875
0.806725
0.822219
0.737918
0.818614
0.658846
0.872572
0.706475
0.84584
0.802239
0.875616
0.794355
0.802238
0.821945
0.837255
0.839157
0.826533
0.821127
0.816142
0.802438
0.804446
0.808795
0.729532
0.827997
0.800272
0.718436
0.831463
0.695838
0.801073
0.86205
0.805819
0.706593
0.7982
0.815666
0.701072
0.78569
0.820678
0.832717
0.808483
0.60369
0.732141
0.812663
0.802397
0.814699
0.801605
0.738819
0.815563
0.817182
0.814259
0.776566
0.803396
0.804724
0.804662
0.564396
0.814499
0.834806
0.585962
0.816662
0.817548
0.816222
0.819708
0.815956
0.825703
0.800169
0.795409
0.770891
0.823569
0.830341
0.825769
0.836141
0.766586
0.810614
0.728218
0.772799
0.80979
0.822336
0.814945
0.801134
0.859859
0.814698
0.801757
0.811236
0.81751
0.81668
0.837583
0.816036
0.814547
0.812187
0.81542
0.801238
0.822243
0.804
0.824046
0.815115
0.581544
0.815156
0.835451
0.859622
0.839047
0.500933
0.818213
0.805597
0.504978
0.673789
0.651685
0.835186
0.809005
0.811861
0.814492
0.803278
0.81816
0.811658
0.540353
0.691075
0.818816
0.806818
0.81707
0.803662
0.810571
0.812619
0.821463
0.800377
0.69741
0.857553
0.803229
0.814981
0.815217
0.759121
0.496045
0.833906
0.814293
0.741406
0.80278
0.807303
0.598746
0.828378
0.816254
0.828829
0.820115
0.827037
0.804917
0.723551
0.646097
0.566045
0.826475
0.809585
0.783203
0.814706
0.781263
0.819256
0.873783
0.763669
0.822857
0.815068
0.826965
0.884008
0.815972
0.813488
0.803495
0.814076
0.695089
0.829307
0.800736
0.811246
0.802549
0.784715
0.854891
0.823259
0.841187
0.822772
0.757256
0.756809
0.804358
0.819402
0.803166
0.805429
0.802839
0.777198
0.816188
0.76298
0.822178
0.664486
0.815535
0.803187
0.734659
0.824079
0.819137
0.741507
0.801382
0.7587
0.882896
0.800875
0.814633
0.764171
0.801169
0.81583
0.804112
0.593613
0.821745
0.799732
0.802781
0.816064
0.826698
0.758671
0.806534
0.842884
0.827973
0.814727
0.836804
0.689645
0.702118
0.814699
0.745647
0.82345
0.772603
0.814622
0.802771
0.811436
0.753392
0.794508
0.765911
0.811434
0.803228
0.633764
0.779457
0.799428
0.850426
0.815919
0.829741
0.533415
0.825653
0.785676
0.859414
0.801108
0.818705
0.80134
0.78702
0.79977
0.826774
0.836501
0.822556
0.818477
0.703964
0.775292
0.816646
0.805562
0.811715
0.804066
0.701987
0.793962
0.804179
0.811665
0.828135
0.851828
0.832884
0.815113
0.800468
0.805102
0.802808
0.780327
0.614901
0.801723
0.733902
0.664589
0.823953
0.799822
0.777207
0.800949
0.755553
0.785742
0.813251
0.823103
0.804522
0.817422
0.81846
0.821511
0.815048
0.809528
0.7139
0.701442
0.643403
0.830356
0.870121
0.81625
0.842293
0.848601
0.864275
0.738661
0.817781
0.863596
0.811427
0.814673
0.817268
0.734914
0.813881
0.807715
0.807216
0.524249
0.814713
0.762279
0.814831
0.814055
0.803688
0.702051
0.814864
0.613845
0.825815
0.803143
0.82307
0.85588
0.803594
0.795688
0.822196
0.813161
0.806303
0.763304
0.518547
0.822141
0.803287
0.830045
0.826897
0.803543
0.807225
0.835318
0.723126
0.509827
0.886662
0.801836
0.817154
0.804493
0.707648
0.799668
0.800997
0.816566
0.739114
0.649031
0.883647
0.716231
0.837501
0.813619
0.833899
0.843516
0.793633
0.804917
0.815187
0.853394
0.739844
0.871183
0.815597
0.566788
0.803498
0.748303
0.853651
0.762035
0.804383
0.804108
0.800567
0.802056
0.810485
0.814693
0.856972
0.806976
0.802963
0.801436
0.80094
0.814035
0.818278
0.802739
0.814281
0.849992
0.803177
0.784688
0.802431
0.840746
0.728791
0.815251
0.815395
0.662655
0.715191
0.805811
0.824172
0.804646
0.519589
0.857855
0.814764
0.834103
0.805491
0.803437
0.801761
0.787573
0.590313
0.80454
0.817543
0.836704
0.82184
0.814709
0.7996
0.749111
0.801808
0.767708
0.788011
0.800333
0.791347
0.75106
0.801718
0.812319
0.811982
0.833026
0.850425
0.558788
0.842782
0.814645
0.821093
0.802845
0.822958
0.812875
0.894958
0.801241
0.868934
0.805921
0.761507
0.862666
0.802459
0.800412
0.825276
0.66295
0.647876
0.803541
0.804053
0.693065
0.656809
0.800068
0.825023
0.81476
0.823806
0.735171
0.818194
0.814543
0.827269
0.818158
0.812162
0.814666
0.756004
0.804874
0.817112
0.813129
0.678428
0.570582
0.814703
0.65244
0.723592
0.55952
0.842264
0.801069
0.535629
0.604127
0.828337
0.908312
0.81949
0.654898
0.815706
0.787662
0.802582
0.786928
0.821712
0.811387
0.788752
0.822258
0.802393
0.591886
0.819181
0.768136
0.81733
0.697082
0.823439
0.790913
0.815517
0.801073
0.665348
0.844197
0.807561
0.807623
0.503094
0.818233
0.801271
0.853631
0.709001
0.818478
0.594761
0.72301
0.802247
0.797819
0.735985
0.718184
0.713412
0.516067
0.607093
0.801041
0.526517
0.823817
0.534633
0.758567
0.675714
0.613358
0.548713
0.746927
0.803171
0.7122
0.822548
0.801599
0.803672
0.762544
0.890063
0.800081
0.825641
0.803646
0.814572
0.707887
0.80851
0.738294
0.823145
0.886456
0.834461
0.749387
0.823986
0.771863
0.880317
0.804365
0.760008
0.851451
0.778178
0.800094
0.806345
0.759594
0.747306
0.675274
0.805162
0.80312
0.819204
0.834471
0.614274
0.808954
0.544655
0.670903
0.624298
0.819552
0.822291
0.810573
0.804138
0.618544
0.872926
0.802791
0.803035
0.864144
0.814224
0.772976
0.813959
0.80253
0.819263
0.803218
0.718844
0.804153
0.66189
0.79998
0.805339
0.801908
0.641634
0.812602
0.811286
0.725992
0.818787
0.554607
0.580745
0.804329
0.698526
0.727585
0.575958
0.726211
0.815241
0.702322
0.773748
0.714677
0.813707
0.672616
0.763446
0.807072
0.812111
0.658302
0.802228
0.895498
0.79706
0.818203
0.592175
0.696067
0.802345
0.814705
0.815567
0.852315
0.814332
0.804486
0.803918
0.803484
0.715997
0.715826
0.618974
0.773033
0.542609
0.722306
0.81149
0.815914
0.807114
0.800306
0.569305
0.81061
0.803916
0.559561
0.550412
0.748063
0.803726
0.807439
0.554096
0.798825
0.573913
0.724526
0.611285
0.814266
0.803072
0.600789
0.611549
0.868457
0.810755
0.766734
0.720481
0.628117
0.657782
0.705579
0.8174
0.761103
0.765293
0.627137
0.755491
0.810825
0.816832
0.814229
0.816946
0.867331
0.756462
0.820234
0.803581
0.851975
0.814656
0.802919
0.814764
0.720516
0.81432
0.813391
0.816578
0.812583
0.817268
0.803395
0.819252
0.811844
0.811225
0.818607
0.800296
0.817951
0.820269
0.669887
0.819934
0.868986
0.819505
0.793291
0.648468
0.859251
0.820115
0.826048
0.800546
0.812999
0.757502
0.853287
0.575098
0.730208
0.810081
0.817126
0.804039
0.803503
0.833071
0.805803
0.805932
0.816748
0.78186
0.839472
0.842781
0.81635
0.666747
0.62381
0.817218
0.81799
0.789818
0.850403
0.847991
0.811888
0.815014
0.779095
0.815605
0.81917
0.815641
0.820101
0.81409
0.817275
0.851797
0.817414
0.815914
0.818926
0.819114
0.785442
0.815518
0.805023
0.805194
0.805521
0.819902
0.813246
0.789574
0.753708
0.814312
0.806469
0.810351
0.806575
0.858355
0.804185
0.8155
0.814424
0.806001
0.689981
0.804078
0.814478
0.816028
0.810558
0.81453
0.814936
0.814729
0.810383
0.864924
0.510388
0.814568
0.842482
0.814367
0.803269
0.808916
0.8165
0.840577
0.801421
0.802281
0.813524
0.694779
0.814592
0.809068
0.808372
0.814221
0.8146
0.814724
0.815013
0.520383
0.812463
0.719878
0.886238
0.822237
0.732434
0.681747
0.816838
0.804239
0.819613
0.649085
0.802209
0.814989
0.650503
0.80085
0.80442
0.816486
0.807229
0.857431
0.810048
0.610173
0.801632
0.775302
0.81147
0.889456
0.804383
0.815758
0.820105
0.832955
0.815045
0.823617
0.837248
0.637721
0.803823
0.658284
0.815342
0.815251
0.709841
0.815145
0.806113
0.710859
0.81614
0.705457
0.861719
0.78461
0.815844
0.814646
0.81505
0.671213
0.815265
0.635757
0.801001
0.792774
0.823487
0.816666
0.718367
0.76683
0.831101
0.814404
0.822142
0.82313
0.815076
0.826477
0.80044
0.556373
0.754537
0.76068
0.730106
0.838537
0.823425
0.835172
0.777745
0.802896
0.814748
0.814699
0.814697
0.775474
0.567834
0.803323
0.537045
0.809272
0.825334
0.800681
0.803908
0.814014
0.806259
0.783965
0.733125
0.815031
0.859734
0.814776
0.800228
0.736043
0.810439
0.789182
0.834461
0.514671
0.79627
0.80733
0.799877
0.695414
0.81453
0.812005
0.858591
0.572901
0.807591
0.803385
0.814445
0.619153
0.814777
0.803449
0.80354
0.803156
0.814873
0.814956
0.817494
0.814753
0.715246
0.804718
0.803318
0.81472
0.896484
0.814826
0.775337
0.842197
0.799368
0.803235
0.604691
0.814627
0.803473
0.826693
0.802477
0.866815
0.815925
0.854762
0.801325
0.821878
0.77857
0.562827
0.754638
0.795552
0.805351
0.814142
0.815366
0.559968
0.862324
0.859411
0.770156
0.758011
0.738147
0.813112
0.84962
0.814658
0.814452
0.814692
0.804439
0.725837
0.803648
0.800073
0.764182
0.825402
0.824188
0.862375
0.817059
0.814708
0.550773
0.809084
0.81467
0.801534
0.775201
0.818316
0.803199
0.814512
0.82799
0.798757
0.804328
0.801882
0.816343
0.839988
0.803324
0.800081
0.802522
0.765894
0.821138
0.571278
0.868869
0.80388
0.550441
0.804025
0.804198
0.820512
0.60988
0.609626
0.802391
0.804614
0.80176
0.861277
0.780366
0.815876
0.803081
0.867529
0.804888
0.804616
0.827149
0.817198
0.821114
0.822483
0.82156
0.867973
0.730939
0.852772
0.818539
0.656252
0.803313
0.803339
0.803797
0.822352
0.824652
0.804676
0.801961
0.800975
0.823867
0.803906
0.803817
0.800631
0.825534
0.804137
0.802455
0.806265
0.828912
0.801582
0.802362
0.825336
0.800472
0.816837
0.653896
0.827493
0.850519
0.8055
0.820851
0.803455
0.829806
0.838406
0.80353
0.822686
0.801265
0.807916
0.789848
0.802575
0.803882
0.806538
0.806553
0.805419
0.819831
0.816241
0.811525
0.832417
0.80315
0.802496
0.800837
0.789389
0.834718
0.803391
0.820584
0.816669
0.807674
0.805863
0.803045
0.839752
0.866434
0.800545
0.681125
0.801802
0.842995
0.817973
0.806117
0.804628
0.820358
0.845351
0.615983
0.829834
0.795766
0.851823
0.820018
0.812376
0.813886
0.809162
0.804123
0.813253
0.809113
0.594936
0.848753
0.795149
0.815718
0.855283
0.820562
0.764487
0.809254
0.815966
0.816792
0.803146
0.664238
0.810196
0.863758
0.803623
0.8014
0.776955
0.871695
0.801074
0.877516
0.807662
0.818514
0.821853
0.803264
0.804559
0.814283
0.817296
0.804454
0.814923
0.817663
0.881778
0.82136
0.8095
0.801159
0.829344
0.810701
0.840008
0.80954
0.807132
0.813113
0.817934
0.830774
0.815202
0.823634
0.833319
0.815148
0.703994
0.696356
0.814705
0.819078
0.804828
0.814725
0.524117
0.855458
0.800617
0.806408
0.815392
0.815048
0.804186
0.814103
0.801359
0.801927
0.808885
0.815758
0.758789
0.785756
0.824108
0.84393
0.83562
0.801192
0.806328
0.803488
0.813165
0.806393
0.800481
0.800681
0.801669
0.811821
0.798127
0.80373
0.83643
0.832388
0.732716
0.695156
0.807867
0.703758
0.800524
0.585789
0.80466
0.807539
0.804019
0.819481
0.834859
0.815478
0.814563
0.810514
0.80407
0.881959
0.817664
0.805806
0.773043
0.5972
0.810439
0.807583
0.770259
0.815921
0.815435
0.791862
0.800984
0.804246
0.641436
0.831236
0.803644
0.783052
0.779992
0.85335
0.810177
0.803857
0.803631
0.811048
0.811376
0.527488
0.802413
0.840374
0.81548
0.798909
0.593847
0.815326
0.815605
0.81469
0.834694
0.815467
0.804305
0.823096
0.806346
0.579555
0.80902
0.73905
0.798977
0.815221
0.72352
0.816399
0.847272
0.832276
0.666964
0.891245
0.78611
0.778956
0.797166
0.779812
0.809364
0.8513
0.808916
0.803242
0.815145
0.81037
0.783212
0.786444
0.815396
0.809294
0.835534
0.822406
0.836385
0.802592
0.800375
0.814741
0.857287
0.817576
0.81923
0.814971
0.610413
0.795874
0.824945
0.830107
0.866478
0.814338
0.819717
0.5176
0.811276
0.801456
0.814196
0.81574
0.848303
0.814719
0.811295
0.881906
0.765765
0.81306
0.814853
0.810502
0.805431
0.815745
0.658361
0.800766
0.850281
0.834181
0.811522
0.81487
0.814985
0.809758
0.703358
0.813831
0.801189
0.839461
0.819749
0.812604
0.832183
0.794064
0.812914
0.819103
0.809802
0.82056
0.746697
0.85609
0.820244
0.814761
0.814729
0.814392
0.817052
0.818459
0.814449
0.81218
0.841889
0.819883
0.801122
0.825918
0.827917
0.817008
0.815033
0.801284
0.802129
0.814734
0.820308
0.830073
0.814504
0.817775
0.800852
0.811381
0.814549
0.814466
0.802643
0.816152
0.814932
0.80353
0.81458
0.836555
0.800244
0.810881
0.822549
0.565212
0.815715
0.819463
0.816716
0.816361
0.823142
0.829761
0.817013
0.820124
0.703444
0.814747
0.802025
0.817042
0.81994
0.835761
0.82277
0.816399
0.830409
0.826066
0.812338
0.819412
0.820543
0.805572
0.814817
0.817029
0.820108
0.833103
0.814269
0.817116
0.802868
0.814656
0.814708
0.532806
0.632836
0.814583
0.82265
0.802558
0.823576
0.817316
0.84273
0.710012
0.815309
0.732712
0.818425
0.811779
0.814814
0.830237
0.815228
0.805904
0.814636
0.830908
0.840548
0.814423
0.720969
0.819873
0.817408
0.800789
0.803126
0.816753
0.856557
0.814324
0.814991
0.850403
0.829811
0.84392
0.582138
0.830124
0.81548
0.812334
0.81874
0.85191
0.819089
0.720096
0.8005
0.832399
0.800815
0.800646
0.805979
0.749275
0.81501
0.81582
0.728013
0.815817
0.827974
0.814911
0.815505
0.800217
0.819661
0.814697
0.82454
0.808894
0.809424
0.816308
0.696152
0.820353
0.815565
0.814692
0.643985
0.716593
0.602587
0.823901
0.54368
0.855258
0.728942
0.843658
0.814153
0.726703
0.822226
0.817227
0.744042
0.808201
0.819657
0.794526
0.817851
0.817272
0.817201
0.814693
0.809388
0.803809
0.738824
0.837271
0.821358
0.817946
0.800133
0.815975
0.803054
0.817409
0.815024
0.855982
0.819068
0.508456
0.814646
0.820073
0.819954
0.778603
0.816275
0.806907
0.819081
0.846628
0.600149
0.810068
0.800327
0.816754
0.818937
0.818996
0.814105
0.819891
0.815214
0.815964
0.803202
0.815648
0.846904
0.815395
0.792414
0.813025
0.625592
0.717266
0.814746
0.81834
0.803377
0.823486
0.735013
0.803224
0.803242
0.821448
0.700923
0.818924
0.800381
0.81685
0.866388
0.785968
0.823141
0.819291
0.823782
0.815553
0.770391
0.802671
0.815131
0.902564
0.827814
0.817808
0.832864
0.811233
0.87005
0.717621
0.69503
0.853598
0.80281
0.696433