# vtk DataFile Version 1.0
unstructured grid
ascii
DATASET UNSTRUCTURED_GRID
points 7812 float
-1 0 0
-1 1 0
2 0 0
2 1 0
0 0 0
1 0 0
-1 1 0.1
-1 0 0.1
0 0 0.1
1 0 0.1
2 0 0.1
2 1 0.1
-0.99 0 0
-0.98 0 0
-0.97 0 0
-0.96 0 0
-0.95 0 0
-0.94 0 0
-0.93 0 0
-0.92 0 0
-0.91 0 0
-0.9 0 0
-0.89 0 0
-0.88 0 0
-0.87 0 0
-0.86 0 0
-0.85 0 0
-0.84 0 0
-0.83 0 0
-0.82 0 0
-0.81 0 0
-0.8 0 0
-0.79 0 0
-0.78 0 0
-0.77 0 0
-0.76 0 0
-0.75 0 0
-0.74 0 0
-0.73 0 0
-0.72 0 0
-0.71 0 0
-0.7 0 0
-0.69 0 0
-0.68 0 0
-0.67 0 0
-0.66 0 0
-0.65 0 0
-0.64 0 0
-0.63 0 0
-0.62 0 0
-0.61 0 0
-0.6 0 0
-0.59 0 0
-0.58 0 0
-0.57 0 0
-0.56 0 0
-0.55 0 0
-0.54 0 0
-0.53 0 0
-0.52 0 0
-0.51 0 0
-0.5 0 0
-0.49 0 0
-0.48 0 0
-0.47 0 0
-0.46 0 0
-0.45 0 0
-0.44 0 0
-0.43 0 0
-0.42 0 0
-0.41 0 0
-0.4 0 0
-0.39 0 0
-0.38 0 0
-0.37 0 0
-0.36 0 0
-0.35 0 0
-0.34 0 0
-0.33 0 0
-0.32 0 0
-0.31 0 0
-0.3 0 0
-0.29 0 0
-0.28 0 0
-0.27 0 0
-0.26 0 0
-0.25 0 0
-0.24 0 0
-0.23 0 0
-0.22 0 0
-0.21 0 0
-0.2 0 0
-0.19 0 0
-0.18 0 0
-0.17 0 0
-0.16 0 0
-0.15 0 0
-0.14 0 0
-0.13 0 0
-0.12 0 0
-0.11 0 0
-0.1 0 0
-0.09 0 0
-0.08 0 0
-0.07 0 0
-0.06 0 0
-0.05 0 0
-0.04 0 0
-0.03 0 0
-0.02 0 0
-0.01 0 0
1.01 0 0
1.02 0 0
1.03 0 0
1.04 0 0
1.05 0 0
1.06 0 0
1.07 0 0
1.08 0 0
1.09 0 0
1.1 0 0
1.11 0 0
1.12 0 0
1.13 0 0
1.14 0 0
1.15 0 0
1.16 0 0
1.17 0 0
1.18 0 0
1.19 0 0
1.2 0 0
1.21 0 0
1.22 0 0
1.23 0 0
1.24 0 0
1.25 0 0
1.26 0 0
1.27 0 0
1.28 0 0
1.29 0 0
1.3 0 0
1.31 0 0
1.32 0 0
1.33 0 0
1.34 0 0
1.35 0 0
1.36 0 0
1.37 0 0
1.38 0 0
1.39 0 0
1.4 0 0
1.41 0 0
1.42 0 0
1.43 0 0
1.44 0 0
1.45 0 0
1.46 0 0
1.47 0 0
1.48 0 0
1.49 0 0
1.5 0 0
1.51 0 0
1.52 0 0
1.53 0 0
1.54 0 0
1.55 0 0
1.56 0 0
1.57 0 0
1.58 0 0
1.59 0 0
1.6 0 0
1.61 0 0
1.62 0 0
1.63 0 0
1.64 0 0
1.65 0 0
1.66 0 0
1.67 0 0
1.68 0 0
1.69 0 0
1.7 0 0
1.71 0 0
1.72 0 0
1.73 0 0
1.74 0 0
1.75 0 0
1.76 0 0
1.77 0 0
1.78 0 0
1.79 0 0
1.8 0 0
1.81 0 0
1.82 0 0
1.83 0 0
1.84 0 0
1.85 0 0
1.86 0 0
1.87 0 0
1.88 0 0
1.89 0 0
1.9 0 0
1.91 0 0
1.92 0 0
1.93 0 0
1.94 0 0
1.95 0 0
1.96 0 0
1.97 0 0
1.98 0 0
1.99 0 0
2 0.010289 0
2 0.0215307 0
2 0.0338135 0
2 0.0472336 0
2 0.0618965 0
2 0.0779171 0
2 0.0954213 0
2 0.114546 0
2 0.135442 0
2 0.158274 0
2 0.183219 0
2 0.210474 0
2 0.240253 0
2 0.27279 0
2 0.308339 0
2 0.347181 0
2 0.389619 0
2 0.435987 0
2 0.486649 0
2 0.542002 0
2 0.602481 0
2 0.66856 0
2 0.740758 0
2 0.819642 0
2 0.90583 0
1.9 1 0
1.8 1 0
1.7 1 0
1.6 1 0
1.5 1 0
1.4 1 0
1.3 1 0
1.2 1 0
1.1 1 0
1 1 0
0.9 1 0
0.8 1 0
0.7 1 0
0.6 1 0
0.5 1 0
0.4 1 0
0.3 1 0
0.2 1 0
0.1 1 0
3.69793e-12 1 0
-0.1 1 0
-0.2 1 0
-0.3 1 0
-0.4 1 0
-0.5 1 0
-0.6 1 0
-0.7 1 0
-0.8 1 0
-0.9 1 0
-1 0.90583 0
-1 0.819642 0
-1 0.740758 0
-1 0.66856 0
-1 0.602481 0
-1 0.542002 0
-1 0.486649 0
-1 0.435987 0
-1 0.389619 0
-1 0.347181 0
-1 0.308339 0
-1 0.27279 0
-1 0.240253 0
-1 0.210474 0
-1 0.183219 0
-1 0.158274 0
-1 0.135442 0
-1 0.114546 0
-1 0.0954213 0
-1 0.0779171 0
-1 0.0618965 0
-1 0.0472336 0
-1 0.0338135 0
-1 0.0215307 0
-1 0.010289 0
0.00921362 0.00379763 0
0.0184561 0.00752451 0
0.0277268 0.0111804 0
0.0370253 0.0147652 0
0.0463511 0.0182786 0
0.0557034 0.0217203 0
0.0650819 0.0250903 0
0.074486 0.0283883 0
0.083915 0.0316141 0
0.0933685 0.0347675 0
0.102846 0.0378484 0
0.112347 0.0408565 0
0.12187 0.0437917 0
0.131416 0.0466538 0
0.140983 0.0494427 0
0.150572 0.0521581 0
0.160181 0.0547999 0
0.16981 0.0573681 0
0.179458 0.0598623 0
0.189125 0.0622825 0
0.198811 0.0646285 0
0.208514 0.0669001 0
0.218234 0.0690974 0
0.227971 0.07122 0
0.237724 0.073268 0
0.247493 0.0752411 0
0.257276 0.0771393 0
0.267073 0.0789625 0
0.276884 0.0807105 0
0.286708 0.0823832 0
0.296545 0.0839806 0
0.306394 0.0855025 0
0.316254 0.0869488 0
0.326125 0.0883196 0
0.336006 0.0896146 0
0.345896 0.0908339 0
0.355796 0.0919773 0
0.365704 0.0930447 0
0.375621 0.0940362 0
0.385544 0.0949517 0
0.395474 0.095791 0
0.40541 0.0965542 0
0.415352 0.0972412 0
0.425299 0.097852 0
0.43525 0.0983865 0
0.445205 0.0988447 0
0.455164 0.0992266 0
0.465125 0.0995321 0
0.475088 0.0997613 0
0.485052 0.0999141 0
0.495017 0.0999904 0
0.504983 0.0999904 0
0.514948 0.0999141 0
0.524912 0.0997613 0
0.534875 0.0995321 0
0.544836 0.0992266 0
0.554795 0.0988447 0
0.56475 0.0983865 0
0.574701 0.097852 0
0.584648 0.0972412 0
0.59459 0.0965542 0
0.604526 0.095791 0
0.614456 0.0949517 0
0.624379 0.0940362 0
0.634296 0.0930447 0
0.644204 0.0919773 0
0.654104 0.0908339 0
0.663994 0.0896146 0
0.673875 0.0883196 0
0.683746 0.0869488 0
0.693606 0.0855025 0
0.703455 0.0839806 0
0.713292 0.0823832 0
0.723116 0.0807105 0
0.732927 0.0789625 0
0.742724 0.0771393 0
0.752508 0.0752411 0
0.762276 0.073268 0
0.772029 0.07122 0
0.781766 0.0690974 0
0.791486 0.0669001 0
0.801189 0.0646285 0
0.810875 0.0622825 0
0.820542 0.0598623 0
0.83019 0.0573681 0
0.839819 0.0547999 0
0.849428 0.0521581 0
0.859017 0.0494427 0
0.868584 0.0466538 0
0.87813 0.0437917 0
0.887653 0.0408565 0
0.897154 0.0378484 0
0.906631 0.0347675 0
0.916085 0.0316141 0
0.925514 0.0283883 0
0.934918 0.0250903 0
0.944297 0.0217203 0
0.953649 0.0182786 0
0.962975 0.0147652 0
0.972273 0.0111804 0
0.981544 0.00752451 0
0.990786 0.00379763 0
-1 0.90583 0.1
-1 0.819642 0.1
-1 0.740758 0.1
-1 0.66856 0.1
-1 0.602481 0.1
-1 0.542002 0.1
-1 0.486649 0.1
-1 0.435987 0.1
-1 0.389619 0.1
-1 0.347181 0.1
-1 0.308339 0.1
-1 0.27279 0.1
-1 0.240253 0.1
-1 0.210474 0.1
-1 0.183219 0.1
-1 0.158274 0.1
-1 0.135442 0.1
-1 0.114546 0.1
-1 0.0954213 0.1
-1 0.0779171 0.1
-1 0.0618965 0.1
-1 0.0472336 0.1
-1 0.0338135 0.1
-1 0.0215307 0.1
-1 0.010289 0.1
-0.99 0 0.1
-0.98 0 0.1
-0.97 0 0.1
-0.96 0 0.1
-0.95 0 0.1
-0.94 0 0.1
-0.93 0 0.1
-0.92 0 0.1
-0.91 0 0.1
-0.9 0 0.1
-0.89 0 0.1
-0.88 0 0.1
-0.87 0 0.1
-0.86 0 0.1
-0.85 0 0.1
-0.84 0 0.1
-0.83 0 0.1
-0.82 0 0.1
-0.81 0 0.1
-0.8 0 0.1
-0.79 0 0.1
-0.78 0 0.1
-0.77 0 0.1
-0.76 0 0.1
-0.75 0 0.1
-0.74 0 0.1
-0.73 0 0.1
-0.72 0 0.1
-0.71 0 0.1
-0.7 0 0.1
-0.69 0 0.1
-0.68 0 0.1
-0.67 0 0.1
-0.66 0 0.1
-0.65 0 0.1
-0.64 0 0.1
-0.63 0 0.1
-0.62 0 0.1
-0.61 0 0.1
-0.6 0 0.1
-0.59 0 0.1
-0.58 0 0.1
-0.57 0 0.1
-0.56 0 0.1
-0.55 0 0.1
-0.54 0 0.1
-0.53 0 0.1
-0.52 0 0.1
-0.51 0 0.1
-0.5 0 0.1
-0.49 0 0.1
-0.48 0 0.1
-0.47 0 0.1
-0.46 0 0.1
-0.45 0 0.1
-0.44 0 0.1
-0.43 0 0.1
-0.42 0 0.1
-0.41 0 0.1
-0.4 0 0.1
-0.39 0 0.1
-0.38 0 0.1
-0.37 0 0.1
-0.36 0 0.1
-0.35 0 0.1
-0.34 0 0.1
-0.33 0 0.1
-0.32 0 0.1
-0.31 0 0.1
-0.3 0 0.1
-0.29 0 0.1
-0.28 0 0.1
-0.27 0 0.1
-0.26 0 0.1
-0.25 0 0.1
-0.24 0 0.1
-0.23 0 0.1
-0.22 0 0.1
-0.21 0 0.1
-0.2 0 0.1
-0.19 0 0.1
-0.18 0 0.1
-0.17 0 0.1
-0.16 0 0.1
-0.15 0 0.1
-0.14 0 0.1
-0.13 0 0.1
-0.12 0 0.1
-0.11 0 0.1
-0.1 0 0.1
-0.09 0 0.1
-0.08 0 0.1
-0.07 0 0.1
-0.06 0 0.1
-0.05 0 0.1
-0.04 0 0.1
-0.03 0 0.1
-0.02 0 0.1
-0.01 0 0.1
0.00921362 0.00379763 0.1
0.0184561 0.00752451 0.1
0.0277268 0.0111804 0.1
0.0370253 0.0147652 0.1
0.0463511 0.0182786 0.1
0.0557034 0.0217203 0.1
0.0650819 0.0250903 0.1
0.074486 0.0283883 0.1
0.083915 0.0316141 0.1
0.0933685 0.0347675 0.1
0.102846 0.0378484 0.1
0.112347 0.0408565 0.1
0.12187 0.0437917 0.1
0.131416 0.0466538 0.1
0.140983 0.0494427 0.1
0.150572 0.0521581 0.1
0.160181 0.0547999 0.1
0.16981 0.0573681 0.1
0.179458 0.0598623 0.1
0.189125 0.0622825 0.1
0.198811 0.0646285 0.1
0.208514 0.0669001 0.1
0.218234 0.0690974 0.1
0.227971 0.07122 0.1
0.237724 0.073268 0.1
0.247493 0.0752411 0.1
0.257276 0.0771393 0.1
0.267073 0.0789625 0.1
0.276884 0.0807105 0.1
0.286708 0.0823832 0.1
0.296545 0.0839806 0.1
0.306394 0.0855025 0.1
0.316254 0.0869488 0.1
0.326125 0.0883196 0.1
0.336006 0.0896146 0.1
0.345896 0.0908339 0.1
0.355796 0.0919773 0.1
0.365704 0.0930447 0.1
0.375621 0.0940362 0.1
0.385544 0.0949517 0.1
0.395474 0.095791 0.1
0.40541 0.0965542 0.1
0.415352 0.0972412 0.1
0.425299 0.097852 0.1
0.43525 0.0983865 0.1
0.445205 0.0988447 0.1
0.455164 0.0992266 0.1
0.465125 0.0995321 0.1
0.475088 0.0997613 0.1
0.485052 0.0999141 0.1
0.495017 0.0999904 0.1
0.504983 0.0999904 0.1
0.514948 0.0999141 0.1
0.524912 0.0997613 0.1
0.534875 0.0995321 0.1
0.544836 0.0992266 0.1
0.554795 0.0988447 0.1
0.56475 0.0983865 0.1
0.574701 0.097852 0.1
0.584648 0.0972412 0.1
0.59459 0.0965542 0.1
0.604526 0.095791 0.1
0.614456 0.0949517 0.1
0.624379 0.0940362 0.1
0.634296 0.0930447 0.1
0.644204 0.0919773 0.1
0.654104 0.0908339 0.1
0.663994 0.0896146 0.1
0.673875 0.0883196 0.1
0.683746 0.0869488 0.1
0.693606 0.0855025 0.1
0.703455 0.0839806 0.1
0.713292 0.0823832 0.1
0.723116 0.0807105 0.1
0.732927 0.0789625 0.1
0.742724 0.0771393 0.1
0.752508 0.0752411 0.1
0.762276 0.073268 0.1
0.772029 0.07122 0.1
0.781766 0.0690974 0.1
0.791486 0.0669001 0.1
0.801189 0.0646285 0.1
0.810875 0.0622825 0.1
0.820542 0.0598623 0.1
0.83019 0.0573681 0.1
0.839819 0.0547999 0.1
0.849428 0.0521581 0.1
0.859017 0.0494427 0.1
0.868584 0.0466538 0.1
0.87813 0.0437917 0.1
0.887653 0.0408565 0.1
0.897154 0.0378484 0.1
0.906631 0.0347675 0.1
0.916085 0.0316141 0.1
0.925514 0.0283883 0.1
0.934918 0.0250903 0.1
0.944297 0.0217203 0.1
0.953649 0.0182786 0.1
0.962975 0.0147652 0.1
0.972273 0.0111804 0.1
0.981544 0.00752451 0.1
0.990786 0.00379763 0.1
1.01 0 0.1
1.02 0 0.1
1.03 0 0.1
1.04 0 0.1
1.05 0 0.1
1.06 0 0.1
1.07 0 0.1
1.08 0 0.1
1.09 0 0.1
1.1 0 0.1
1.11 0 0.1
1.12 0 0.1
1.13 0 0.1
1.14 0 0.1
1.15 0 0.1
1.16 0 0.1
1.17 0 0.1
1.18 0 0.1
1.19 0 0.1
1.2 0 0.1
1.21 0 0.1
1.22 0 0.1
1.23 0 0.1
1.24 0 0.1
1.25 0 0.1
1.26 0 0.1
1.27 0 0.1
1.28 0 0.1
1.29 0 0.1
1.3 0 0.1
1.31 0 0.1
1.32 0 0.1
1.33 0 0.1
1.34 0 0.1
1.35 0 0.1
1.36 0 0.1
1.37 0 0.1
1.38 0 0.1
1.39 0 0.1
1.4 0 0.1
1.41 0 0.1
1.42 0 0.1
1.43 0 0.1
1.44 0 0.1
1.45 0 0.1
1.46 0 0.1
1.47 0 0.1
1.48 0 0.1
1.49 0 0.1
1.5 0 0.1
1.51 0 0.1
1.52 0 0.1
1.53 0 0.1
1.54 0 0.1
1.55 0 0.1
1.56 0 0.1
1.57 0 0.1
1.58 0 0.1
1.59 0 0.1
1.6 0 0.1
1.61 0 0.1
1.62 0 0.1
1.63 0 0.1
1.64 0 0.1
1.65 0 0.1
1.66 0 0.1
1.67 0 0.1
1.68 0 0.1
1.69 0 0.1
1.7 0 0.1
1.71 0 0.1
1.72 0 0.1
1.73 0 0.1
1.74 0 0.1
1.75 0 0.1
1.76 0 0.1
1.77 0 0.1
1.78 0 0.1
1.79 0 0.1
1.8 0 0.1
1.81 0 0.1
1.82 0 0.1
1.83 0 0.1
1.84 0 0.1
1.85 0 0.1
1.86 0 0.1
1.87 0 0.1
1.88 0 0.1
[...]
CELL_DATA 7425
SCALARS rho float
LOOKUP_TABLE default
0.646575
0.808395
0.836388
0.840631
0.803723
0.835088
0.831973
0.836379
0.839108
0.757878
0.868375
0.81425
0.836732
0.840486
0.808881
0.83566
0.801716
0.838132
0.80597
0.779969
0.843658
0.82518
0.745753
0.841367
0.806772
0.743121
0.843212
0.851715
0.804343
0.812574
0.830775
0.736252
0.806202
0.698101
0.652099
0.841343
0.806238
0.836453
0.815281
0.839883
0.750377
0.743464
0.802987
0.697301
0.66306
0.764969
0.814055
0.836805
0.720207
0.729483
0.755838
0.808608
0.816319
0.802523
0.715642
0.678207
0.838097
0.802498
0.75786
0.72845
0.750958
0.811551
0.83822
0.802692
0.803122
0.835633
0.643599
0.788527
0.680637
0.812537
0.808893
0.80451
0.886115
0.824343
0.814782
0.839091
0.808462
0.804358
0.838114
0.766401
0.835624
0.811149
0.833915
0.795361
0.844087
0.805506
0.630966
0.841152
0.647889
0.856738
0.699623
0.750026
0.84878
0.805315
0.835561
0.781476
0.838869
0.796196
0.83977
0.807729
0.826217
0.748765
0.805959
0.840223
0.649676
0.815208
0.837692
0.739794
0.835865
0.803079
0.835082
0.79179
0.796182
0.81624
0.80281
0.794969
0.843189
0.804251
0.703097
0.706128
0.808534
0.791869
0.839267
0.798012
0.865827
0.84259
0.81152
0.816102
0.697742
0.643137
0.835545
0.700616
0.648421
0.870271
0.719133
0.803887
0.815235
0.748639
0.637491
0.754533
0.755695
0.81459
0.834228
0.712459
0.807654
0.787122
0.623709
0.805966
0.789063
0.841201
0.828016
0.699417
0.807958
0.754195
0.713116
0.806281
0.814616
0.843042
0.810382
0.716135
0.805421
0.698108
0.805579
0.842568
0.836664
0.803686
0.838818
0.798515
0.810632
0.805227
0.836454
0.809994
0.808439
0.802984
0.802371
0.766089
0.808907
0.781816
0.6741
0.693007
0.803645
0.807466
0.88293
0.842665
0.693365
0.838106
0.802004
0.831542
0.803776
0.837356
0.840028
0.80543
0.811257
0.712941
0.835784
0.8353
0.782406
0.811463
0.863266
0.811673
0.816408
0.837191
0.660101
0.842623
0.629284
0.653711
0.648134
0.693283
0.831809
0.882641
0.811332
0.802995
0.848519
0.839596
0.834956
0.836836
0.835676
0.673311
0.689811
0.837017
0.65082
0.671764
0.708821
0.831041
0.835792
0.839095
0.844619
0.840572
0.86684
0.714788
0.837922
0.752778
0.809726
0.806778
0.80392
0.74133
0.751028
0.659308
0.704175
0.869791
0.87765
0.826025
0.811539
0.814066
0.816314
0.751128
0.837384
0.805005
0.839394
0.801082
0.835017
0.73132
0.840252
0.838568
0.766774
0.62783
0.80274
0.746655
0.845186
0.835558
0.737656
0.835412
0.83594
0.856171
0.832367
0.809794
0.805327
0.839785
0.86739
0.811026
0.658236
0.856995
0.817809
0.809159
0.840752
0.845707
0.837578
0.836142
0.800396
0.835833
0.869145
0.856245
0.831058
0.847759
0.805534
0.835669
0.804598
0.768264
0.741682
0.637026
0.70197
0.817718
0.839147
0.835621
0.857714
0.789637
0.681615
0.840734
0.653854
0.789105
0.805375
0.682525
0.673213
0.674405
0.835796
0.838177
0.839586
0.835568
0.840476
0.78233
0.815373
0.806105
0.840616
0.850812
0.869817
0.844867
0.806106
0.697407
0.809185
0.842611
0.721345
0.802084
0.803697
0.870153
0.835681
0.641252
0.83733
0.767261
0.855429
0.758859
0.833696
0.908053
0.804438
0.801805
0.695804
0.67449
0.717588
0.798978
0.840085
0.835808
0.837074
0.884486
0.860093
0.803859
0.811052
0.828658
0.765032
0.807834
0.88333
0.804084
0.810557
0.805297
0.803974
0.83741
0.835635
0.835465
0.690586
0.833473
0.712579
0.813186
0.692963
0.817543
0.803771
0.84232
0.761264
0.819782
0.826717
0.835496
0.802554
0.803765
0.815147
0.743848
0.827261
0.838803
0.837385
0.803845
0.751838
0.622166
0.810303
0.836552
0.805144
0.840289
0.801122
0.673255
0.848075
0.837458
0.80669
0.79943
0.838106
0.809384
0.807594
0.8356
0.811359
0.837702
0.782726
0.823434
0.811672
0.627463
0.808543
0.675399
0.846161
0.675327
0.834986
0.882066
0.686869
0.822221
0.769191
0.808213
0.877128
0.655801
0.837864
0.83771
0.806415
0.83982
0.815707
0.838385
0.843182
0.838784
0.765927
0.840995
0.769718
0.815119
0.800691
0.806981
0.776915
0.809264
0.804135
0.831746
0.777309
0.809138
0.655094
0.661897
0.735765
0.837564
0.853137
0.870863
0.841296
0.802093
0.83998
0.809511
0.832544
0.711236
0.804976
0.76209
0.833182
0.834151
0.811381
0.716694
0.752133
0.636689
0.649681
0.805693
0.654117
0.808144
0.77375
0.783782
0.737284
0.780417
0.786
0.833063
0.835904
0.836364
0.837377
0.748006
0.695198
0.849009
0.824639
0.792439
0.815607
0.806009
0.847623
0.755612
0.862754
0.772331
0.761451
0.78429
0.831379
0.642399
0.802229
0.851562
0.818077
0.83693
0.832558
0.803444
0.798817
0.844223
0.805005
0.852664
0.740618
0.714011
0.802594
0.808521
0.837344
0.741099
0.856676
0.805517
0.835141
0.801749
0.789288
0.813987
0.642782
0.708344
0.670418
0.835424
0.815105
0.839747
0.767161
0.814513
0.835978
0.836588
0.802773
0.761909
0.81419
0.819801
0.805038
0.746988
0.837176
0.834861
0.842202
0.836482
0.839574
0.867222
0.863205
0.769015
0.650027
0.845637
0.810641
0.850401
0.836311
0.826819
0.837391
0.836893
0.708079
0.811224
0.824589
0.840388
0.804805
0.821469
0.810141
0.863064
0.802193
0.840353
0.835917
0.876854
0.645491
0.83727
0.845836
0.886109
0.629639
0.835485
0.833419
0.80202
0.818378
0.808175
0.873022
0.824265
0.843717
0.818362
0.663439
0.80447
0.807221
0.737397
0.859103
0.768526
0.807173
0.836221
0.838077
0.862338
0.801298
0.842988
0.846176
0.80215
0.828846
0.845524
0.804043
0.816015
0.812584
0.808827
0.83168
0.80404
0.853819
0.77741
0.813652
0.80599
0.826606
0.751103
0.840028
0.835952
0.770238
0.837164
0.829584
0.831807
0.839142
0.805093
0.803663
0.856724
0.775597
0.829921
0.853119
0.808234
0.645201
0.838935
0.841545
0.858359
0.832217
0.804479
0.812971
0.861166
0.786727
0.805986
0.805374
0.839955
0.760684
0.807045
0.833187
0.814037
0.801306
0.810951
0.852799
0.810414
0.852065
0.804148
0.838892
0.835999
0.80723
0.84903
0.838874
0.724298
0.836101
0.810986
0.836068
0.906644
0.803522
0.830576
0.802526
0.803322
0.835533
0.803511
0.80606
0.790048
0.756668
0.826261
0.840114
0.776167
0.808235
0.837766
0.816801
0.837705
0.810861
0.839846
0.878976
0.843189
0.682383
0.732167
0.850845
0.835662
0.852835
0.835075
0.857414
0.812966
0.823427
0.802824
0.848425
0.867448
0.860609
0.758375
0.836518
0.836683
0.753152
0.822323
0.783519
0.802411
0.758361
0.835521
0.843375
0.826413
0.864462
0.835735
0.837959
0.831488
0.835259
0.845176
0.816047
0.80161
0.814163
0.763592
0.83751
0.781347
0.843303
0.818211
0.674224
0.787768
0.816419
0.802437
0.836544
0.807733
0.835299
0.835672
0.809151
0.835871
0.807502
0.811667
0.679658
0.855948
0.839181
0.840476
0.820159
0.806167
0.727365
0.812646
0.908288
0.835206
0.806342
0.836294
0.791797
0.813112
0.835129
0.837209
0.818374
0.838124
0.835609
0.686146
0.794612
0.784401
0.83803
0.80993
0.806295
0.6655
0.811496
0.807689
0.73973
0.839778
0.835559
0.806318
0.812858
0.801834
0.835024
0.825804
0.838013
0.840347
0.732861
0.842193
0.805612
0.813238
0.845187
0.822569
0.835196
0.803936
0.762782
0.837182
0.803765
0.83703
0.797226
0.811635
0.837067
0.752818
0.832364
0.719095
0.876948
0.731724
0.854233
0.818596
0.878843
0.799853
0.804425
0.83693
0.838909
0.840432
0.838107
0.836529
0.833892
0.816652
0.808975
0.812626
0.76027
0.830212
0.803958
0.730006
0.841126
0.690568
0.804835
0.863023
0.809201
0.743296
0.803919
0.836513
0.709854
0.79198
0.835967
0.841411
0.827447
0.695958
0.761375
0.816387
0.806776
0.840066
0.80483
0.757438
0.835738
0.835643
0.83947
0.790014
0.805377
0.807805
0.809518
0.623229
0.840156
0.836597
0.665845
0.835772
0.835612
0.835907
0.835962
0.835855
0.838877
0.803378
0.800672
0.778894
0.826545
0.832622
0.82852
0.838971
0.781353
0.831887
0.759725
0.780448
0.814303
0.837115
0.837608
0.80432
0.860613
0.839953
0.817764
0.833234
0.834975
0.835682
0.847641
0.836096
0.839058
0.815777
0.836748
0.805323
0.836748
0.806752
0.83807
0.837492
0.662441
0.837393
0.846013
0.860503
0.84035
0.657655
0.835511
0.816841
0.641655
0.719336
0.715235
0.844304
0.819783
0.815478
0.837866
0.804301
0.835571
0.815564
0.637767
0.733585
0.822135
0.810368
0.835323
0.806026
0.814255
0.836335
0.835554
0.801976
0.73974
0.858822
0.80431
0.818435
0.836365
0.774477
0.656583
0.844819
0.818122
0.751193
0.804118
0.812409
0.683935
0.830674
0.834816
0.841163
0.836108
0.830676
0.808055
0.756486
0.679684
0.626274
0.839567
0.814408
0.789338
0.839095
0.796735
0.835834
0.877156
0.778468
0.837387
0.835074
0.83956
0.886991
0.835758
0.835897
0.807786
0.817574
0.731074
0.841482
0.802776
0.816076
0.804349
0.792768
0.86183
0.837271
0.847806
0.837315
0.766184
0.770858
0.808965
0.834752
0.804408
0.808853
0.807389
0.793421
0.835434
0.779042
0.82599
0.694166
0.835988
0.807471
0.74483
0.832376
0.832053
0.759183
0.806144
0.775438
0.882654
0.803929
0.840458
0.780691
0.805084
0.836218
0.807085
0.643961
0.825052
0.811105
0.819145
0.836033
0.838622
0.775781
0.811126
0.845152
0.831407
0.81841
0.847053
0.684405
0.725937
0.84007
0.7629
0.837717
0.786466
0.840366
0.80449
0.822292
0.769894
0.800123
0.783006
0.83121
0.804196
0.66901
0.786415
0.803214
0.852223
0.83616
0.841803
0.646858
0.828056
0.792168
0.865634
0.804448
0.822175
0.805265
0.800308
0.801914
0.838354
0.843568
0.825786
0.834896
0.714675
0.790954
0.831612
0.808934
0.836097
0.807236
0.708832
0.806117
0.807769
0.816169
0.830717
0.85728
0.844089
0.837488
0.803521
0.809203
0.80611
0.790281
0.658429
0.817321
0.760279
0.698875
0.836817
0.801595
0.784484
0.803936
0.771547
0.793582
0.839071
0.826158
0.817055
0.834878
0.830502
0.830122
0.837687
0.820584
0.734902
0.726089
0.676713
0.84223
0.874648
0.825417
0.843529
0.856022
0.868593
0.764905
0.831212
0.868558
0.825141
0.840746
0.8288
0.758264
0.832042
0.812537
0.811911
0.637541
0.839459
0.776613
0.837834
0.817566
0.806
0.712133
0.837703
0.656701
0.828725
0.806829
0.831477
0.862632
0.805924
0.801326
0.837017
0.834019
0.810069
0.777284
0.65033
0.836629
0.807256
0.833473
0.839644
0.820264
0.810799
0.843955
0.748801
0.659569
0.889065
0.815217
0.835667
0.807865
0.717705
0.801788
0.804181
0.835826
0.766473
0.681012
0.886019
0.740519
0.84756
0.835675
0.844798
0.852192
0.809251
0.808012
0.836344
0.858801
0.757765
0.874717
0.836524
0.630396
0.807942
0.758686
0.860731
0.780556
0.807655
0.807037
0.802966
0.803749
0.83173
0.840419
0.857655
0.811556
0.803785
0.803936
0.803706
0.839932
0.835637
0.803605
0.840238
0.857721
0.803962
0.798129
0.803368
0.842971
0.760162
0.837107
0.836071
0.705376
0.739692
0.810227
0.837121
0.809587
0.64592
0.859129
0.83504
0.836974
0.808767
0.805356
0.802856
0.801727
0.637498
0.808937
0.835607
0.838068
0.836886
0.839784
0.815701
0.770536
0.806676
0.786887
0.795706
0.802986
0.797929
0.760195
0.804798
0.816672
0.833459
0.841303
0.852029
0.640769
0.851822
0.840761
0.823999
0.806367
0.825691
0.838873
0.896568
0.812017
0.86955
0.810085
0.780093
0.867098
0.806097
0.803815
0.837726
0.693973
0.680038
0.805738
0.806755
0.683905
0.688059
0.80342
0.838355
0.839141
0.837904
0.757438
0.828815
0.838242
0.840087
0.831919
0.815784
0.840791
0.77237
0.809311
0.835025
0.83914
0.705397
0.636689
0.840838
0.684018
0.743472
0.63093
0.851156
0.804042
0.660426
0.648436
0.836558
0.908527
0.83574
0.686586
0.835941
0.800938
0.806073
0.793212
0.82572
0.826037
0.796312
0.836076
0.817921
0.647916
0.835638
0.784289
0.834594
0.706853
0.837535
0.804489
0.836186
0.804576
0.695814
0.850588
0.818182
0.812303
0.650115
0.835533
0.804078
0.855188
0.719904
0.835609
0.690212
0.756469
0.805496
0.810106
0.764518
0.746773
0.723496
0.658345
0.698701
0.804736
0.658866
0.837918
0.675897
0.774376
0.721287
0.700962
0.66235
0.764317
0.804653
0.722026
0.837217
0.803617
0.807187
0.777984
0.892238
0.802848
0.838806
0.80614
0.840248
0.731137
0.812958
0.757044
0.837533
0.889094
0.843622
0.768314
0.837741
0.787065
0.882964
0.807259
0.77544
0.858927
0.792671
0.803454
0.811127
0.775217
0.772173
0.722598
0.808364
0.804839
0.834534
0.844965
0.653614
0.813694
0.649942
0.699356
0.698369
0.823602
0.8369
0.831153
0.807277
0.658192
0.876294
0.803602
0.803786
0.86969
0.840292
0.785432
0.839983
0.803408
0.835823
0.803934
0.740427
0.807905
0.718548
0.802021
0.818886
0.802923
0.674483
0.824021
0.821538
0.742267
0.822752
0.641508
0.634395
0.807983
0.723297
0.747121
0.632677
0.753588
0.837054
0.708228
0.7849
0.724917
0.823155
0.702025
0.778724
0.810958
0.831219
0.70327
0.803331
0.897078
0.802966
0.835631
0.676919
0.723149
0.818327
0.839859
0.836024
0.858332
0.837702
0.808759
0.807737
0.805631
0.741487
0.726522
0.663706
0.789622
0.669105
0.732844
0.832014
0.83528
0.811676
0.803349
0.685602
0.830489
0.806946
0.64586
0.65635
0.765157
0.806788
0.821411
0.633347
0.803755
0.6432
0.757523
0.659127
0.817834
0.806589
0.651995
0.654854
0.873111
0.81473
0.781785
0.748715
0.69553
0.689094
0.713501
0.834424
0.776323
0.773565
0.668944
0.773642
0.830069
0.835426
0.839717
0.835697
0.867581
0.775659
0.835764
0.808068
0.858494
0.840717
0.804321
0.838151
0.73116
0.830855
0.830415
0.833694
0.830176
0.834048
0.805387
0.835183
0.829947
0.829892
0.834798
0.803968
0.834424
0.836071
0.699385
0.835894
0.873773
0.835662
0.799574
0.682802
0.865423
0.836106
0.839278
0.80344
0.838791
0.765956
0.86045
0.686883
0.760806
0.813882
0.835606
0.807263
0.805688
0.844214
0.810695
0.809844
0.835755
0.794619
0.849123
0.851257
0.828951
0.697173
0.703783
0.835551
0.834709
0.8059
0.858025
0.855057
0.816515
0.831889
0.793703
0.835239
0.835327
0.83553
0.836058
0.818491
0.835608
0.859137
0.835612
0.83338
0.835745
0.83547
0.79395
0.832709
0.809438
0.810016
0.80977
0.836015
0.838465
0.802793
0.76262
0.836708
0.81004
0.830905
0.810108
0.863408
0.808089
0.834877
0.838906
0.810082
0.673897
0.806822
0.83921
0.820266
0.814244
0.839472
0.837273
0.838682
0.814069
0.869244
0.652008
0.839687
0.850784
0.838602
0.805675
0.812745
0.835869
0.849967
0.804814
0.806643
0.823092
0.686169
0.839886
0.81331
0.813006
0.837296
0.838863
0.838516
0.837783
0.652323
0.816087
0.752622
0.888615
0.835759
0.742677
0.716294
0.835728
0.80889
0.823296
0.681341
0.804441
0.837875
0.682515
0.803994
0.807497
0.820836
0.817419
0.863924
0.813765
0.653318
0.804321
0.782258
0.815308
0.891655
0.816069
0.819151
0.823564
0.840345
0.837694
0.837813
0.846764
0.675377
0.816655
0.689621
0.836843
0.836936
0.719732
0.837044
0.820611
0.721444
0.830056
0.733405
0.867575
0.790943
0.836299
0.83988
0.837164
0.710677
0.837138
0.669276
0.803081
0.799485
0.837277
0.835808
0.740994
0.774587
0.842749
0.837155
0.830786
0.837491
0.837587
0.839542
0.80279
0.626299
0.764526
0.777394
0.740711
0.848406
0.827275
0.836782
0.795253
0.805608
0.839199
0.839844
0.839719
0.786921
0.632096
0.805634
0.662354
0.820683
0.829004
0.803586
0.806879
0.818601
0.810518
0.798421
0.750204
0.837685
0.864891
0.82641
0.802305
0.747342
0.814793
0.796674
0.841776
0.665758
0.801633
0.824461
0.802054
0.713592
0.838234
0.826285
0.859413
0.628939
0.811226
0.805393
0.836584
0.69165
0.838531
0.805374
0.805646
0.805733
0.838249
0.837983
0.834739
0.839092
0.725321
0.807768
0.805077
0.839509
0.897833
0.838384
0.79026
0.843467
0.803143
0.80455
0.649588
0.839721
0.805673
0.830237
0.807
0.871957
0.827974
0.85556
0.804732
0.836606
0.788697
0.637326
0.775078
0.809592
0.822054
0.817641
0.83625
0.63243
0.866813
0.860241
0.787835
0.769693
0.748257
0.817749
0.850534
0.839574
0.818296
0.839592
0.807593
0.736736
0.806661
0.802169
0.77215
0.838493
0.838115
0.866781
0.83481
0.839732
0.682935
0.812792
0.839737
0.804231
0.789087
0.821461
0.80464
0.837005
0.840574
0.80417
0.808048
0.8042
0.829587
0.849147
0.807396
0.80178
0.806729
0.774625
0.836473
0.638354
0.872697
0.806491
0.627167
0.807952
0.815602
0.824292
0.700648
0.657027
0.805684
0.809035
0.805024
0.865899
0.787043
0.830479
0.806025
0.868022
0.808055
0.807642
0.835709
0.831975
0.825016
0.836741
0.83628
0.871867
0.750828
0.858501
0.835124
0.687998
0.806818
0.806483
0.807081
0.83706
0.837963
0.808409
0.805188
0.803754
0.837914
0.807469
0.806403
0.803382
0.838925
0.806881
0.804583
0.809866
0.840704
0.805488
0.80568
0.82913
0.802454
0.835721
0.686026
0.84022
0.857015
0.809253
0.836414
0.80582
0.841822
0.848247
0.80566
0.837084
0.803237
0.8124
0.7965
0.804702
0.807431
0.810045
0.810443
0.809681
0.835533
0.835986
0.815187
0.843707
0.807246
0.803989
0.803554
0.794947
0.844846
0.805728
0.83624
0.83573
0.811533
0.809958
0.80407
0.848669
0.867009
0.80325
0.707874
0.803885
0.851901
0.835455
0.81071
0.807606
0.82365
0.853014
0.702951
0.833133
0.809428
0.853408
0.835789
0.816051
0.817638
0.81356
0.806818
0.816936
0.812855
0.642468
0.856605
0.800343
0.836444
0.86206
0.836277
0.779477
0.813192
0.836197
0.83327
0.807657
0.695334
0.814804
0.86927
0.81481
0.803356
0.793255
0.87542
0.802386
0.880788
0.818067
0.835452
0.836836
0.807697
0.808305
0.838267
0.83548
0.808909
0.837059
0.821719
0.884765
0.824189
0.813284
0.804711
0.839474
0.814514
0.842345
0.813599
0.810742
0.817605
0.835608
0.839912
0.836125
0.836265
0.835453
0.819451
0.742562
0.716001
0.838336
0.835767
0.809415
0.83698
0.668276
0.860752
0.802581
0.809944
0.834454
0.836473
0.807013
0.836848
0.804221
0.804496
0.813152
0.826941
0.7787
0.79821
0.837898
0.845875
0.837496
0.80421
0.820398
0.805691
0.816836
0.8103
0.803012
0.802938
0.803761
0.821593
0.803713
0.808001
0.846703
0.835412
0.758885
0.685872
0.812167
0.744439
0.803631
0.689779
0.807737
0.811409
0.808107
0.835881
0.83764
0.836711
0.839279
0.814185
0.808359
0.885083
0.835598
0.810449
0.784407
0.692523
0.814092
0.812124
0.782595
0.836094
0.836832
0.798594
0.805999
0.807113
0.711251
0.839401
0.806028
0.799393
0.79005
0.8594
0.813846
0.808111
0.808061
0.815587
0.815042
0.660554
0.805092
0.849858
0.836767
0.804527
0.665641
0.819177
0.83645
0.840338
0.845375
0.836636
0.807419
0.83752
0.811016
0.638872
0.812755
0.764457
0.803726
0.837218
0.742305
0.835905
0.849122
0.834052
0.697519
0.893032
0.794385
0.795256
0.802823
0.787893
0.81344
0.852805
0.813349
0.805812
0.837396
0.83026
0.792332
0.794682
0.83581
0.813838
0.837045
0.83565
0.837924
0.8172
0.805831
0.839315
0.863787
0.830328
0.822961
0.837892
0.65232
0.801935
0.83695
0.837923
0.871644
0.839864
0.823226
0.660093
0.831821
0.804311
0.836209
0.820186
0.855476
0.838678
0.814997
0.884636
0.780593
0.816751
0.8376
0.829744
0.809624
0.83627
0.690218
0.805698
0.857904
0.835996
0.815885
0.830998
0.837787
0.813474
0.731723
0.830388
0.804744
0.849105
0.835434
0.817173
0.841347
0.80863
0.829966
0.83503
0.81446
0.836209
0.770668
0.856862
0.83604
0.819111
0.83883
0.838876
0.833835
0.834644
0.839175
0.829796
0.850425
0.835839
0.80429
0.828654
0.838657
0.821158
0.81868
0.804297
0.804526
0.839203
0.836181
0.832395
0.83945
0.834247
0.804183
0.829488
0.839674
0.838424
0.805695
0.83606
0.837442
0.808334
0.839878
0.846326
0.805237
0.82955
0.826334
0.644423
0.835939
0.835618
0.830943
0.833479
0.837156
0.840063
0.83494
0.836106
0.72774
0.839252
0.804587
0.835656
0.823796
0.837393
0.837306
0.825601
0.842269
0.83929
0.836171
0.82243
0.824504
0.821541
0.838687
0.835646
0.823424
0.84423
0.83764
0.835595
0.804247
0.840035
0.838506
0.667596
0.692767
0.818065
0.837286
0.80591
0.836461
0.835633
0.843742
0.732924
0.836949
0.755269
0.829844
0.830892
0.838512
0.839839
0.837053
0.810709
0.839877
0.839645
0.842761
0.837496
0.742257
0.822763
0.835074
0.80304
0.804265
0.835759
0.862524
0.838567
0.837876
0.857436
0.838339
0.850256
0.680205
0.841629
0.8365
0.830921
0.835715
0.853246
0.835789
0.740551
0.803041
0.834429
0.804302
0.803044
0.809731
0.766123
0.837783
0.835479
0.755065
0.835175
0.830493
0.837251
0.835141
0.802728
0.835612
0.839843
0.828117
0.812657
0.823513
0.833111
0.696486
0.836182
0.835451
0.840086
0.694397
0.726772
0.645942
0.826846
0.677003
0.856474
0.748242
0.844693
0.83723
0.758868
0.830837
0.834261
0.761544
0.812065
0.835963
0.79995
0.834576
0.835603
0.835533
0.83972
0.829105
0.806255
0.756903
0.83985
0.835646
0.834866
0.801832
0.819536
0.8076
0.835606
0.836682
0.856692
0.835223
0.666978
0.831525
0.836027
0.836059
0.787987
0.819811
0.810553
0.822371
0.848554
0.650908
0.814547
0.803181
0.835603
0.835486
0.835355
0.837853
0.836001
0.832419
0.833729
0.805835
0.83313
0.855181
0.834766
0.797824
0.833905
0.667078
0.728383
0.839198
0.835463
0.806155
0.837736
0.74535
0.804347
0.804038
0.8367
0.680309
0.835742
0.803368
0.835732
0.867018
0.793995
0.837533
0.835838
0.827452
0.836552
0.782134
0.804285
0.836842
0.903231
0.830369
0.835609
0.83453
0.834168
0.870388
0.728085
0.689552
0.854231
0.804957
0.683388
0.852275