# vtk DataFile Version 1.0
unstructured grid
ascii
DATASET UNSTRUCTURED_GRID
points 7812 float
-1 0 0
-1 1 0
2 0 0
2 1 0
0 0 0
1 0 0
-1 1 0.1
-1 0 0.1
0 0 0.1
1 0 0.1
2 0 0.1
2 1 0.1
-0.99 0 0
-0.98 0 0
-0.97 0 0
-0.96 0 0
-0.95 0 0
-0.94 0 0
-0.93 0 0
-0.92 0 0
-0.91 0 0
-0.9 0 0
-0.89 0 0
-0.88 0 0
-0.87 0 0
-0.86 0 0
-0.85 0 0
-0.84 0 0
-0.83 0 0
-0.82 0 0
-0.81 0 0
-0.8 0 0
-0.79 0 0
-0.78 0 0
-0.77 0 0
-0.76 0 0
-0.75 0 0
-0.74 0 0
-0.73 0 0
-0.72 0 0
-0.71 0 0
-0.7 0 0
-0.69 0 0
-0.68 0 0
-0.67 0 0
-0.66 0 0
-0.65 0 0
-0.64 0 0
-0.63 0 0
-0.62 0 0
-0.61 0 0
-0.6 0 0
-0.59 0 0
-0.58 0 0
-0.57 0 0
-0.56 0 0
-0.55 0 0
-0.54 0 0
-0.53 0 0
-0.52 0 0
-0.51 0 0
-0.5 0 0
-0.49 0 0
-0.48 0 0
-0.47 0 0
-0.46 0 0
-0.45 0 0
-0.44 0 0
-0.43 0 0
-0.42 0 0
-0.41 0 0
-0.4 0 0
-0.39 0 0
-0.38 0 0
-0.37 0 0
-0.36 0 0
-0.35 0 0
-0.34 0 0
-0.33 0 0
-0.32 0 0
-0.31 0 0
-0.3 0 0
-0.29 0 0
-0.28 0 0
-0.27 0 0
-0.26 0 0
-0.25 0 0
-0.24 0 0
-0.23 0 0
-0.22 0 0
-0.21 0 0
-0.2 0 0
-0.19 0 0
-0.18 0 0
-0.17 0 0
-0.16 0 0
-0.15 0 0
-0.14 0 0
-0.13 0 0
-0.12 0 0
-0.11 0 0
-0.1 0 0
-0.09 0 0
-0.08 0 0
-0.07 0 0
-0.06 0 0
-0.05 0 0
-0.04 0 0
-0.03 0 0
-0.02 0 0
-0.01 0 0
1.01 0 0
1.02 0 0
1.03 0 0
1.04 0 0
1.05 0 0
1.06 0 0
1.07 0 0
1.08 0 0
1.09 0 0
1.1 0 0
1.11 0 0
1.12 0 0
1.13 0 0
1.14 0 0
1.15 0 0
1.16 0 0
1.17 0 0
1.18 0 0
1.19 0 0
1.2 0 0
1.21 0 0
1.22 0 0
1.23 0 0
1.24 0 0
1.25 0 0
1.26 0 0
1.27 0 0
1.28 0 0
1.29 0 0
1.3 0 0
1.31 0 0
1.32 0 0
1.33 0 0
1.34 0 0
1.35 0 0
1.36 0 0
1.37 0 0
1.38 0 0
1.39 0 0
1.4 0 0
1.41 0 0
1.42 0 0
1.43 0 0
1.44 0 0
1.45 0 0
1.46 0 0
1.47 0 0
1.48 0 0
1.49 0 0
1.5 0 0
1.51 0 0
1.52 0 0
1.53 0 0
1.54 0 0
1.55 0 0
1.56 0 0
1.57 0 0
1.58 0 0
1.59 0 0
1.6 0 0
1.61 0 0
1.62 0 0
1.63 0 0
1.64 0 0
1.65 0 0
1.66 0 0
1.67 0 0
1.68 0 0
1.69 0 0
1.7 0 0
1.71 0 0
1.72 0 0
1.73 0 0
1.74 0 0
1.75 0 0
1.76 0 0
1.77 0 0
1.78 0 0
1.79 0 0
1.8 0 0
1.81 0 0
1.82 0 0
1.83 0 0
1.84 0 0
1.85 0 0
1.86 0 0
1.87 0 0
1.88 0 0
1.89 0 0
1.9 0 0
1.91 0 0
1.92 0 0
1.93 0 0
1.94 0 0
1.95 0 0
1.96 0 0
1.97 0 0
1.98 0 0
1.99 0 0
2 0.010289 0
2 0.0215307 0
2 0.0338135 0
2 0.0472336 0
2 0.0618965 0
2 0.0779171 0
2 0.0954213 0
2 0.114546 0
2 0.135442 0
2 0.158274 0
2 0.183219 0
2 0.210474 0
2 0.240253 0
2 0.27279 0
2 0.308339 0
2 0.347181 0
2 0.389619 0
2 0.435987 0
2 0.486649 0
2 0.542002 0
2 0.602481 0
2 0.66856 0
2 0.740758 0
2 0.819642 0
2 0.90583 0
1.9 1 0
1.8 1 0
1.7 1 0
1.6 1 0
1.5 1 0
1.4 1 0
1.3 1 0
1.2 1 0
1.1 1 0
1 1 0
0.9 1 0
0.8 1 0
0.7 1 0
0.6 1 0
0.5 1 0
0.4 1 0
0.3 1 0
0.2 1 0
0.1 1 0
3.69793e-12 1 0
-0.1 1 0
-0.2 1 0
-0.3 1 0
-0.4 1 0
-0.5 1 0
-0.6 1 0
-0.7 1 0
-0.8 1 0
-0.9 1 0
-1 0.90583 0
-1 0.819642 0
-1 0.740758 0
-1 0.66856 0
-1 0.602481 0
-1 0.542002 0
-1 0.486649 0
-1 0.435987 0
-1 0.389619 0
-1 0.347181 0
-1 0.308339 0
-1 0.27279 0
-1 0.240253 0
-1 0.210474 0
-1 0.183219 0
-1 0.158274 0
-1 0.135442 0
-1 0.114546 0
-1 0.0954213 0
-1 0.0779171 0
-1 0.0618965 0
-1 0.0472336 0
-1 0.0338135 0
-1 0.0215307 0
-1 0.010289 0
0.00921362 0.00379763 0
0.0184561 0.00752451 0
0.0277268 0.0111804 0
0.0370253 0.0147652 0
0.0463511 0.0182786 0
0.0557034 0.0217203 0
0.0650819 0.0250903 0
0.074486 0.0283883 0
0.083915 0.0316141 0
0.0933685 0.0347675 0
0.102846 0.0378484 0
0.112347 0.0408565 0
0.12187 0.0437917 0
0.131416 0.0466538 0
0.140983 0.0494427 0
0.150572 0.0521581 0
0.160181 0.0547999 0
0.16981 0.0573681 0
0.179458 0.0598623 0
0.189125 0.0622825 0
0.198811 0.0646285 0
0.208514 0.0669001 0
0.218234 0.0690974 0
0.227971 0.07122 0
0.237724 0.073268 0
0.247493 0.0752411 0
0.257276 0.0771393 0
0.267073 0.0789625 0
0.276884 0.0807105 0
0.286708 0.0823832 0
0.296545 0.0839806 0
0.306394 0.0855025 0
0.316254 0.0869488 0
0.326125 0.0883196 0
0.336006 0.0896146 0
0.345896 0.0908339 0
0.355796 0.0919773 0
0.365704 0.0930447 0
0.375621 0.0940362 0
0.385544 0.0949517 0
0.395474 0.095791 0
0.40541 0.0965542 0
0.415352 0.0972412 0
0.425299 0.097852 0
0.43525 0.0983865 0
0.445205 0.0988447 0
0.455164 0.0992266 0
0.465125 0.0995321 0
0.475088 0.0997613 0
0.485052 0.0999141 0
0.495017 0.0999904 0
0.504983 0.0999904 0
0.514948 0.0999141 0
0.524912 0.0997613 0
0.534875 0.0995321 0
0.544836 0.0992266 0
0.554795 0.0988447 0
0.56475 0.0983865 0
0.574701 0.097852 0
0.584648 0.0972412 0
0.59459 0.0965542 0
0.604526 0.095791 0
0.614456 0.0949517 0
0.624379 0.0940362 0
0.634296 0.0930447 0
0.644204 0.0919773 0
0.654104 0.0908339 0
0.663994 0.0896146 0
0.673875 0.0883196 0
0.683746 0.0869488 0
0.693606 0.0855025 0
0.703455 0.0839806 0
0.713292 0.0823832 0
0.723116 0.0807105 0
0.732927 0.0789625 0
0.742724 0.0771393 0
0.752508 0.0752411 0
0.762276 0.073268 0
0.772029 0.07122 0
0.781766 0.0690974 0
0.791486 0.0669001 0
0.801189 0.0646285 0
0.810875 0.0622825 0
0.820542 0.0598623 0
0.83019 0.0573681 0
0.839819 0.0547999 0
0.849428 0.0521581 0
0.859017 0.0494427 0
0.868584 0.0466538 0
0.87813 0.0437917 0
0.887653 0.0408565 0
0.897154 0.0378484 0
0.906631 0.0347675 0
0.916085 0.0316141 0
0.925514 0.0283883 0
0.934918 0.0250903 0
0.944297 0.0217203 0
0.953649 0.0182786 0
0.962975 0.0147652 0
0.972273 0.0111804 0
0.981544 0.00752451 0
0.990786 0.00379763 0
-1 0.90583 0.1
-1 0.819642 0.1
-1 0.740758 0.1
-1 0.66856 0.1
-1 0.602481 0.1
-1 0.542002 0.1
-1 0.486649 0.1
-1 0.435987 0.1
-1 0.389619 0.1
-1 0.347181 0.1
-1 0.308339 0.1
-1 0.27279 0.1
-1 0.240253 0.1
-1 0.210474 0.1
-1 0.183219 0.1
-1 0.158274 0.1
-1 0.135442 0.1
-1 0.114546 0.1
-1 0.0954213 0.1
-1 0.0779171 0.1
-1 0.0618965 0.1
-1 0.0472336 0.1
-1 0.0338135 0.1
-1 0.0215307 0.1
-1 0.010289 0.1
-0.99 0 0.1
-0.98 0 0.1
-0.97 0 0.1
-0.96 0 0.1
-0.95 0 0.1
-0.94 0 0.1
-0.93 0 0.1
-0.92 0 0.1
-0.91 0 0.1
-0.9 0 0.1
-0.89 0 0.1
-0.88 0 0.1
-0.87 0 0.1
-0.86 0 0.1
-0.85 0 0.1
-0.84 0 0.1
-0.83 0 0.1
-0.82 0 0.1
-0.81 0 0.1
-0.8 0 0.1
-0.79 0 0.1
-0.78 0 0.1
-0.77 0 0.1
-0.76 0 0.1
-0.75 0 0.1
-0.74 0 0.1
-0.73 0 0.1
-0.72 0 0.1
-0.71 0 0.1
-0.7 0 0.1
-0.69 0 0.1
-0.68 0 0.1
-0.67 0 0.1
-0.66 0 0.1
-0.65 0 0.1
-0.64 0 0.1
-0.63 0 0.1
-0.62 0 0.1
-0.61 0 0.1
-0.6 0 0.1
-0.59 0 0.1
-0.58 0 0.1
-0.57 0 0.1
-0.56 0 0.1
-0.55 0 0.1
-0.54 0 0.1
-0.53 0 0.1
-0.52 0 0.1
-0.51 0 0.1
-0.5 0 0.1
-0.49 0 0.1
-0.48 0 0.1
-0.47 0 0.1
-0.46 0 0.1
-0.45 0 0.1
-0.44 0 0.1
-0.43 0 0.1
-0.42 0 0.1
-0.41 0 0.1
-0.4 0 0.1
-0.39 0 0.1
-0.38 0 0.1
-0.37 0 0.1
-0.36 0 0.1
-0.35 0 0.1
-0.34 0 0.1
-0.33 0 0.1
-0.32 0 0.1
-0.31 0 0.1
-0.3 0 0.1
-0.29 0 0.1
-0.28 0 0.1
-0.27 0 0.1
-0.26 0 0.1
-0.25 0 0.1
-0.24 0 0.1
-0.23 0 0.1
-0.22 0 0.1
-0.21 0 0.1
-0.2 0 0.1
-0.19 0 0.1
-0.18 0 0.1
-0.17 0 0.1
-0.16 0 0.1
-0.15 0 0.1
-0.14 0 0.1
-0.13 0 0.1
-0.12 0 0.1
-0.11 0 0.1
-0.1 0 0.1
-0.09 0 0.1
-0.08 0 0.1
-0.07 0 0.1
-0.06 0 0.1
-0.05 0 0.1
-0.04 0 0.1
-0.03 0 0.1
-0.02 0 0.1
-0.01 0 0.1
0.00921362 0.00379763 0.1
0.0184561 0.00752451 0.1
0.0277268 0.0111804 0.1
0.0370253 0.0147652 0.1
0.0463511 0.0182786 0.1
0.0557034 0.0217203 0.1
0.0650819 0.0250903 0.1
0.074486 0.0283883 0.1
0.083915 0.0316141 0.1
0.0933685 0.0347675 0.1
0.102846 0.0378484 0.1
0.112347 0.0408565 0.1
0.12187 0.0437917 0.1
0.131416 0.0466538 0.1
0.140983 0.0494427 0.1
0.150572 0.0521581 0.1
0.160181 0.0547999 0.1
0.16981 0.0573681 0.1
0.179458 0.0598623 0.1
0.189125 0.0622825 0.1
0.198811 0.0646285 0.1
0.208514 0.0669001 0.1
0.218234 0.0690974 0.1
0.227971 0.07122 0.1
0.237724 0.073268 0.1
0.247493 0.0752411 0.1
0.257276 0.0771393 0.1
0.267073 0.0789625 0.1
0.276884 0.0807105 0.1
0.286708 0.0823832 0.1
0.296545 0.0839806 0.1
0.306394 0.0855025 0.1
0.316254 0.0869488 0.1
0.326125 0.0883196 0.1
0.336006 0.0896146 0.1
0.345896 0.0908339 0.1
0.355796 0.0919773 0.1
0.365704 0.0930447 0.1
0.375621 0.0940362 0.1
0.385544 0.0949517 0.1
0.395474 0.095791 0.1
0.40541 0.0965542 0.1
0.415352 0.0972412 0.1
0.425299 0.097852 0.1
0.43525 0.0983865 0.1
0.445205 0.0988447 0.1
0.455164 0.0992266 0.1
0.465125 0.0995321 0.1
0.475088 0.0997613 0.1
0.485052 0.0999141 0.1
0.495017 0.0999904 0.1
0.504983 0.0999904 0.1
0.514948 0.0999141 0.1
0.524912 0.0997613 0.1
0.534875 0.0995321 0.1
0.544836 0.0992266 0.1
0.554795 0.0988447 0.1
0.56475 0.0983865 0.1
0.574701 0.097852 0.1
0.584648 0.0972412 0.1
0.59459 0.0965542 0.1
0.604526 0.095791 0.1
0.614456 0.0949517 0.1
0.624379 0.0940362 0.1
0.634296 0.0930447 0.1
0.644204 0.0919773 0.1
0.654104 0.0908339 0.1
0.663994 0.0896146 0.1
0.673875 0.0883196 0.1
0.683746 0.0869488 0.1
0.693606 0.0855025 0.1
0.703455 0.0839806 0.1
0.713292 0.0823832 0.1
0.723116 0.0807105 0.1
0.732927 0.0789625 0.1
0.742724 0.0771393 0.1
0.752508 0.0752411 0.1
0.762276 0.073268 0.1
0.772029 0.07122 0.1
0.781766 0.0690974 0.1
0.791486 0.0669001 0.1
0.801189 0.0646285 0.1
0.810875 0.0622825 0.1
0.820542 0.0598623 0.1
0.83019 0.0573681 0.1
0.839819 0.0547999 0.1
0.849428 0.0521581 0.1
0.859017 0.0494427 0.1
0.868584 0.0466538 0.1
0.87813 0.0437917 0.1
0.887653 0.0408565 0.1
0.897154 0.0378484 0.1
0.906631 0.0347675 0.1
0.916085 0.0316141 0.1
0.925514 0.0283883 0.1
0.934918 0.0250903 0.1
0.944297 0.0217203 0.1
0.953649 0.0182786 0.1
0.962975 0.0147652 0.1
0.972273 0.0111804 0.1
0.981544 0.00752451 0.1
0.990786 0.00379763 0.1
1.01 0 0.1
1.02 0 0.1
1.03 0 0.1
1.04 0 0.1
1.05 0 0.1
1.06 0 0.1
1.07 0 0.1
1.08 0 0.1
1.09 0 0.1
1.1 0 0.1
1.11 0 0.1
1.12 0 0.1
1.13 0 0.1
1.14 0 0.1
1.15 0 0.1
1.16 0 0.1
1.17 0 0.1
1.18 0 0.1
1.19 0 0.1
1.2 0 0.1
1.21 0 0.1
1.22 0 0.1
1.23 0 0.1
1.24 0 0.1
1.25 0 0.1
1.26 0 0.1
1.27 0 0.1
1.28 0 0.1
1.29 0 0.1
1.3 0 0.1
1.31 0 0.1
1.32 0 0.1
1.33 0 0.1
1.34 0 0.1
1.35 0 0.1
1.36 0 0.1
1.37 0 0.1
1.38 0 0.1
1.39 0 0.1
1.4 0 0.1
1.41 0 0.1
1.42 0 0.1
1.43 0 0.1
1.44 0 0.1
1.45 0 0.1
1.46 0 0.1
1.47 0 0.1
1.48 0 0.1
1.49 0 0.1
1.5 0 0.1
1.51 0 0.1
1.52 0 0.1
1.53 0 0.1
1.54 0 0.1
1.55 0 0.1
1.56 0 0.1
1.57 0 0.1
1.58 0 0.1
1.59 0 0.1
1.6 0 0.1
1.61 0 0.1
1.62 0 0.1
1.63 0 0.1
1.64 0 0.1
1.65 0 0.1
1.66 0 0.1
1.67 0 0.1
1.68 0 0.1
1.69 0 0.1
1.7 0 0.1
1.71 0 0.1
1.72 0 0.1
1.73 0 0.1
1.74 0 0.1
1.75 0 0.1
1.76 0 0.1
1.77 0 0.1
1.78 0 0.1
1.79 0 0.1
1.8 0 0.1
1.81 0 0.1
1.82 0 0.1
1.83 0 0.1
1.84 0 0.1
1.85 0 0.1
1.86 0 0.1
1.87 0 0.1
1.88 0 0.1
[...]
CELL_DATA 7425
SCALARS rho float
LOOKUP_TABLE default
0.733183
0.810363
0.869867
0.862684
0.80506
0.86549
0.846991
0.886921
0.901543
0.791564
0.867295
0.816454
0.889144
0.862542
0.811173
0.874417
0.802886
0.896788
0.807078
0.798355
0.86364
0.82445
0.783602
0.8641
0.80852
0.783742
0.862109
0.841759
0.809991
0.814934
0.846663
0.774518
0.807345
0.760516
0.733046
0.864104
0.808504
0.887341
0.81729
0.858132
0.787778
0.781511
0.821966
0.751808
0.743495
0.790929
0.835603
0.889614
0.768999
0.767792
0.782981
0.810872
0.818628
0.803654
0.761459
0.741161
0.866442
0.803439
0.791799
0.774077
0.786102
0.814432
0.897193
0.803757
0.809391
0.872838
0.731922
0.812239
0.742142
0.814841
0.811053
0.805334
0.879472
0.823884
0.817943
0.901234
0.810567
0.809814
0.896733
0.789149
0.877986
0.814079
0.888105
0.806409
0.851959
0.806966
0.723621
0.857506
0.733728
0.865235
0.754071
0.786292
0.839791
0.806143
0.87322
0.806864
0.833303
0.806333
0.864947
0.809985
0.86148
0.778803
0.808235
0.858892
0.732375
0.817309
0.860144
0.782004
0.882107
0.804286
0.873377
0.803904
0.806898
0.818423
0.822012
0.805552
0.861795
0.804999
0.754094
0.760431
0.810952
0.81438
0.902234
0.807713
0.870496
0.835964
0.813949
0.831562
0.757488
0.727372
0.882306
0.761399
0.731034
0.853919
0.768438
0.805257
0.817996
0.786702
0.725547
0.786266
0.790749
0.81681
0.891452
0.759379
0.809513
0.801157
0.720199
0.830707
0.802889
0.864315
0.843013
0.754429
0.8101
0.781598
0.758949
0.809112
0.816761
0.863803
0.827765
0.77019
0.806324
0.752097
0.80709
0.863841
0.868179
0.804262
0.900097
0.818798
0.814668
0.806734
0.869627
0.812581
0.833933
0.804182
0.803341
0.791357
0.811276
0.807228
0.749538
0.750015
0.804832
0.827888
0.877479
0.857999
0.75205
0.86645
0.803195
0.828897
0.804947
0.893168
0.906314
0.806354
0.815098
0.758856
0.881685
0.866168
0.79962
0.831467
0.848796
0.814018
0.818262
0.899285
0.737073
0.835996
0.72186
0.735095
0.730978
0.757956
0.828978
0.877725
0.8139
0.809333
0.853351
0.90348
0.872844
0.867903
0.880644
0.739603
0.752441
0.890803
0.735217
0.74776
0.756754
0.871579
0.884658
0.90127
0.862015
0.907483
0.851626
0.761494
0.832578
0.787002
0.814215
0.808375
0.804586
0.782854
0.784561
0.733333
0.756692
0.87253
0.858567
0.866372
0.814085
0.836771
0.818237
0.785049
0.867563
0.806647
0.863158
0.809042
0.894393
0.769117
0.906542
0.865827
0.791339
0.722856
0.803702
0.777199
0.836844
0.882826
0.775429
0.878391
0.8829
0.858928
0.883867
0.812602
0.806233
0.864918
0.871326
0.81362
0.732609
0.865085
0.819505
0.811333
0.863193
0.854272
0.895364
0.862808
0.809051
0.881725
0.853055
0.858886
0.828475
0.863823
0.806459
0.874443
0.805689
0.790365
0.783143
0.724851
0.753586
0.842019
0.901915
0.877944
0.845693
0.803381
0.746551
0.864432
0.734445
0.812673
0.806827
0.747492
0.740347
0.740777
0.881203
0.897045
0.90344
0.887795
0.864518
0.798242
0.817808
0.809949
0.907703
0.864343
0.853548
0.861747
0.807256
0.752547
0.827238
0.85088
0.770404
0.80326
0.804338
0.870914
0.874716
0.725047
0.893094
0.791498
0.844188
0.793044
0.887696
0.894755
0.805912
0.810233
0.756614
0.743466
0.762781
0.822805
0.863406
0.882055
0.891147
0.863125
0.846607
0.805197
0.827709
0.826396
0.796609
0.813455
0.87998
0.808778
0.813312
0.806833
0.804544
0.894671
0.878853
0.876055
0.75737
0.82998
0.76853
0.817279
0.758477
0.840575
0.804371
0.835028
0.792726
0.82071
0.862303
0.874266
0.803592
0.804331
0.818105
0.78262
0.825531
0.900038
0.894713
0.809066
0.783648
0.719548
0.813361
0.897168
0.806003
0.906417
0.80985
0.740557
0.838936
0.893838
0.808448
0.819633
0.896649
0.811564
0.809419
0.877057
0.814062
0.866055
0.799147
0.83687
0.814115
0.723669
0.810954
0.741599
0.851843
0.744238
0.879261
0.879342
0.7552
0.822605
0.799871
0.811775
0.873164
0.736846
0.864801
0.866897
0.808939
0.864813
0.817743
0.86597
0.863653
0.863304
0.791118
0.86421
0.791381
0.817205
0.808765
0.825184
0.804283
0.811357
0.807783
0.865845
0.803558
0.811184
0.735118
0.738709
0.779769
0.895788
0.863458
0.873153
0.85832
0.803296
0.905928
0.811712
0.856493
0.763721
0.806193
0.789533
0.842958
0.875404
0.814199
0.762861
0.789172
0.727807
0.728607
0.807204
0.730875
0.829928
0.793344
0.79965
0.775077
0.806647
0.810873
0.887153
0.882479
0.869758
0.899044
0.786211
0.759362
0.862175
0.858188
0.80472
0.817785
0.807136
0.863845
0.787438
0.869012
0.792358
0.789566
0.80971
0.873476
0.732139
0.803391
0.86462
0.819595
0.890282
0.884063
0.804791
0.822831
0.853147
0.805853
0.865058
0.778065
0.76011
0.803486
0.826648
0.866136
0.782848
0.866379
0.807404
0.875682
0.802926
0.803099
0.816417
0.725929
0.76167
0.740338
0.886512
0.83033
0.862627
0.797749
0.817098
0.883208
0.868031
0.803963
0.793077
0.842345
0.82096
0.805863
0.783742
0.891869
0.865322
0.835084
0.897631
0.865041
0.866298
0.865476
0.799278
0.729525
0.851832
0.813015
0.854862
0.886349
0.825684
0.892931
0.890046
0.76189
0.814062
0.850733
0.907075
0.823429
0.835071
0.812643
0.848914
0.803383
0.907175
0.883183
0.876228
0.728138
0.892626
0.838049
0.879773
0.723932
0.876036
0.829973
0.809428
0.819881
0.826055
0.873762
0.841054
0.863651
0.819893
0.738204
0.805147
0.808772
0.780698
0.860874
0.791551
0.812977
0.886717
0.898141
0.848577
0.808903
0.854228
0.863494
0.826268
0.827015
0.837775
0.805375
0.818046
0.815133
0.810972
0.864508
0.804627
0.863228
0.795632
0.817118
0.807015
0.841888
0.788615
0.905376
0.871829
0.800008
0.891838
0.850657
0.829084
0.863882
0.806511
0.804557
0.859142
0.795107
0.827825
0.863369
0.811563
0.72903
0.901097
0.86415
0.860161
0.873637
0.805529
0.817086
0.863988
0.801356
0.809907
0.806669
0.904973
0.789272
0.808681
0.829742
0.816556
0.809166
0.83803
0.864892
0.813253
0.856091
0.807995
0.865622
0.889486
0.808766
0.853911
0.900914
0.774609
0.871084
0.813948
0.889516
0.893692
0.804349
0.856233
0.803405
0.804238
0.876867
0.804438
0.807045
0.803553
0.783415
0.866483
0.905741
0.804027
0.83261
0.864667
0.818802
0.866851
0.813127
0.864785
0.874653
0.863637
0.752191
0.774867
0.864303
0.87397
0.862453
0.879444
0.863395
0.815462
0.837398
0.80392
0.861713
0.871108
0.867839
0.792843
0.887626
0.862674
0.782374
0.82274
0.799035
0.803346
0.793031
0.877265
0.863738
0.825098
0.849802
0.883915
0.895905
0.877965
0.880583
0.856554
0.818102
0.802803
0.816823
0.796066
0.900046
0.798243
0.857759
0.819744
0.740515
0.80229
0.818335
0.803523
0.86968
0.809945
0.880641
0.873966
0.811297
0.868103
0.810168
0.814346
0.751886
0.866169
0.864033
0.864554
0.821186
0.809038
0.772519
0.815463
0.895209
0.883633
0.808447
0.890402
0.804289
0.815673
0.884243
0.867832
0.819881
0.896812
0.877078
0.745412
0.817149
0.809557
0.898103
0.812193
0.808354
0.739347
0.81417
0.809828
0.782273
0.833457
0.873802
0.807732
0.815283
0.80292
0.871307
0.842237
0.896177
0.906702
0.775145
0.856572
0.811754
0.815801
0.837166
0.822888
0.875114
0.805029
0.786893
0.859652
0.826187
0.866549
0.807203
0.814419
0.868303
0.784229
0.859189
0.771065
0.876253
0.776426
0.865377
0.849986
0.875002
0.809212
0.805211
0.868602
0.832924
0.833839
0.858502
0.869567
0.874457
0.840979
0.813889
0.8149
0.789341
0.827493
0.809532
0.768119
0.855755
0.748357
0.806486
0.849036
0.811267
0.781385
0.811227
0.887591
0.757699
0.804788
0.868611
0.853058
0.870341
0.755277
0.78953
0.818733
0.809031
0.905424
0.806128
0.791508
0.884535
0.878881
0.904407
0.813098
0.806497
0.809463
0.812349
0.720589
0.90647
0.831646
0.744511
0.881145
0.87751
0.883181
0.871843
0.883829
0.864577
0.804722
0.808294
0.797521
0.825468
0.829314
0.826735
0.833533
0.797866
0.883377
0.790735
0.797005
0.816603
0.868093
0.894538
0.809234
0.847122
0.904977
0.847721
0.887301
0.874782
0.880711
0.863691
0.884618
0.901778
0.817908
0.889386
0.807246
0.866782
0.808025
0.866613
0.893513
0.742938
0.892948
0.86363
0.847236
0.83375
0.732456
0.874851
0.833223
0.726637
0.771871
0.769529
0.857349
0.835432
0.817767
0.897
0.80527
0.875314
0.817575
0.728728
0.779153
0.822489
0.812833
0.877814
0.807264
0.816435
0.8964
0.864038
0.803021
0.781349
0.84626
0.805331
0.819856
0.888375
0.802683
0.73174
0.863483
0.819601
0.781095
0.806613
0.815256
0.753191
0.827823
0.878256
0.864238
0.871104
0.828334
0.810007
0.787789
0.745541
0.722482
0.865066
0.816802
0.802925
0.901442
0.819302
0.872764
0.873401
0.805253
0.867547
0.883199
0.863427
0.882188
0.883313
0.891809
0.812648
0.819336
0.777434
0.864058
0.803755
0.818203
0.805026
0.805015
0.868638
0.865674
0.853165
0.867506
0.79009
0.793728
0.811571
0.867418
0.805121
0.811518
0.812646
0.816601
0.881244
0.796603
0.825231
0.752278
0.885712
0.812409
0.777997
0.842155
0.856095
0.79255
0.812666
0.803252
0.861839
0.809134
0.907265
0.807054
0.80686
0.885793
0.809371
0.728533
0.824533
0.827752
0.85077
0.884225
0.860144
0.795765
0.813758
0.837565
0.828825
0.81981
0.863672
0.744097
0.771766
0.905432
0.795005
0.867025
0.810751
0.906874
0.805135
0.838301
0.799641
0.808019
0.808482
0.877707
0.804781
0.739136
0.800979
0.809298
0.842126
0.885298
0.864023
0.732329
0.826059
0.804271
0.870317
0.809465
0.82254
0.807032
0.820412
0.803075
0.858756
0.850261
0.825022
0.871181
0.760136
0.814206
0.862459
0.811413
0.898284
0.81022
0.758225
0.824446
0.809531
0.818208
0.828035
0.859389
0.863639
0.893491
0.804774
0.811446
0.807508
0.803034
0.736013
0.845917
0.793489
0.758616
0.861283
0.802763
0.800464
0.805107
0.800644
0.805566
0.905911
0.825404
0.836731
0.874642
0.851456
0.840588
0.894535
0.836964
0.776409
0.772325
0.743068
0.863881
0.874485
0.837578
0.835924
0.864297
0.867456
0.790609
0.856813
0.869762
0.850321
0.908242
0.847894
0.792584
0.873622
0.81518
0.814553
0.726471
0.902911
0.79659
0.895838
0.819364
0.807242
0.758861
0.895235
0.734218
0.82692
0.808574
0.841597
0.868893
0.80703
0.80898
0.868156
0.884641
0.812234
0.79708
0.731374
0.866565
0.8118
0.830141
0.863959
0.853468
0.813269
0.85556
0.786952
0.734652
0.882707
0.836725
0.879101
0.81096
0.762264
0.80298
0.80544
0.881694
0.795964
0.744748
0.879336
0.781826
0.863603
0.89041
0.863395
0.864116
0.834619
0.809963
0.888411
0.860689
0.791686
0.871526
0.887837
0.725388
0.810339
0.786564
0.867953
0.806831
0.810614
0.809349
0.803998
0.804469
0.883115
0.906905
0.845139
0.814127
0.804265
0.808609
0.804784
0.906922
0.875176
0.804124
0.907414
0.866843
0.804449
0.818795
0.803959
0.836196
0.790927
0.891439
0.886537
0.759924
0.781676
0.814711
0.861999
0.812484
0.729212
0.846599
0.88403
0.832378
0.8109
0.806468
0.803605
0.822675
0.724421
0.813685
0.877505
0.832175
0.868782
0.904225
0.845155
0.792958
0.813109
0.811244
0.806488
0.804105
0.806841
0.785965
0.806014
0.8194
0.885869
0.851688
0.841937
0.731106
0.864804
0.90844
0.823629
0.807941
0.824704
0.906486
0.887729
0.828067
0.853371
0.81424
0.806784
0.866271
0.810561
0.809345
0.860941
0.752843
0.743738
0.806807
0.808004
0.744272
0.749125
0.809157
0.864546
0.90148
0.866649
0.787596
0.845069
0.898384
0.864668
0.858687
0.818006
0.908495
0.801559
0.811772
0.876329
0.906762
0.758569
0.728995
0.908564
0.747106
0.782254
0.725515
0.863742
0.805217
0.737703
0.729815
0.846408
0.895488
0.871603
0.748005
0.884956
0.821069
0.807603
0.804916
0.825058
0.854564
0.806903
0.863677
0.8465
0.73457
0.872126
0.809538
0.873676
0.755476
0.866263
0.824779
0.886641
0.80604
0.753957
0.855599
0.833253
0.814881
0.729374
0.874875
0.805166
0.844007
0.762962
0.874392
0.755757
0.788845
0.806812
0.828368
0.794272
0.786186
0.766262
0.734523
0.758754
0.806327
0.736021
0.86669
0.744467
0.802807
0.773091
0.760768
0.739782
0.795931
0.806274
0.76592
0.867838
0.804453
0.808845
0.805237
0.885143
0.804032
0.864439
0.80721
0.906586
0.77519
0.81542
0.791435
0.867222
0.883301
0.856823
0.799001
0.865323
0.811255
0.877239
0.808949
0.803456
0.867294
0.815413
0.809172
0.813857
0.80312
0.799846
0.770584
0.810523
0.806762
0.867066
0.86231
0.730475
0.81616
0.734706
0.755104
0.760801
0.823622
0.867263
0.880186
0.809984
0.733627
0.872538
0.804078
0.804203
0.872399
0.907913
0.799755
0.907494
0.803952
0.872708
0.804353
0.780956
0.809788
0.771522
0.80315
0.84193
0.803625
0.741255
0.841868
0.835952
0.779003
0.823036
0.731733
0.725566
0.811728
0.770206
0.784761
0.725682
0.790014
0.89125
0.758424
0.800759
0.766551
0.835999
0.757729
0.8055
0.813292
0.875588
0.763292
0.803977
0.888133
0.810635
0.875432
0.750547
0.771175
0.848492
0.904557
0.885772
0.862591
0.896819
0.813374
0.811908
0.806676
0.782686
0.766979
0.739781
0.813396
0.742423
0.77119
0.881056
0.881417
0.81428
0.804594
0.748567
0.877163
0.809551
0.73357
0.737558
0.796716
0.809705
0.84647
0.727554
0.811611
0.732693
0.789294
0.738152
0.820096
0.808138
0.735318
0.733224
0.873327
0.816873
0.807789
0.787064
0.760024
0.75021
0.761388
0.872661
0.803783
0.794325
0.741943
0.802502
0.874621
0.879029
0.905471
0.879884
0.851557
0.803623
0.869122
0.8131
0.864209
0.908175
0.804943
0.897375
0.770849
0.866775
0.867835
0.872118
0.869391
0.871406
0.80668
0.869848
0.870803
0.872524
0.870295
0.809588
0.870811
0.87041
0.75575
0.870738
0.874328
0.871154
0.80797
0.747915
0.870007
0.8711
0.865205
0.804618
0.905547
0.789378
0.867951
0.752283
0.791863
0.816756
0.878887
0.81023
0.806879
0.863594
0.815775
0.81205
0.880787
0.816154
0.863949
0.862608
0.851417
0.755114
0.762891
0.878345
0.871965
0.830963
0.866856
0.862328
0.818502
0.869152
0.816106
0.882226
0.870774
0.8834
0.870937
0.81998
0.878404
0.867148
0.877956
0.872922
0.873508
0.871621
0.804548
0.871177
0.811928
0.812814
0.812194
0.871421
0.903568
0.822652
0.787719
0.892703
0.812717
0.879802
0.812567
0.864865
0.810134
0.880969
0.901568
0.812448
0.738823
0.808186
0.902628
0.821291
0.816595
0.903526
0.893132
0.899654
0.816548
0.868555
0.73138
0.904299
0.861612
0.900473
0.806598
0.815084
0.882109
0.864016
0.806214
0.80888
0.835918
0.745827
0.905031
0.815686
0.815552
0.895443
0.90079
0.898992
0.895046
0.732992
0.819038
0.785783
0.882165
0.862329
0.776487
0.765609
0.880367
0.814702
0.823385
0.744903
0.805281
0.895502
0.74597
0.805263
0.80898
0.821703
0.832136
0.869436
0.816422
0.731783
0.805345
0.798889
0.818025
0.884611
0.833481
0.820508
0.823537
0.847699
0.894575
0.866865
0.861161
0.744578
0.837055
0.750476
0.890028
0.890702
0.763634
0.891495
0.84705
0.764108
0.857053
0.775244
0.871221
0.803799
0.886098
0.904834
0.89231
0.766721
0.89154
0.73838
0.804015
0.808638
0.864931
0.881333
0.778682
0.794296
0.863698
0.894311
0.841328
0.867107
0.894031
0.864941
0.803854
0.723644
0.78966
0.796154
0.775911
0.863894
0.826097
0.831507
0.819145
0.808793
0.901734
0.904518
0.904014
0.801068
0.726957
0.807845
0.739278
0.837968
0.827238
0.804742
0.809503
0.820094
0.814761
0.819861
0.783026
0.894576
0.86677
0.845335
0.803381
0.780157
0.818368
0.806388
0.848878
0.737403
0.809047
0.86046
0.803204
0.763407
0.898436
0.85364
0.84637
0.723766
0.813606
0.806903
0.891711
0.758308
0.898883
0.806661
0.806687
0.80853
0.89744
0.896073
0.873757
0.901282
0.767534
0.809399
0.806111
0.903088
0.888261
0.898138
0.813479
0.83579
0.809259
0.805283
0.731153
0.904242
0.807569
0.828028
0.81357
0.873524
0.848499
0.843782
0.806117
0.867353
0.802641
0.729267
0.803042
0.831395
0.855834
0.81944
0.887414
0.727145
0.866239
0.847074
0.812352
0.792885
0.778634
0.819441
0.840386
0.903549
0.819779
0.903515
0.81011
0.77229
0.809624
0.803267
0.793111
0.863882
0.866291
0.865972
0.875545
0.904035
0.747054
0.815523
0.90417
0.805241
0.81245
0.821973
0.806067
0.893321
0.864422
0.810974
0.809958
0.805075
0.85426
0.862566
0.809468
0.80289
0.808842
0.795126
0.869281
0.730609
0.870389
0.807688
0.723713
0.809962
0.832338
0.824086
0.760263
0.736837
0.807012
0.811493
0.806322
0.866136
0.801294
0.859919
0.809302
0.852049
0.810198
0.809554
0.846438
0.86219
0.824579
0.865935
0.866985
0.869959
0.787513
0.861886
0.872015
0.749223
0.808425
0.809811
0.810401
0.867797
0.864073
0.810387
0.80648
0.804859
0.866506
0.809219
0.807517
0.804495
0.865372
0.808356
0.80535
0.812744
0.861982
0.807277
0.807079
0.827305
0.803466
0.880352
0.747873
0.864541
0.862651
0.811363
0.869965
0.806767
0.86391
0.863643
0.806852
0.866802
0.804098
0.814908
0.807251
0.805484
0.809109
0.812529
0.812739
0.812054
0.869478
0.883454
0.817333
0.863526
0.809299
0.804632
0.804644
0.806241
0.861052
0.806607
0.870111
0.88098
0.813876
0.812276
0.804656
0.861302
0.851555
0.804372
0.760354
0.804714
0.864524
0.875394
0.81333
0.809365
0.823576
0.862004
0.762259
0.829938
0.830332
0.842731
0.869973
0.818007
0.819256
0.815957
0.808161
0.818704
0.815213
0.727537
0.866117
0.809469
0.887123
0.868419
0.870332
0.806165
0.815519
0.88527
0.869472
0.813772
0.754027
0.817077
0.871933
0.831078
0.804209
0.816355
0.873027
0.803292
0.877031
0.832678
0.87357
0.86847
0.810095
0.810234
0.899326
0.87777
0.811351
0.892267
0.822318
0.880118
0.823901
0.816181
0.806197
0.855403
0.817329
0.835755
0.81591
0.813372
0.819316
0.876219
0.852766
0.887386
0.859913
0.831087
0.82069
0.783126
0.764765
0.898284
0.873083
0.812016
0.892544
0.740271
0.862934
0.803574
0.812618
0.879422
0.889384
0.808331
0.893937
0.805313
0.805434
0.815506
0.84464
0.805711
0.818795
0.865651
0.837942
0.832307
0.80538
0.845458
0.807059
0.819024
0.812548
0.804075
0.803934
0.804587
0.83482
0.810752
0.81026
0.863401
0.831417
0.788275
0.746179
0.816155
0.783144
0.804897
0.755226
0.809303
0.813697
0.810278
0.87224
0.832826
0.889026
0.902651
0.816449
0.813091
0.880766
0.87706
0.813081
0.800419
0.757386
0.816451
0.814648
0.799446
0.884958
0.889706
0.807457
0.812021
0.808533
0.765362
0.849292
0.807447
0.822801
0.802823
0.863771
0.816357
0.810402
0.810481
0.818717
0.817139
0.73741
0.806111
0.86415
0.889282
0.811518
0.745339
0.820433
0.887522
0.906557
0.863326
0.888751
0.808884
0.867318
0.815941
0.730575
0.815039
0.796163
0.811507
0.892015
0.779179
0.88259
0.840118
0.829723
0.75539
0.884842
0.805657
0.818527
0.810768
0.802516
0.815724
0.842444
0.815746
0.806807
0.893003
0.876879
0.804245
0.805339
0.885398
0.81624
0.831647
0.861291
0.83227
0.842834
0.812676
0.902241
0.869311
0.853555
0.82313
0.895632
0.730931
0.809775
0.858613
0.846432
0.873273
0.905722
0.823276
0.735948
0.880938
0.805415
0.89093
0.821253
0.863096
0.899694
0.817527
0.879302
0.797819
0.818502
0.894775
0.874207
0.813968
0.886293
0.751398
0.811737
0.866711
0.831256
0.817946
0.865586
0.895151
0.816183
0.774169
0.866283
0.806258
0.863891
0.869282
0.818972
0.854418
0.831334
0.867399
0.869661
0.816783
0.870037
0.799507
0.84471
0.870345
0.820418
0.90029
0.901561
0.871162
0.870097
0.902603
0.869
0.861951
0.870667
0.805549
0.826841
0.856415
0.821887
0.820051
0.805481
0.805417
0.901806
0.870767
0.829136
0.90354
0.870597
0.80555
0.870206
0.90432
0.899416
0.809465
0.88407
0.89388
0.813906
0.905057
0.86147
0.812107
0.872089
0.825464
0.733115
0.884937
0.871104
0.859156
0.871876
0.865571
0.856578
0.876315
0.871064
0.773068
0.90195
0.805542
0.879384
0.823717
0.832045
0.867475
0.837723
0.863851
0.865195
0.896585
0.822554
0.824211
0.852764
0.89942
0.879386
0.823389
0.863537
0.89677
0.87888
0.80484
0.905453
0.899012
0.740506
0.758796
0.819734
0.867807
0.80731
0.860996
0.87837
0.835818
0.776086
0.890603
0.78644
0.848666
0.875206
0.898712
0.854132
0.891296
0.813458
0.904867
0.851261
0.835865
0.895658
0.781903
0.822959
0.875589
0.804033
0.804872
0.880803
0.866643
0.900484
0.89551
0.864692
0.849205
0.854731
0.750607
0.862014
0.888138
0.873512
0.873967
0.842533
0.873154
0.780321
0.804123
0.830357
0.805761
0.80408
0.811896
0.797043
0.895063
0.882566
0.790489
0.881251
0.82798
0.893137
0.882151
0.803838
0.870398
0.904532
0.826648
0.815555
0.849517
0.870372
0.752617
0.870637
0.883293
0.905524
0.759668
0.767859
0.72686
0.82568
0.745206
0.844746
0.78526
0.836643
0.8954
0.789286
0.841255
0.872514
0.794354
0.814429
0.872047
0.809381
0.871839
0.878397
0.87833
0.904043
0.874841
0.807532
0.790972
0.834212
0.864826
0.872859
0.802939
0.820647
0.810054
0.877947
0.89035
0.844453
0.87065
0.737535
0.868728
0.870889
0.871436
0.802503
0.820883
0.813376
0.822694
0.839733
0.734219
0.816829
0.80438
0.880092
0.872288
0.871497
0.898201
0.871387
0.87088
0.874345
0.80856
0.872679
0.865928
0.880808
0.808082
0.884639
0.740878
0.7676
0.901742
0.874201
0.807249
0.866978
0.777073
0.805586
0.805131
0.869265
0.742659
0.873495
0.80458
0.880351
0.851542
0.805671
0.86724
0.872678
0.826181
0.888122
0.799339
0.804938
0.890689
0.891624
0.827899
0.87664
0.829932
0.891503
0.853573
0.76808
0.748432
0.842701
0.807803
0.744566