# vtk DataFile Version 1.0
unstructured grid
ascii
DATASET UNSTRUCTURED_GRID
points 7812 float
-1 0 0
-1 1 0
2 0 0
2 1 0
0 0 0
1 0 0
-1 1 0.1
-1 0 0.1
0 0 0.1
1 0 0.1
2 0 0.1
2 1 0.1
-0.99 0 0
-0.98 0 0
-0.97 0 0
-0.96 0 0
-0.95 0 0
-0.94 0 0
-0.93 0 0
-0.92 0 0
-0.91 0 0
-0.9 0 0
-0.89 0 0
-0.88 0 0
-0.87 0 0
-0.86 0 0
-0.85 0 0
-0.84 0 0
-0.83 0 0
-0.82 0 0
-0.81 0 0
-0.8 0 0
-0.79 0 0
-0.78 0 0
-0.77 0 0
-0.76 0 0
-0.75 0 0
-0.74 0 0
-0.73 0 0
-0.72 0 0
-0.71 0 0
-0.7 0 0
-0.69 0 0
-0.68 0 0
-0.67 0 0
-0.66 0 0
-0.65 0 0
-0.64 0 0
-0.63 0 0
-0.62 0 0
-0.61 0 0
-0.6 0 0
-0.59 0 0
-0.58 0 0
-0.57 0 0
-0.56 0 0
-0.55 0 0
-0.54 0 0
-0.53 0 0
-0.52 0 0
-0.51 0 0
-0.5 0 0
-0.49 0 0
-0.48 0 0
-0.47 0 0
-0.46 0 0
-0.45 0 0
-0.44 0 0
-0.43 0 0
-0.42 0 0
-0.41 0 0
-0.4 0 0
-0.39 0 0
-0.38 0 0
-0.37 0 0
-0.36 0 0
-0.35 0 0
-0.34 0 0
-0.33 0 0
-0.32 0 0
-0.31 0 0
-0.3 0 0
-0.29 0 0
-0.28 0 0
-0.27 0 0
-0.26 0 0
-0.25 0 0
-0.24 0 0
-0.23 0 0
-0.22 0 0
-0.21 0 0
-0.2 0 0
-0.19 0 0
-0.18 0 0
-0.17 0 0
-0.16 0 0
-0.15 0 0
-0.14 0 0
-0.13 0 0
-0.12 0 0
-0.11 0 0
-0.1 0 0
-0.09 0 0
-0.08 0 0
-0.07 0 0
-0.06 0 0
-0.05 0 0
-0.04 0 0
-0.03 0 0
-0.02 0 0
-0.01 0 0
1.01 0 0
1.02 0 0
1.03 0 0
1.04 0 0
1.05 0 0
1.06 0 0
1.07 0 0
1.08 0 0
1.09 0 0
1.1 0 0
1.11 0 0
1.12 0 0
1.13 0 0
1.14 0 0
1.15 0 0
1.16 0 0
1.17 0 0
1.18 0 0
1.19 0 0
1.2 0 0
1.21 0 0
1.22 0 0
1.23 0 0
1.24 0 0
1.25 0 0
1.26 0 0
1.27 0 0
1.28 0 0
1.29 0 0
1.3 0 0
1.31 0 0
1.32 0 0
1.33 0 0
1.34 0 0
1.35 0 0
1.36 0 0
1.37 0 0
1.38 0 0
1.39 0 0
1.4 0 0
1.41 0 0
1.42 0 0
1.43 0 0
1.44 0 0
1.45 0 0
1.46 0 0
1.47 0 0
1.48 0 0
1.49 0 0
1.5 0 0
1.51 0 0
1.52 0 0
1.53 0 0
1.54 0 0
1.55 0 0
1.56 0 0
1.57 0 0
1.58 0 0
1.59 0 0
1.6 0 0
1.61 0 0
1.62 0 0
1.63 0 0
1.64 0 0
1.65 0 0
1.66 0 0
1.67 0 0
1.68 0 0
1.69 0 0
1.7 0 0
1.71 0 0
1.72 0 0
1.73 0 0
1.74 0 0
1.75 0 0
1.76 0 0
1.77 0 0
1.78 0 0
1.79 0 0
1.8 0 0
1.81 0 0
1.82 0 0
1.83 0 0
1.84 0 0
1.85 0 0
1.86 0 0
1.87 0 0
1.88 0 0
1.89 0 0
1.9 0 0
1.91 0 0
1.92 0 0
1.93 0 0
1.94 0 0
1.95 0 0
1.96 0 0
1.97 0 0
1.98 0 0
1.99 0 0
2 0.010289 0
2 0.0215307 0
2 0.0338135 0
2 0.0472336 0
2 0.0618965 0
2 0.0779171 0
2 0.0954213 0
2 0.114546 0
2 0.135442 0
2 0.158274 0
2 0.183219 0
2 0.210474 0
2 0.240253 0
2 0.27279 0
2 0.308339 0
2 0.347181 0
2 0.389619 0
2 0.435987 0
2 0.486649 0
2 0.542002 0
2 0.602481 0
2 0.66856 0
2 0.740758 0
2 0.819642 0
2 0.90583 0
1.9 1 0
1.8 1 0
1.7 1 0
1.6 1 0
1.5 1 0
1.4 1 0
1.3 1 0
1.2 1 0
1.1 1 0
1 1 0
0.9 1 0
0.8 1 0
0.7 1 0
0.6 1 0
0.5 1 0
0.4 1 0
0.3 1 0
0.2 1 0
0.1 1 0
3.69793e-12 1 0
-0.1 1 0
-0.2 1 0
-0.3 1 0
-0.4 1 0
-0.5 1 0
-0.6 1 0
-0.7 1 0
-0.8 1 0
-0.9 1 0
-1 0.90583 0
-1 0.819642 0
-1 0.740758 0
-1 0.66856 0
-1 0.602481 0
-1 0.542002 0
-1 0.486649 0
-1 0.435987 0
-1 0.389619 0
-1 0.347181 0
-1 0.308339 0
-1 0.27279 0
-1 0.240253 0
-1 0.210474 0
-1 0.183219 0
-1 0.158274 0
-1 0.135442 0
-1 0.114546 0
-1 0.0954213 0
-1 0.0779171 0
-1 0.0618965 0
-1 0.0472336 0
-1 0.0338135 0
-1 0.0215307 0
-1 0.010289 0
0.00921362 0.00379763 0
0.0184561 0.00752451 0
0.0277268 0.0111804 0
0.0370253 0.0147652 0
0.0463511 0.0182786 0
0.0557034 0.0217203 0
0.0650819 0.0250903 0
0.074486 0.0283883 0
0.083915 0.0316141 0
0.0933685 0.0347675 0
0.102846 0.0378484 0
0.112347 0.0408565 0
0.12187 0.0437917 0
0.131416 0.0466538 0
0.140983 0.0494427 0
0.150572 0.0521581 0
0.160181 0.0547999 0
0.16981 0.0573681 0
0.179458 0.0598623 0
0.189125 0.0622825 0
0.198811 0.0646285 0
0.208514 0.0669001 0
0.218234 0.0690974 0
0.227971 0.07122 0
0.237724 0.073268 0
0.247493 0.0752411 0
0.257276 0.0771393 0
0.267073 0.0789625 0
0.276884 0.0807105 0
0.286708 0.0823832 0
0.296545 0.0839806 0
0.306394 0.0855025 0
0.316254 0.0869488 0
0.326125 0.0883196 0
0.336006 0.0896146 0
0.345896 0.0908339 0
0.355796 0.0919773 0
0.365704 0.0930447 0
0.375621 0.0940362 0
0.385544 0.0949517 0
0.395474 0.095791 0
0.40541 0.0965542 0
0.415352 0.0972412 0
0.425299 0.097852 0
0.43525 0.0983865 0
0.445205 0.0988447 0
0.455164 0.0992266 0
0.465125 0.0995321 0
0.475088 0.0997613 0
0.485052 0.0999141 0
0.495017 0.0999904 0
0.504983 0.0999904 0
0.514948 0.0999141 0
0.524912 0.0997613 0
0.534875 0.0995321 0
0.544836 0.0992266 0
0.554795 0.0988447 0
0.56475 0.0983865 0
0.574701 0.097852 0
0.584648 0.0972412 0
0.59459 0.0965542 0
0.604526 0.095791 0
0.614456 0.0949517 0
0.624379 0.0940362 0
0.634296 0.0930447 0
0.644204 0.0919773 0
0.654104 0.0908339 0
0.663994 0.0896146 0
0.673875 0.0883196 0
0.683746 0.0869488 0
0.693606 0.0855025 0
0.703455 0.0839806 0
0.713292 0.0823832 0
0.723116 0.0807105 0
0.732927 0.0789625 0
0.742724 0.0771393 0
0.752508 0.0752411 0
0.762276 0.073268 0
0.772029 0.07122 0
0.781766 0.0690974 0
0.791486 0.0669001 0
0.801189 0.0646285 0
0.810875 0.0622825 0
0.820542 0.0598623 0
0.83019 0.0573681 0
0.839819 0.0547999 0
0.849428 0.0521581 0
0.859017 0.0494427 0
0.868584 0.0466538 0
0.87813 0.0437917 0
0.887653 0.0408565 0
0.897154 0.0378484 0
0.906631 0.0347675 0
0.916085 0.0316141 0
0.925514 0.0283883 0
0.934918 0.0250903 0
0.944297 0.0217203 0
0.953649 0.0182786 0
0.962975 0.0147652 0
0.972273 0.0111804 0
0.981544 0.00752451 0
0.990786 0.00379763 0
-1 0.90583 0.1
-1 0.819642 0.1
-1 0.740758 0.1
-1 0.66856 0.1
-1 0.602481 0.1
-1 0.542002 0.1
-1 0.486649 0.1
-1 0.435987 0.1
-1 0.389619 0.1
-1 0.347181 0.1
-1 0.308339 0.1
-1 0.27279 0.1
-1 0.240253 0.1
-1 0.210474 0.1
-1 0.183219 0.1
-1 0.158274 0.1
-1 0.135442 0.1
-1 0.114546 0.1
-1 0.0954213 0.1
-1 0.0779171 0.1
-1 0.0618965 0.1
-1 0.0472336 0.1
-1 0.0338135 0.1
-1 0.0215307 0.1
-1 0.010289 0.1
-0.99 0 0.1
-0.98 0 0.1
-0.97 0 0.1
-0.96 0 0.1
-0.95 0 0.1
-0.94 0 0.1
-0.93 0 0.1
-0.92 0 0.1
-0.91 0 0.1
-0.9 0 0.1
-0.89 0 0.1
-0.88 0 0.1
-0.87 0 0.1
-0.86 0 0.1
-0.85 0 0.1
-0.84 0 0.1
-0.83 0 0.1
-0.82 0 0.1
-0.81 0 0.1
-0.8 0 0.1
-0.79 0 0.1
-0.78 0 0.1
-0.77 0 0.1
-0.76 0 0.1
-0.75 0 0.1
-0.74 0 0.1
-0.73 0 0.1
-0.72 0 0.1
-0.71 0 0.1
-0.7 0 0.1
-0.69 0 0.1
-0.68 0 0.1
-0.67 0 0.1
-0.66 0 0.1
-0.65 0 0.1
-0.64 0 0.1
-0.63 0 0.1
-0.62 0 0.1
-0.61 0 0.1
-0.6 0 0.1
-0.59 0 0.1
-0.58 0 0.1
-0.57 0 0.1
-0.56 0 0.1
-0.55 0 0.1
-0.54 0 0.1
-0.53 0 0.1
-0.52 0 0.1
-0.51 0 0.1
-0.5 0 0.1
-0.49 0 0.1
-0.48 0 0.1
-0.47 0 0.1
-0.46 0 0.1
-0.45 0 0.1
-0.44 0 0.1
-0.43 0 0.1
-0.42 0 0.1
-0.41 0 0.1
-0.4 0 0.1
-0.39 0 0.1
-0.38 0 0.1
-0.37 0 0.1
-0.36 0 0.1
-0.35 0 0.1
-0.34 0 0.1
-0.33 0 0.1
-0.32 0 0.1
-0.31 0 0.1
-0.3 0 0.1
-0.29 0 0.1
-0.28 0 0.1
-0.27 0 0.1
-0.26 0 0.1
-0.25 0 0.1
-0.24 0 0.1
-0.23 0 0.1
-0.22 0 0.1
-0.21 0 0.1
-0.2 0 0.1
-0.19 0 0.1
-0.18 0 0.1
-0.17 0 0.1
-0.16 0 0.1
-0.15 0 0.1
-0.14 0 0.1
-0.13 0 0.1
-0.12 0 0.1
-0.11 0 0.1
-0.1 0 0.1
-0.09 0 0.1
-0.08 0 0.1
-0.07 0 0.1
-0.06 0 0.1
-0.05 0 0.1
-0.04 0 0.1
-0.03 0 0.1
-0.02 0 0.1
-0.01 0 0.1
0.00921362 0.00379763 0.1
0.0184561 0.00752451 0.1
0.0277268 0.0111804 0.1
0.0370253 0.0147652 0.1
0.0463511 0.0182786 0.1
0.0557034 0.0217203 0.1
0.0650819 0.0250903 0.1
0.074486 0.0283883 0.1
0.083915 0.0316141 0.1
0.0933685 0.0347675 0.1
0.102846 0.0378484 0.1
0.112347 0.0408565 0.1
0.12187 0.0437917 0.1
0.131416 0.0466538 0.1
0.140983 0.0494427 0.1
0.150572 0.0521581 0.1
0.160181 0.0547999 0.1
0.16981 0.0573681 0.1
0.179458 0.0598623 0.1
0.189125 0.0622825 0.1
0.198811 0.0646285 0.1
0.208514 0.0669001 0.1
0.218234 0.0690974 0.1
0.227971 0.07122 0.1
0.237724 0.073268 0.1
0.247493 0.0752411 0.1
0.257276 0.0771393 0.1
0.267073 0.0789625 0.1
0.276884 0.0807105 0.1
0.286708 0.0823832 0.1
0.296545 0.0839806 0.1
0.306394 0.0855025 0.1
0.316254 0.0869488 0.1
0.326125 0.0883196 0.1
0.336006 0.0896146 0.1
0.345896 0.0908339 0.1
0.355796 0.0919773 0.1
0.365704 0.0930447 0.1
0.375621 0.0940362 0.1
0.385544 0.0949517 0.1
0.395474 0.095791 0.1
0.40541 0.0965542 0.1
0.415352 0.0972412 0.1
0.425299 0.097852 0.1
0.43525 0.0983865 0.1
0.445205 0.0988447 0.1
0.455164 0.0992266 0.1
0.465125 0.0995321 0.1
0.475088 0.0997613 0.1
0.485052 0.0999141 0.1
0.495017 0.0999904 0.1
0.504983 0.0999904 0.1
0.514948 0.0999141 0.1
0.524912 0.0997613 0.1
0.534875 0.0995321 0.1
0.544836 0.0992266 0.1
0.554795 0.0988447 0.1
0.56475 0.0983865 0.1
0.574701 0.097852 0.1
0.584648 0.0972412 0.1
0.59459 0.0965542 0.1
0.604526 0.095791 0.1
0.614456 0.0949517 0.1
0.624379 0.0940362 0.1
0.634296 0.0930447 0.1
0.644204 0.0919773 0.1
0.654104 0.0908339 0.1
0.663994 0.0896146 0.1
0.673875 0.0883196 0.1
0.683746 0.0869488 0.1
0.693606 0.0855025 0.1
0.703455 0.0839806 0.1
0.713292 0.0823832 0.1
0.723116 0.0807105 0.1
0.732927 0.0789625 0.1
0.742724 0.0771393 0.1
0.752508 0.0752411 0.1
0.762276 0.073268 0.1
0.772029 0.07122 0.1
0.781766 0.0690974 0.1
0.791486 0.0669001 0.1
0.801189 0.0646285 0.1
0.810875 0.0622825 0.1
0.820542 0.0598623 0.1
0.83019 0.0573681 0.1
0.839819 0.0547999 0.1
0.849428 0.0521581 0.1
0.859017 0.0494427 0.1
0.868584 0.0466538 0.1
0.87813 0.0437917 0.1
0.887653 0.0408565 0.1
0.897154 0.0378484 0.1
0.906631 0.0347675 0.1
0.916085 0.0316141 0.1
0.925514 0.0283883 0.1
0.934918 0.0250903 0.1
0.944297 0.0217203 0.1
0.953649 0.0182786 0.1
0.962975 0.0147652 0.1
0.972273 0.0111804 0.1
0.981544 0.00752451 0.1
0.990786 0.00379763 0.1
1.01 0 0.1
1.02 0 0.1
1.03 0 0.1
1.04 0 0.1
1.05 0 0.1
1.06 0 0.1
1.07 0 0.1
1.08 0 0.1
1.09 0 0.1
1.1 0 0.1
1.11 0 0.1
1.12 0 0.1
1.13 0 0.1
1.14 0 0.1
1.15 0 0.1
1.16 0 0.1
1.17 0 0.1
1.18 0 0.1
1.19 0 0.1
1.2 0 0.1
1.21 0 0.1
1.22 0 0.1
1.23 0 0.1
1.24 0 0.1
1.25 0 0.1
1.26 0 0.1
1.27 0 0.1
1.28 0 0.1
1.29 0 0.1
1.3 0 0.1
1.31 0 0.1
1.32 0 0.1
1.33 0 0.1
1.34 0 0.1
1.35 0 0.1
1.36 0 0.1
1.37 0 0.1
1.38 0 0.1
1.39 0 0.1
1.4 0 0.1
1.41 0 0.1
1.42 0 0.1
1.43 0 0.1
1.44 0 0.1
1.45 0 0.1
1.46 0 0.1
1.47 0 0.1
1.48 0 0.1
1.49 0 0.1
1.5 0 0.1
1.51 0 0.1
1.52 0 0.1
1.53 0 0.1
1.54 0 0.1
1.55 0 0.1
1.56 0 0.1
1.57 0 0.1
1.58 0 0.1
1.59 0 0.1
1.6 0 0.1
1.61 0 0.1
1.62 0 0.1
1.63 0 0.1
1.64 0 0.1
1.65 0 0.1
1.66 0 0.1
1.67 0 0.1
1.68 0 0.1
1.69 0 0.1
1.7 0 0.1
1.71 0 0.1
1.72 0 0.1
1.73 0 0.1
1.74 0 0.1
1.75 0 0.1
1.76 0 0.1
1.77 0 0.1
1.78 0 0.1
1.79 0 0.1
1.8 0 0.1
1.81 0 0.1
1.82 0 0.1
1.83 0 0.1
1.84 0 0.1
1.85 0 0.1
1.86 0 0.1
1.87 0 0.1
1.88 0 0.1
[...]
CELL_DATA 7425
SCALARS rho float
LOOKUP_TABLE default
0.604386
0.80576
0.824849
0.831768
0.801969
0.824204
0.824557
0.820832
0.820627
0.744527
0.865309
0.811241
0.820741
0.831624
0.806046
0.822895
0.801018
0.820606
0.804096
0.77019
0.835312
0.822825
0.731148
0.832357
0.804515
0.717191
0.835132
0.851728
0.800974
0.809573
0.823119
0.722769
0.80425
0.665945
0.559628
0.832325
0.804065
0.820832
0.812305
0.831897
0.727795
0.719313
0.794109
0.682038
0.607569
0.752146
0.804123
0.820709
0.691999
0.717529
0.746754
0.805871
0.813121
0.801406
0.701775
0.666088
0.827752
0.801793
0.744433
0.709272
0.725516
0.808412
0.820605
0.801592
0.799634
0.823224
0.601126
0.778058
0.666964
0.809549
0.806113
0.803552
0.884604
0.821919
0.811575
0.820669
0.805783
0.801204
0.820584
0.758436
0.822019
0.808007
0.817333
0.790354
0.83868
0.803347
0.590905
0.833644
0.56924
0.851303
0.684863
0.735913
0.848581
0.803767
0.82305
0.766266
0.837765
0.789828
0.830172
0.804979
0.813782
0.738946
0.803845
0.832159
0.611821
0.812208
0.828683
0.717783
0.821349
0.80163
0.822416
0.786578
0.791258
0.813147
0.793868
0.788265
0.835162
0.803434
0.688239
0.682972
0.805765
0.781851
0.820638
0.792014
0.861363
0.841716
0.808509
0.808118
0.671799
0.544815
0.82088
0.668861
0.552979
0.871726
0.692756
0.802068
0.811901
0.731323
0.598877
0.735198
0.734478
0.811583
0.816921
0.698453
0.805075
0.781447
0.581243
0.794264
0.78331
0.832107
0.820465
0.684688
0.805236
0.745092
0.699331
0.803878
0.811616
0.834518
0.801697
0.676382
0.803667
0.683109
0.803378
0.833908
0.82558
0.802954
0.82062
0.789147
0.807104
0.803073
0.824979
0.807009
0.796836
0.801582
0.801674
0.748856
0.806048
0.766693
0.617726
0.678541
0.802048
0.797515
0.881117
0.83542
0.678457
0.827763
0.801048
0.829666
0.80217
0.820524
0.820562
0.803803
0.80776
0.699119
0.82134
0.824335
0.772999
0.801819
0.864343
0.808683
0.813468
0.818788
0.626336
0.841741
0.58981
0.567881
0.610217
0.63718
0.829986
0.880704
0.80829
0.799507
0.843837
0.820735
0.822365
0.825851
0.821455
0.648287
0.653207
0.820684
0.573234
0.615579
0.694631
0.817672
0.820635
0.82067
0.836908
0.820923
0.868026
0.700683
0.836779
0.728108
0.806024
0.804561
0.802903
0.722376
0.731238
0.630421
0.689379
0.865834
0.879729
0.812363
0.808493
0.803821
0.813362
0.729111
0.826611
0.8028
0.830112
0.79595
0.817266
0.719441
0.820771
0.828475
0.749061
0.551934
0.801801
0.736784
0.844847
0.820784
0.72413
0.821666
0.821252
0.852148
0.816372
0.806745
0.803789
0.830194
0.863111
0.808
0.62986
0.851664
0.814904
0.806373
0.831816
0.840172
0.820263
0.826139
0.794909
0.821398
0.870539
0.852164
0.829177
0.840377
0.803755
0.822903
0.803543
0.760434
0.71547
0.597571
0.68716
0.807331
0.820569
0.822024
0.858154
0.781882
0.655907
0.831485
0.561145
0.778922
0.803241
0.656645
0.666453
0.649265
0.821481
0.820596
0.820731
0.819572
0.83115
0.776196
0.81222
0.803334
0.820929
0.844078
0.871256
0.837278
0.804062
0.682711
0.800191
0.8371
0.70061
0.801119
0.802852
0.866754
0.822861
0.606655
0.82051
0.749691
0.855685
0.740727
0.817146
0.908204
0.802431
0.797452
0.66963
0.646423
0.703833
0.786723
0.830913
0.821289
0.820673
0.88707
0.860962
0.80207
0.80297
0.826735
0.747737
0.80357
0.880954
0.801926
0.807497
0.80312
0.803114
0.820208
0.82183
0.822269
0.652564
0.831823
0.670851
0.809868
0.6555
0.807472
0.80294
0.841736
0.740496
0.817021
0.814259
0.822725
0.801593
0.803022
0.812017
0.715667
0.825191
0.820614
0.820173
0.801312
0.738565
0.575766
0.807176
0.818524
0.803701
0.820844
0.7967
0.663295
0.84788
0.820483
0.804469
0.790063
0.8206
0.806564
0.805026
0.822205
0.808276
0.827349
0.772361
0.816189
0.808654
0.57885
0.805682
0.650269
0.841293
0.647145
0.820905
0.879532
0.627254
0.819611
0.755271
0.805138
0.874848
0.569884
0.827835
0.827171
0.804085
0.830264
0.81273
0.828222
0.83472
0.829324
0.748576
0.831871
0.762001
0.812135
0.795578
0.797931
0.764341
0.806488
0.802522
0.819896
0.76103
0.806379
0.618636
0.627867
0.706127
0.820127
0.84722
0.867011
0.83363
0.801054
0.82058
0.806681
0.823042
0.689784
0.803061
0.748025
0.827077
0.820765
0.808279
0.702575
0.734994
0.559038
0.617977
0.803486
0.623301
0.797683
0.766643
0.773674
0.724079
0.768126
0.773497
0.816485
0.821311
0.82484
0.819063
0.72377
0.639532
0.84236
0.812521
0.785218
0.812593
0.803982
0.840209
0.732446
0.85788
0.765156
0.740646
0.770994
0.817624
0.569403
0.801202
0.844939
0.815203
0.820708
0.816574
0.801751
0.786483
0.838581
0.803624
0.846221
0.72483
0.700087
0.801916
0.799478
0.826897
0.719099
0.850922
0.803116
0.821949
0.801013
0.781444
0.810932
0.608314
0.686748
0.64298
0.819697
0.807452
0.830683
0.754767
0.811344
0.821231
0.825513
0.80145
0.741186
0.802478
0.817008
0.803685
0.720511
0.820624
0.823965
0.841536
0.818324
0.829907
0.864123
0.859401
0.752279
0.617022
0.840629
0.807702
0.845807
0.820888
0.824582
0.820625
0.820713
0.684284
0.80812
0.814223
0.820814
0.796007
0.814141
0.807177
0.86405
0.801125
0.82074
0.821154
0.873776
0.611065
0.820548
0.845241
0.884543
0.554362
0.822299
0.831758
0.797329
0.815442
0.799222
0.869594
0.816153
0.835383
0.815489
0.631834
0.80323
0.804881
0.70798
0.855266
0.759783
0.802852
0.820679
0.820179
0.86319
0.79656
0.836753
0.838488
0.790219
0.826784
0.844925
0.802224
0.813034
0.809529
0.806085
0.820152
0.803155
0.848144
0.770616
0.810346
0.80407
0.81896
0.732067
0.820786
0.823857
0.758047
0.820617
0.820654
0.829946
0.82963
0.803025
0.802408
0.852699
0.768346
0.827924
0.847223
0.805257
0.546481
0.820526
0.832572
0.854515
0.81868
0.803491
0.809663
0.857228
0.78081
0.803242
0.803334
0.8208
0.739644
0.804612
0.831533
0.810961
0.796279
0.799199
0.846422
0.807353
0.847668
0.802468
0.828937
0.819713
0.804907
0.844324
0.820489
0.694341
0.824209
0.807855
0.819785
0.906722
0.802415
0.820614
0.80194
0.802192
0.822167
0.802284
0.804152
0.784065
0.747681
0.812627
0.820808
0.763691
0.796932
0.827741
0.813752
0.827173
0.807943
0.8303
0.876782
0.834733
0.615561
0.71584
0.844122
0.823001
0.847103
0.82098
0.852641
0.809915
0.816017
0.801624
0.841751
0.86325
0.85549
0.74025
0.820839
0.826832
0.743287
0.819704
0.777458
0.801807
0.741131
0.822061
0.834941
0.824225
0.865564
0.820739
0.820598
0.816669
0.820939
0.838941
0.81301
0.800944
0.810982
0.746115
0.819009
0.774802
0.836309
0.815337
0.649115
0.779832
0.81346
0.80143
0.825093
0.804994
0.820974
0.823012
0.806358
0.8246
0.804837
0.808597
0.62309
0.850062
0.829653
0.831145
0.817393
0.803809
0.709527
0.809518
0.908403
0.820138
0.803753
0.819878
0.784428
0.81004
0.819892
0.826335
0.815457
0.820584
0.822214
0.671297
0.783294
0.771103
0.820132
0.80706
0.803731
0.633891
0.808433
0.804991
0.718164
0.838998
0.822909
0.804077
0.80983
0.801308
0.822806
0.817831
0.820604
0.820851
0.716665
0.835177
0.80132
0.810163
0.844719
0.819971
0.822148
0.802355
0.754506
0.828158
0.792786
0.826394
0.791085
0.808537
0.826055
0.739535
0.822197
0.679331
0.873882
0.71269
0.84812
0.806489
0.876639
0.795235
0.803033
0.825813
0.838043
0.839657
0.829586
0.825092
0.820641
0.806178
0.8051
0.809643
0.738779
0.828577
0.800849
0.718099
0.834044
0.676095
0.80265
0.863932
0.806438
0.718313
0.799039
0.820839
0.695706
0.78611
0.824616
0.835054
0.813265
0.665162
0.740719
0.813175
0.804088
0.820822
0.80289
0.743416
0.820592
0.821837
0.82035
0.77996
0.803787
0.805323
0.806472
0.576399
0.820681
0.835369
0.604459
0.82146
0.822116
0.821145
0.823869
0.820925
0.829144
0.801697
0.796253
0.771281
0.824299
0.830945
0.826451
0.837947
0.76986
0.815881
0.73775
0.774171
0.811277
0.826156
0.820504
0.801642
0.861472
0.820799
0.805931
0.816656
0.821945
0.821454
0.84027
0.82104
0.820493
0.812722
0.820697
0.80292
0.825999
0.804578
0.827688
0.820614
0.599883
0.820626
0.83826
0.861255
0.839616
0.623053
0.82261
0.808547
0.539563
0.686281
0.673118
0.837635
0.811836
0.812379
0.8202
0.803495
0.822582
0.812592
0.559758
0.70343
0.819531
0.807402
0.821679
0.80412
0.811243
0.818399
0.825122
0.801409
0.710436
0.859436
0.803458
0.815548
0.820455
0.762952
0.629015
0.836801
0.815259
0.741212
0.803027
0.809275
0.623614
0.829059
0.820932
0.832069
0.824216
0.828744
0.805466
0.73357
0.653786
0.578121
0.829896
0.811359
0.783637
0.820626
0.785337
0.823491
0.87484
0.767372
0.826619
0.820062
0.830266
0.884986
0.820918
0.818992
0.804123
0.814583
0.704632
0.832508
0.801811
0.813076
0.803132
0.78597
0.856819
0.826899
0.843003
0.826537
0.757357
0.759367
0.806016
0.823356
0.803454
0.805975
0.803505
0.781486
0.821015
0.766671
0.823653
0.671651
0.820624
0.803809
0.733797
0.826279
0.82252
0.74588
0.801866
0.762914
0.885123
0.801361
0.82085
0.768372
0.802791
0.820906
0.804607
0.605364
0.822661
0.802685
0.80703
0.821049
0.829838
0.76269
0.808086
0.844517
0.829518
0.815567
0.839538
0.66972
0.707905
0.820823
0.749923
0.827149
0.776092
0.820823
0.803275
0.814298
0.757498
0.795415
0.770335
0.816382
0.803462
0.64168
0.78055
0.800024
0.852193
0.820961
0.832915
0.558962
0.826056
0.786955
0.861168
0.801631
0.819569
0.802955
0.790453
0.801079
0.82983
0.838422
0.823455
0.822676
0.700903
0.779362
0.820515
0.806102
0.817635
0.804553
0.694332
0.797101
0.805216
0.813183
0.829051
0.853367
0.83585
0.820611
0.801899
0.806369
0.803912
0.782205
0.625047
0.805802
0.741083
0.672661
0.82732
0.801019
0.777646
0.802278
0.759536
0.786941
0.819469
0.824009
0.807826
0.821854
0.82163
0.82379
0.820603
0.812441
0.719019
0.70745
0.650996
0.833483
0.871464
0.818653
0.842984
0.85064
0.865551
0.746084
0.821289
0.865037
0.815016
0.820942
0.820312
0.740938
0.818474
0.809454
0.808846
0.549214
0.820707
0.765247
0.820462
0.814525
0.804126
0.698127
0.820459
0.62381
0.826658
0.804371
0.825296
0.857762
0.804066
0.796587
0.826025
0.818338
0.807219
0.766153
0.554443
0.825894
0.803874
0.831782
0.830236
0.807866
0.807809
0.837645
0.729695
0.603477
0.887498
0.805365
0.82182
0.80501
0.704026
0.80098
0.802388
0.821397
0.74707
0.656556
0.884469
0.722257
0.840188
0.819049
0.836791
0.845864
0.797773
0.805442
0.820426
0.854924
0.744266
0.872275
0.820788
0.579103
0.805121
0.748279
0.855613
0.766897
0.804889
0.804587
0.801789
0.802729
0.815746
0.82089
0.858279
0.808521
0.803211
0.801848
0.802203
0.820269
0.822689
0.803032
0.820526
0.852111
0.803387
0.788144
0.802806
0.842124
0.738285
0.82064
0.820532
0.685808
0.721263
0.806451
0.827558
0.806515
0.549737
0.859687
0.819815
0.835589
0.806043
0.80381
0.802337
0.791284
0.600088
0.805174
0.822111
0.837178
0.825721
0.820772
0.803812
0.754661
0.802353
0.772967
0.789271
0.801677
0.792451
0.751367
0.802926
0.81372
0.817292
0.835256
0.852005
0.57633
0.845221
0.820922
0.821537
0.804041
0.82341
0.819127
0.89561
0.80402
0.870961
0.806527
0.766375
0.863968
0.803009
0.800946
0.828543
0.670474
0.655553
0.803978
0.804597
0.670064
0.664242
0.8006
0.828502
0.820678
0.827466
0.740684
0.821007
0.82032
0.830626
0.821745
0.812701
0.820945
0.760085
0.806394
0.821647
0.819384
0.684967
0.58357
0.820984
0.65976
0.728462
0.573407
0.844665
0.802365
0.5717
0.614251
0.830541
0.908637
0.823649
0.662533
0.820749
0.791092
0.803807
0.788076
0.823365
0.815197
0.789985
0.825853
0.806452
0.604929
0.823388
0.772269
0.82172
0.692598
0.827098
0.794466
0.820653
0.802558
0.67267
0.845962
0.81034
0.809247
0.569174
0.822631
0.802476
0.855425
0.706649
0.822838
0.62963
0.733243
0.803433
0.801028
0.744398
0.725682
0.710115
0.572746
0.649994
0.802601
0.568008
0.827478
0.631854
0.762512
0.688334
0.64997
0.580083
0.751239
0.80345
0.708195
0.826342
0.802478
0.804736
0.766408
0.890848
0.801506
0.829081
0.80419
0.820759
0.713552
0.809917
0.742923
0.826874
0.887352
0.836919
0.754166
0.827565
0.775736
0.881202
0.804884
0.76386
0.853509
0.781888
0.800627
0.808056
0.763495
0.754438
0.694188
0.805692
0.80343
0.823154
0.837263
0.623097
0.810636
0.567992
0.677773
0.64771
0.821077
0.826072
0.815695
0.80464
0.627566
0.87398
0.803067
0.803265
0.865735
0.820491
0.775552
0.820217
0.802871
0.823493
0.803415
0.724123
0.80529
0.679499
0.801209
0.808904
0.802428
0.649132
0.815616
0.813982
0.727335
0.820161
0.572432
0.593493
0.804873
0.704554
0.73238
0.587586
0.733508
0.82062
0.693564
0.775856
0.711827
0.816176
0.679761
0.767272
0.808019
0.816914
0.66962
0.802693
0.896143
0.797939
0.822629
0.614436
0.702699
0.806509
0.820785
0.820657
0.854002
0.820039
0.805107
0.804477
0.803918
0.722374
0.713827
0.629306
0.777394
0.586715
0.720511
0.816598
0.820768
0.808628
0.801772
0.665166
0.815581
0.804409
0.577753
0.576205
0.752305
0.804209
0.811101
0.569508
0.799509
0.587674
0.734607
0.62222
0.814976
0.804246
0.612643
0.621719
0.869829
0.811742
0.770513
0.727919
0.647135
0.665129
0.699007
0.821737
0.764904
0.76554
0.636838
0.760105
0.81566
0.821518
0.820377
0.821665
0.869016
0.761454
0.82423
0.804227
0.85379
0.820922
0.803293
0.820475
0.718264
0.818552
0.817735
0.820936
0.817055
0.82155
0.803774
0.823339
0.816429
0.815934
0.822755
0.800866
0.822163
0.824326
0.677041
0.824028
0.870393
0.823644
0.794321
0.656319
0.860992
0.824216
0.829503
0.801914
0.819212
0.757711
0.855268
0.626752
0.739346
0.810632
0.821786
0.804546
0.80393
0.836022
0.807155
0.806991
0.821524
0.785092
0.842059
0.845078
0.81966
0.67398
0.654039
0.821845
0.822257
0.794105
0.852496
0.849938
0.813541
0.819321
0.782859
0.820517
0.823309
0.820608
0.824193
0.815621
0.821902
0.853821
0.822011
0.82035
0.823215
0.823299
0.786981
0.819894
0.806509
0.806963
0.806851
0.82403
0.819336
0.793005
0.753849
0.819814
0.80704
0.815467
0.807161
0.859808
0.805402
0.820356
0.820363
0.807171
0.662753
0.804618
0.82047
0.817499
0.811169
0.820565
0.820427
0.820559
0.810953
0.866203
0.555027
0.820639
0.844734
0.820255
0.803881
0.80974
0.821354
0.843101
0.802803
0.803972
0.816028
0.672131
0.8207
0.810286
0.809941
0.819867
0.820495
0.82052
0.820594
0.556608
0.813036
0.729755
0.887067
0.825762
0.731595
0.695671
0.821588
0.805147
0.820753
0.656791
0.803008
0.820595
0.658046
0.802244
0.805101
0.818111
0.809871
0.85925
0.810599
0.620335
0.802721
0.77575
0.812017
0.890246
0.807452
0.816228
0.821052
0.834945
0.820601
0.8273
0.839799
0.646306
0.807206
0.665743
0.820655
0.820604
0.706173
0.820543
0.809907
0.708252
0.819766
0.713396
0.863384
0.785467
0.820934
0.820742
0.820494
0.681091
0.820657
0.64331
0.802034
0.793819
0.827075
0.82147
0.723417
0.76734
0.834174
0.819981
0.824432
0.826852
0.820603
0.829892
0.801665
0.569854
0.754816
0.764578
0.728995
0.841178
0.825044
0.835752
0.782494
0.803333
0.820682
0.820777
0.820749
0.777756
0.580324
0.803712
0.57367
0.81228
0.826917
0.80204
0.804382
0.815733
0.806873
0.787738
0.735704
0.820588
0.861216
0.817846
0.801422
0.735564
0.811595
0.790472
0.836435
0.630701
0.79712
0.811721
0.801165
0.696769
0.820307
0.815727
0.860157
0.584542
0.808243
0.803752
0.819893
0.639396
0.820566
0.803808
0.803954
0.803573
0.820582
0.820592
0.82188
0.820663
0.711977
0.805303
0.803673
0.820724
0.897073
0.820573
0.779161
0.842992
0.799961
0.803528
0.614904
0.820694
0.803849
0.828263
0.80306
0.868308
0.819099
0.856023
0.802737
0.825686
0.780449
0.577488
0.760057
0.799261
0.809659
0.814633
0.820547
0.574108
0.86364
0.860974
0.774859
0.759426
0.73833
0.814841
0.850629
0.820688
0.815436
0.820718
0.804949
0.725404
0.804119
0.801304
0.76448
0.828823
0.827808
0.86367
0.821558
0.820761
0.664528
0.809638
0.820731
0.802653
0.778707
0.818765
0.803476
0.820035
0.83129
0.79958
0.805417
0.80279
0.819809
0.842452
0.804743
0.801205
0.804107
0.766344
0.825088
0.584508
0.870031
0.804414
0.565432
0.805283
0.807187
0.821817
0.652258
0.620423
0.803576
0.806135
0.80304
0.862626
0.781263
0.819662
0.803545
0.869423
0.805422
0.805138
0.829439
0.821024
0.8226
0.826181
0.825366
0.869151
0.735833
0.854386
0.822775
0.663905
0.804427
0.803829
0.804299
0.826156
0.828126
0.805728
0.803189
0.802225
0.827515
0.804954
0.804368
0.801943
0.829026
0.804646
0.803169
0.806826
0.83202
0.803144
0.803543
0.827066
0.801593
0.821585
0.661685
0.830827
0.852326
0.80647
0.824854
0.803999
0.832968
0.84104
0.803938
0.826416
0.802214
0.80936
0.790676
0.803255
0.804942
0.807101
0.807538
0.806778
0.823866
0.821178
0.812158
0.835404
0.804609
0.803
0.802099
0.78986
0.837419
0.80395
0.824608
0.821455
0.808568
0.807064
0.803313
0.842156
0.868273
0.801856
0.687614
0.802651
0.8454
0.822411
0.807689
0.80515
0.821151
0.847446
0.652368
0.831396
0.799371
0.853598
0.824069
0.813073
0.814743
0.810524
0.804635
0.814002
0.809832
0.604916
0.850901
0.795805
0.820866
0.85717
0.824599
0.768239
0.810183
0.821007
0.821007
0.80358
0.671784
0.811775
0.86534
0.806547
0.802309
0.781271
0.872837
0.801868
0.878555
0.810383
0.82283
0.825721
0.804893
0.805643
0.820119
0.82189
0.806018
0.820371
0.819051
0.882753
0.821942
0.810055
0.802649
0.83204
0.811252
0.841458
0.810588
0.807711
0.814689
0.822415
0.833222
0.820392
0.826945
0.834056
0.816635
0.715398
0.698891
0.820468
0.823338
0.806448
0.820198
0.604278
0.856967
0.801701
0.806961
0.820181
0.820345
0.80477
0.819679
0.802568
0.802919
0.810137
0.818713
0.764099
0.788921
0.827695
0.845413
0.836319
0.802487
0.810018
0.803903
0.813675
0.807414
0.801765
0.801834
0.802556
0.814381
0.798978
0.805229
0.839169
0.833872
0.73992
0.673038
0.80845
0.71654
0.801962
0.628963
0.805286
0.808464
0.805369
0.823675
0.836304
0.820735
0.820551
0.81114
0.804689
0.882969
0.822203
0.807431
0.775213
0.632681
0.811013
0.809088
0.772716
0.82095
0.820726
0.792979
0.801733
0.804824
0.673772
0.833434
0.804089
0.787433
0.781896
0.855049
0.810726
0.805324
0.805227
0.812549
0.812038
0.570137
0.803324
0.842922
0.820748
0.799746
0.60999
0.816366
0.820778
0.820871
0.837533
0.82071
0.805034
0.826833
0.807513
0.591049
0.809759
0.746013
0.799516
0.820639
0.726432
0.821283
0.848826
0.832776
0.674313
0.891935
0.787541
0.783286
0.797892
0.780793
0.810437
0.852845
0.810317
0.803928
0.820617
0.815345
0.784877
0.787901
0.820477
0.810794
0.836002
0.825864
0.836927
0.806429
0.801897
0.8207
0.859108
0.820921
0.820399
0.820584
0.6201
0.796824
0.828104
0.832205
0.867977
0.820494
0.8207
0.57548
0.816388
0.802636
0.819617
0.817413
0.850278
0.82055
0.811824
0.882816
0.769059
0.813828
0.820429
0.815337
0.806029
0.82085
0.665771
0.801506
0.852375
0.83472
0.812894
0.819009
0.820574
0.810302
0.711569
0.818069
0.802667
0.842047
0.82378
0.814243
0.834639
0.79792
0.817264
0.82319
0.811426
0.824582
0.753356
0.857381
0.8243
0.816284
0.820589
0.820332
0.821335
0.822605
0.820439
0.816658
0.844199
0.823976
0.802481
0.826594
0.830765
0.818466
0.815837
0.802553
0.803006
0.820671
0.824382
0.830722
0.82054
0.821987
0.802307
0.815968
0.820622
0.820296
0.803119
0.821123
0.820459
0.804152
0.820688
0.839169
0.800785
0.815591
0.824023
0.581966
0.820755
0.823602
0.820413
0.820719
0.826782
0.832501
0.82155
0.824223
0.709366
0.820692
0.802985
0.821731
0.821295
0.836291
0.826533
0.818811
0.833534
0.829519
0.818142
0.819844
0.822057
0.809714
0.82063
0.821719
0.820917
0.83605
0.819976
0.821775
0.803251
0.820781
0.820505
0.588879
0.648441
0.815063
0.826436
0.803731
0.826948
0.82194
0.843337
0.715598
0.820652
0.738281
0.821441
0.816584
0.820591
0.832802
0.82061
0.807646
0.820733
0.833253
0.842071
0.820068
0.726182
0.820418
0.821887
0.801913
0.803406
0.821528
0.85824
0.820213
0.820597
0.852345
0.8321
0.845666
0.612877
0.833163
0.820691
0.817024
0.823065
0.85344
0.823351
0.725097
0.801773
0.832967
0.802334
0.801844
0.806902
0.753457
0.820592
0.820738
0.735255
0.820669
0.828616
0.820401
0.820417
0.801537
0.823753
0.820775
0.825953
0.809454
0.813108
0.820596
0.682055
0.824416
0.820532
0.820821
0.656453
0.71379
0.61273
0.824622
0.623064
0.856845
0.733679
0.844252
0.819799
0.736518
0.824506
0.821566
0.748377
0.809076
0.823828
0.794973
0.822119
0.821899
0.821828
0.820746
0.814328
0.80427
0.743282
0.838718
0.825064
0.822258
0.801241
0.816754
0.804776
0.822006
0.82037
0.857275
0.823207
0.65084
0.818954
0.824165
0.82408
0.780157
0.817033
0.807474
0.819768
0.84822
0.611941
0.81152
0.801719
0.821495
0.823165
0.823181
0.819891
0.824019
0.819594
0.820466
0.803632
0.820088
0.849156
0.82025
0.792965
0.818206
0.63518
0.716112
0.82068
0.822698
0.804131
0.827182
0.735039
0.803453
0.803416
0.825378
0.667991
0.823213
0.801816
0.821598
0.868285
0.787271
0.82687
0.823519
0.825243
0.820759
0.772596
0.803165
0.820489
0.902992
0.828482
0.822317
0.83335
0.816849
0.871985
0.715481
0.675953
0.854657
0.803173
0.670754
0.852551
0.787786
0.833261
0.722767