# vtk DataFile Version 1.0
unstructured grid
ascii
DATASET UNSTRUCTURED_GRID
points 7812 float
-1 0 0
-1 1 0
2 0 0
2 1 0
0 0 0
1 0 0
-1 1 0.1
-1 0 0.1
0 0 0.1
1 0 0.1
2 0 0.1
2 1 0.1
-0.99 0 0
-0.98 0 0
-0.97 0 0
-0.96 0 0
-0.95 0 0
-0.94 0 0
-0.93 0 0
-0.92 0 0
-0.91 0 0
-0.9 0 0
-0.89 0 0
-0.88 0 0
-0.87 0 0
-0.86 0 0
-0.85 0 0
-0.84 0 0
-0.83 0 0
-0.82 0 0
-0.81 0 0
-0.8 0 0
-0.79 0 0
-0.78 0 0
-0.77 0 0
-0.76 0 0
-0.75 0 0
-0.74 0 0
-0.73 0 0
-0.72 0 0
-0.71 0 0
-0.7 0 0
-0.69 0 0
-0.68 0 0
-0.67 0 0
-0.66 0 0
-0.65 0 0
-0.64 0 0
-0.63 0 0
-0.62 0 0
-0.61 0 0
-0.6 0 0
-0.59 0 0
-0.58 0 0
-0.57 0 0
-0.56 0 0
-0.55 0 0
-0.54 0 0
-0.53 0 0
-0.52 0 0
-0.51 0 0
-0.5 0 0
-0.49 0 0
-0.48 0 0
-0.47 0 0
-0.46 0 0
-0.45 0 0
-0.44 0 0
-0.43 0 0
-0.42 0 0
-0.41 0 0
-0.4 0 0
-0.39 0 0
-0.38 0 0
-0.37 0 0
-0.36 0 0
-0.35 0 0
-0.34 0 0
-0.33 0 0
-0.32 0 0
-0.31 0 0
-0.3 0 0
-0.29 0 0
-0.28 0 0
-0.27 0 0
-0.26 0 0
-0.25 0 0
-0.24 0 0
-0.23 0 0
-0.22 0 0
-0.21 0 0
-0.2 0 0
-0.19 0 0
-0.18 0 0
-0.17 0 0
-0.16 0 0
-0.15 0 0
-0.14 0 0
-0.13 0 0
-0.12 0 0
-0.11 0 0
-0.1 0 0
-0.09 0 0
-0.08 0 0
-0.07 0 0
-0.06 0 0
-0.05 0 0
-0.04 0 0
-0.03 0 0
-0.02 0 0
-0.01 0 0
1.01 0 0
1.02 0 0
1.03 0 0
1.04 0 0
1.05 0 0
1.06 0 0
1.07 0 0
1.08 0 0
1.09 0 0
1.1 0 0
1.11 0 0
1.12 0 0
1.13 0 0
1.14 0 0
1.15 0 0
1.16 0 0
1.17 0 0
1.18 0 0
1.19 0 0
1.2 0 0
1.21 0 0
1.22 0 0
1.23 0 0
1.24 0 0
1.25 0 0
1.26 0 0
1.27 0 0
1.28 0 0
1.29 0 0
1.3 0 0
1.31 0 0
1.32 0 0
1.33 0 0
1.34 0 0
1.35 0 0
1.36 0 0
1.37 0 0
1.38 0 0
1.39 0 0
1.4 0 0
1.41 0 0
1.42 0 0
1.43 0 0
1.44 0 0
1.45 0 0
1.46 0 0
1.47 0 0
1.48 0 0
1.49 0 0
1.5 0 0
1.51 0 0
1.52 0 0
1.53 0 0
1.54 0 0
1.55 0 0
1.56 0 0
1.57 0 0
1.58 0 0
1.59 0 0
1.6 0 0
1.61 0 0
1.62 0 0
1.63 0 0
1.64 0 0
1.65 0 0
1.66 0 0
1.67 0 0
1.68 0 0
1.69 0 0
1.7 0 0
1.71 0 0
1.72 0 0
1.73 0 0
1.74 0 0
1.75 0 0
1.76 0 0
1.77 0 0
1.78 0 0
1.79 0 0
1.8 0 0
1.81 0 0
1.82 0 0
1.83 0 0
1.84 0 0
1.85 0 0
1.86 0 0
1.87 0 0
1.88 0 0
1.89 0 0
1.9 0 0
1.91 0 0
1.92 0 0
1.93 0 0
1.94 0 0
1.95 0 0
1.96 0 0
1.97 0 0
1.98 0 0
1.99 0 0
2 0.010289 0
2 0.0215307 0
2 0.0338135 0
2 0.0472336 0
2 0.0618965 0
2 0.0779171 0
2 0.0954213 0
2 0.114546 0
2 0.135442 0
2 0.158274 0
2 0.183219 0
2 0.210474 0
2 0.240253 0
2 0.27279 0
2 0.308339 0
2 0.347181 0
2 0.389619 0
2 0.435987 0
2 0.486649 0
2 0.542002 0
2 0.602481 0
2 0.66856 0
2 0.740758 0
2 0.819642 0
2 0.90583 0
1.9 1 0
1.8 1 0
1.7 1 0
1.6 1 0
1.5 1 0
1.4 1 0
1.3 1 0
1.2 1 0
1.1 1 0
1 1 0
0.9 1 0
0.8 1 0
0.7 1 0
0.6 1 0
0.5 1 0
0.4 1 0
0.3 1 0
0.2 1 0
0.1 1 0
3.69793e-12 1 0
-0.1 1 0
-0.2 1 0
-0.3 1 0
-0.4 1 0
-0.5 1 0
-0.6 1 0
-0.7 1 0
-0.8 1 0
-0.9 1 0
-1 0.90583 0
-1 0.819642 0
-1 0.740758 0
-1 0.66856 0
-1 0.602481 0
-1 0.542002 0
-1 0.486649 0
-1 0.435987 0
-1 0.389619 0
-1 0.347181 0
-1 0.308339 0
-1 0.27279 0
-1 0.240253 0
-1 0.210474 0
-1 0.183219 0
-1 0.158274 0
-1 0.135442 0
-1 0.114546 0
-1 0.0954213 0
-1 0.0779171 0
-1 0.0618965 0
-1 0.0472336 0
-1 0.0338135 0
-1 0.0215307 0
-1 0.010289 0
0.00921362 0.00379763 0
0.0184561 0.00752451 0
0.0277268 0.0111804 0
0.0370253 0.0147652 0
0.0463511 0.0182786 0
0.0557034 0.0217203 0
0.0650819 0.0250903 0
0.074486 0.0283883 0
0.083915 0.0316141 0
0.0933685 0.0347675 0
0.102846 0.0378484 0
0.112347 0.0408565 0
0.12187 0.0437917 0
0.131416 0.0466538 0
0.140983 0.0494427 0
0.150572 0.0521581 0
0.160181 0.0547999 0
0.16981 0.0573681 0
0.179458 0.0598623 0
0.189125 0.0622825 0
0.198811 0.0646285 0
0.208514 0.0669001 0
0.218234 0.0690974 0
0.227971 0.07122 0
0.237724 0.073268 0
0.247493 0.0752411 0
0.257276 0.0771393 0
0.267073 0.0789625 0
0.276884 0.0807105 0
0.286708 0.0823832 0
0.296545 0.0839806 0
0.306394 0.0855025 0
0.316254 0.0869488 0
0.326125 0.0883196 0
0.336006 0.0896146 0
0.345896 0.0908339 0
0.355796 0.0919773 0
0.365704 0.0930447 0
0.375621 0.0940362 0
0.385544 0.0949517 0
0.395474 0.095791 0
0.40541 0.0965542 0
0.415352 0.0972412 0
0.425299 0.097852 0
0.43525 0.0983865 0
0.445205 0.0988447 0
0.455164 0.0992266 0
0.465125 0.0995321 0
0.475088 0.0997613 0
0.485052 0.0999141 0
0.495017 0.0999904 0
0.504983 0.0999904 0
0.514948 0.0999141 0
0.524912 0.0997613 0
0.534875 0.0995321 0
0.544836 0.0992266 0
0.554795 0.0988447 0
0.56475 0.0983865 0
0.574701 0.097852 0
0.584648 0.0972412 0
0.59459 0.0965542 0
0.604526 0.095791 0
0.614456 0.0949517 0
0.624379 0.0940362 0
0.634296 0.0930447 0
0.644204 0.0919773 0
0.654104 0.0908339 0
0.663994 0.0896146 0
0.673875 0.0883196 0
0.683746 0.0869488 0
0.693606 0.0855025 0
0.703455 0.0839806 0
0.713292 0.0823832 0
0.723116 0.0807105 0
0.732927 0.0789625 0
0.742724 0.0771393 0
0.752508 0.0752411 0
0.762276 0.073268 0
0.772029 0.07122 0
0.781766 0.0690974 0
0.791486 0.0669001 0
0.801189 0.0646285 0
0.810875 0.0622825 0
0.820542 0.0598623 0
0.83019 0.0573681 0
0.839819 0.0547999 0
0.849428 0.0521581 0
0.859017 0.0494427 0
0.868584 0.0466538 0
0.87813 0.0437917 0
0.887653 0.0408565 0
0.897154 0.0378484 0
0.906631 0.0347675 0
0.916085 0.0316141 0
0.925514 0.0283883 0
0.934918 0.0250903 0
0.944297 0.0217203 0
0.953649 0.0182786 0
0.962975 0.0147652 0
0.972273 0.0111804 0
0.981544 0.00752451 0
0.990786 0.00379763 0
-1 0.90583 0.1
-1 0.819642 0.1
-1 0.740758 0.1
-1 0.66856 0.1
-1 0.602481 0.1
-1 0.542002 0.1
-1 0.486649 0.1
-1 0.435987 0.1
-1 0.389619 0.1
-1 0.347181 0.1
-1 0.308339 0.1
-1 0.27279 0.1
-1 0.240253 0.1
-1 0.210474 0.1
-1 0.183219 0.1
-1 0.158274 0.1
-1 0.135442 0.1
-1 0.114546 0.1
-1 0.0954213 0.1
-1 0.0779171 0.1
-1 0.0618965 0.1
-1 0.0472336 0.1
-1 0.0338135 0.1
-1 0.0215307 0.1
-1 0.010289 0.1
-0.99 0 0.1
-0.98 0 0.1
-0.97 0 0.1
-0.96 0 0.1
-0.95 0 0.1
-0.94 0 0.1
-0.93 0 0.1
-0.92 0 0.1
-0.91 0 0.1
-0.9 0 0.1
-0.89 0 0.1
-0.88 0 0.1
-0.87 0 0.1
-0.86 0 0.1
-0.85 0 0.1
-0.84 0 0.1
-0.83 0 0.1
-0.82 0 0.1
-0.81 0 0.1
-0.8 0 0.1
-0.79 0 0.1
-0.78 0 0.1
-0.77 0 0.1
-0.76 0 0.1
-0.75 0 0.1
-0.74 0 0.1
-0.73 0 0.1
-0.72 0 0.1
-0.71 0 0.1
-0.7 0 0.1
-0.69 0 0.1
-0.68 0 0.1
-0.67 0 0.1
-0.66 0 0.1
-0.65 0 0.1
-0.64 0 0.1
-0.63 0 0.1
-0.62 0 0.1
-0.61 0 0.1
-0.6 0 0.1
-0.59 0 0.1
-0.58 0 0.1
-0.57 0 0.1
-0.56 0 0.1
-0.55 0 0.1
-0.54 0 0.1
-0.53 0 0.1
-0.52 0 0.1
-0.51 0 0.1
-0.5 0 0.1
-0.49 0 0.1
-0.48 0 0.1
-0.47 0 0.1
-0.46 0 0.1
-0.45 0 0.1
-0.44 0 0.1
-0.43 0 0.1
-0.42 0 0.1
-0.41 0 0.1
-0.4 0 0.1
-0.39 0 0.1
-0.38 0 0.1
-0.37 0 0.1
-0.36 0 0.1
-0.35 0 0.1
-0.34 0 0.1
-0.33 0 0.1
-0.32 0 0.1
-0.31 0 0.1
-0.3 0 0.1
-0.29 0 0.1
-0.28 0 0.1
-0.27 0 0.1
-0.26 0 0.1
-0.25 0 0.1
-0.24 0 0.1
-0.23 0 0.1
-0.22 0 0.1
-0.21 0 0.1
-0.2 0 0.1
-0.19 0 0.1
-0.18 0 0.1
-0.17 0 0.1
-0.16 0 0.1
-0.15 0 0.1
-0.14 0 0.1
-0.13 0 0.1
-0.12 0 0.1
-0.11 0 0.1
-0.1 0 0.1
-0.09 0 0.1
-0.08 0 0.1
-0.07 0 0.1
-0.06 0 0.1
-0.05 0 0.1
-0.04 0 0.1
-0.03 0 0.1
-0.02 0 0.1
-0.01 0 0.1
0.00921362 0.00379763 0.1
0.0184561 0.00752451 0.1
0.0277268 0.0111804 0.1
0.0370253 0.0147652 0.1
0.0463511 0.0182786 0.1
0.0557034 0.0217203 0.1
0.0650819 0.0250903 0.1
0.074486 0.0283883 0.1
0.083915 0.0316141 0.1
0.0933685 0.0347675 0.1
0.102846 0.0378484 0.1
0.112347 0.0408565 0.1
0.12187 0.0437917 0.1
0.131416 0.0466538 0.1
0.140983 0.0494427 0.1
0.150572 0.0521581 0.1
0.160181 0.0547999 0.1
0.16981 0.0573681 0.1
0.179458 0.0598623 0.1
0.189125 0.0622825 0.1
0.198811 0.0646285 0.1
0.208514 0.0669001 0.1
0.218234 0.0690974 0.1
0.227971 0.07122 0.1
0.237724 0.073268 0.1
0.247493 0.0752411 0.1
0.257276 0.0771393 0.1
0.267073 0.0789625 0.1
0.276884 0.0807105 0.1
0.286708 0.0823832 0.1
0.296545 0.0839806 0.1
0.306394 0.0855025 0.1
0.316254 0.0869488 0.1
0.326125 0.0883196 0.1
0.336006 0.0896146 0.1
0.345896 0.0908339 0.1
0.355796 0.0919773 0.1
0.365704 0.0930447 0.1
0.375621 0.0940362 0.1
0.385544 0.0949517 0.1
0.395474 0.095791 0.1
0.40541 0.0965542 0.1
0.415352 0.0972412 0.1
0.425299 0.097852 0.1
0.43525 0.0983865 0.1
0.445205 0.0988447 0.1
0.455164 0.0992266 0.1
0.465125 0.0995321 0.1
0.475088 0.0997613 0.1
0.485052 0.0999141 0.1
0.495017 0.0999904 0.1
0.504983 0.0999904 0.1
0.514948 0.0999141 0.1
0.524912 0.0997613 0.1
0.534875 0.0995321 0.1
0.544836 0.0992266 0.1
0.554795 0.0988447 0.1
0.56475 0.0983865 0.1
0.574701 0.097852 0.1
0.584648 0.0972412 0.1
0.59459 0.0965542 0.1
0.604526 0.095791 0.1
0.614456 0.0949517 0.1
0.624379 0.0940362 0.1
0.634296 0.0930447 0.1
0.644204 0.0919773 0.1
0.654104 0.0908339 0.1
0.663994 0.0896146 0.1
0.673875 0.0883196 0.1
0.683746 0.0869488 0.1
0.693606 0.0855025 0.1
0.703455 0.0839806 0.1
0.713292 0.0823832 0.1
0.723116 0.0807105 0.1
0.732927 0.0789625 0.1
0.742724 0.0771393 0.1
0.752508 0.0752411 0.1
0.762276 0.073268 0.1
0.772029 0.07122 0.1
0.781766 0.0690974 0.1
0.791486 0.0669001 0.1
0.801189 0.0646285 0.1
0.810875 0.0622825 0.1
0.820542 0.0598623 0.1
0.83019 0.0573681 0.1
0.839819 0.0547999 0.1
0.849428 0.0521581 0.1
0.859017 0.0494427 0.1
0.868584 0.0466538 0.1
0.87813 0.0437917 0.1
0.887653 0.0408565 0.1
0.897154 0.0378484 0.1
0.906631 0.0347675 0.1
0.916085 0.0316141 0.1
0.925514 0.0283883 0.1
0.934918 0.0250903 0.1
0.944297 0.0217203 0.1
0.953649 0.0182786 0.1
0.962975 0.0147652 0.1
0.972273 0.0111804 0.1
0.981544 0.00752451 0.1
0.990786 0.00379763 0.1
1.01 0 0.1
1.02 0 0.1
1.03 0 0.1
1.04 0 0.1
1.05 0 0.1
1.06 0 0.1
1.07 0 0.1
1.08 0 0.1
1.09 0 0.1
1.1 0 0.1
1.11 0 0.1
1.12 0 0.1
1.13 0 0.1
1.14 0 0.1
1.15 0 0.1
1.16 0 0.1
1.17 0 0.1
1.18 0 0.1
1.19 0 0.1
1.2 0 0.1
1.21 0 0.1
1.22 0 0.1
1.23 0 0.1
1.24 0 0.1
1.25 0 0.1
1.26 0 0.1
1.27 0 0.1
1.28 0 0.1
1.29 0 0.1
1.3 0 0.1
1.31 0 0.1
1.32 0 0.1
1.33 0 0.1
1.34 0 0.1
1.35 0 0.1
1.36 0 0.1
1.37 0 0.1
1.38 0 0.1
1.39 0 0.1
1.4 0 0.1
1.41 0 0.1
1.42 0 0.1
1.43 0 0.1
1.44 0 0.1
1.45 0 0.1
1.46 0 0.1
1.47 0 0.1
1.48 0 0.1
1.49 0 0.1
1.5 0 0.1
1.51 0 0.1
1.52 0 0.1
1.53 0 0.1
1.54 0 0.1
1.55 0 0.1
1.56 0 0.1
1.57 0 0.1
1.58 0 0.1
1.59 0 0.1
1.6 0 0.1
1.61 0 0.1
1.62 0 0.1
1.63 0 0.1
1.64 0 0.1
1.65 0 0.1
1.66 0 0.1
1.67 0 0.1
1.68 0 0.1
1.69 0 0.1
1.7 0 0.1
1.71 0 0.1
1.72 0 0.1
1.73 0 0.1
1.74 0 0.1
1.75 0 0.1
1.76 0 0.1
1.77 0 0.1
1.78 0 0.1
1.79 0 0.1
1.8 0 0.1
1.81 0 0.1
1.82 0 0.1
1.83 0 0.1
1.84 0 0.1
1.85 0 0.1
1.86 0 0.1
1.87 0 0.1
1.88 0 0.1
[...]
CELL_DATA 7425
SCALARS rho float
LOOKUP_TABLE default
0.587951
0.805071
0.81977
0.827703
0.799654
0.81936
0.821076
0.814386
0.813261
0.738904
0.863584
0.810109
0.814152
0.827559
0.803916
0.817379
0.798973
0.813535
0.803499
0.767407
0.83145
0.822115
0.725076
0.828233
0.803905
0.703748
0.831378
0.848617
0.800205
0.808054
0.819538
0.725222
0.803646
0.65274
0.520756
0.8282
0.803533
0.814364
0.811218
0.828179
0.716576
0.704216
0.79017
0.700741
0.587417
0.748424
0.799526
0.814087
0.663802
0.719031
0.746362
0.805188
0.812417
0.799296
0.709182
0.660262
0.823115
0.800248
0.738776
0.7013
0.710386
0.807699
0.813505
0.799589
0.798816
0.817833
0.585114
0.773502
0.703585
0.807981
0.80433
0.803219
0.883472
0.821188
0.810913
0.81332
0.805085
0.800477
0.813511
0.757875
0.816214
0.807279
0.810551
0.788877
0.836036
0.80129
0.575185
0.830121
0.543621
0.848611
0.704787
0.730024
0.845574
0.803206
0.817623
0.758615
0.836222
0.788115
0.82582
0.802697
0.808327
0.738617
0.803313
0.828412
0.597877
0.811142
0.824558
0.70795
0.81524
0.799394
0.816935
0.784674
0.78999
0.812475
0.789903
0.786419
0.831427
0.803121
0.699146
0.635423
0.805083
0.777477
0.813226
0.790494
0.859053
0.839151
0.807737
0.80445
0.661682
0.505586
0.81472
0.655698
0.516553
0.868118
0.664314
0.799747
0.811163
0.723913
0.58275
0.725418
0.723824
0.809769
0.809912
0.706655
0.8033
0.779724
0.566197
0.788773
0.782556
0.827953
0.816932
0.704906
0.803106
0.744324
0.70459
0.803304
0.810509
0.830587
0.797751
0.653349
0.802588
0.702028
0.801299
0.829922
0.820667
0.802409
0.81334
0.785013
0.806325
0.800864
0.819923
0.804704
0.791433
0.799356
0.800045
0.740604
0.8039
0.759115
0.595135
0.703706
0.799895
0.792927
0.879869
0.832003
0.632011
0.823128
0.798866
0.82758
0.80008
0.81367
0.812896
0.803224
0.806992
0.70394
0.815254
0.819464
0.770248
0.797355
0.861543
0.807815
0.811947
0.811446
0.613483
0.839208
0.573779
0.533161
0.596141
0.602225
0.828332
0.879406
0.807565
0.798694
0.841498
0.813252
0.816908
0.820975
0.815444
0.638496
0.553423
0.813986
0.54671
0.593565
0.702777
0.811933
0.814315
0.81332
0.8333
0.8132
0.864601
0.709133
0.835363
0.713507
0.80522
0.803953
0.802026
0.714307
0.721084
0.620001
0.704379
0.863725
0.87585
0.806483
0.807737
0.799085
0.81167
0.716627
0.821813
0.80042
0.825881
0.794695
0.810125
0.721287
0.813099
0.823934
0.740292
0.529503
0.800036
0.736343
0.843439
0.814591
0.72634
0.815815
0.815086
0.850057
0.809772
0.804116
0.80328
0.825844
0.860872
0.805666
0.619745
0.849015
0.812234
0.80564
0.827724
0.837467
0.813259
0.821629
0.793581
0.815316
0.867016
0.850052
0.827518
0.836898
0.802741
0.817388
0.803208
0.759827
0.701975
0.581629
0.699887
0.802563
0.813172
0.816222
0.855058
0.779773
0.646222
0.827267
0.522302
0.774494
0.801173
0.646885
0.498438
0.639585
0.81544
0.813507
0.81325
0.812982
0.826903
0.774533
0.811522
0.802699
0.813196
0.84086
0.867511
0.83372
0.802828
0.704205
0.79609
0.834416
0.692007
0.798971
0.802101
0.864881
0.817328
0.593679
0.813658
0.741009
0.852638
0.732411
0.810373
0.907699
0.800097
0.795857
0.659457
0.636068
0.710932
0.780873
0.826725
0.815179
0.813954
0.882898
0.858535
0.799765
0.799337
0.826104
0.739626
0.802592
0.879468
0.801406
0.804944
0.800913
0.802598
0.813237
0.815958
0.816604
0.636958
0.830172
0.64686
0.808601
0.640067
0.802835
0.80228
0.840384
0.729309
0.816406
0.808802
0.817208
0.799695
0.802525
0.811327
0.697886
0.824541
0.813337
0.813199
0.80071
0.736883
0.560684
0.806454
0.811299
0.803214
0.813183
0.794921
0.50633
0.84622
0.813583
0.803879
0.785924
0.813534
0.80482
0.803194
0.816472
0.807551
0.822709
0.768803
0.812819
0.807819
0.563427
0.803343
0.640595
0.838878
0.636732
0.814939
0.877984
0.594753
0.818187
0.749246
0.804451
0.873423
0.5351
0.823317
0.822461
0.803524
0.825928
0.811181
0.823655
0.830812
0.825025
0.740199
0.827705
0.761637
0.810369
0.79431
0.793826
0.758857
0.805647
0.802107
0.814688
0.752673
0.804825
0.605086
0.614853
0.689929
0.813084
0.844334
0.864943
0.830042
0.798816
0.812932
0.805021
0.818712
0.680946
0.801165
0.743226
0.824195
0.815034
0.805644
0.710857
0.727597
0.534757
0.60617
0.801481
0.611923
0.792819
0.765495
0.770235
0.726773
0.762723
0.767811
0.809704
0.815177
0.819765
0.811747
0.711173
0.604014
0.83918
0.807163
0.783258
0.810086
0.802667
0.836718
0.718991
0.855406
0.763764
0.729045
0.764823
0.811751
0.546066
0.799053
0.841764
0.813458
0.814046
0.809978
0.799403
0.78059
0.835835
0.803134
0.843119
0.721356
0.706877
0.800479
0.795353
0.822222
0.709222
0.848097
0.800663
0.816285
0.79895
0.779295
0.808509
0.59526
0.677875
0.632903
0.813191
0.803984
0.826539
0.749508
0.81064
0.815046
0.820603
0.799207
0.729964
0.797126
0.814551
0.803223
0.704227
0.813857
0.819118
0.840163
0.811059
0.825529
0.862387
0.857378
0.744341
0.604036
0.838156
0.805952
0.8435
0.814482
0.823057
0.81379
0.814065
0.638616
0.805435
0.809519
0.813115
0.792094
0.810757
0.804979
0.860943
0.798896
0.813029
0.814963
0.872016
0.598266
0.813726
0.842758
0.883389
0.53152
0.816638
0.830137
0.796206
0.814808
0.795153
0.867698
0.81238
0.831525
0.812972
0.619925
0.802449
0.804185
0.691769
0.853247
0.759723
0.801876
0.814234
0.812992
0.860115
0.795416
0.833758
0.834887
0.784574
0.825318
0.842679
0.799969
0.810734
0.807197
0.805355
0.815065
0.802662
0.845359
0.769398
0.809831
0.803216
0.815388
0.723576
0.813186
0.818578
0.752857
0.813852
0.816544
0.827832
0.82531
0.800927
0.800813
0.85061
0.767876
0.825397
0.844346
0.804594
0.507191
0.813183
0.828465
0.852495
0.812887
0.803166
0.808598
0.855156
0.780087
0.802618
0.801421
0.813227
0.727871
0.802878
0.830141
0.808267
0.795045
0.793774
0.843347
0.806648
0.845435
0.802043
0.824449
0.813031
0.804253
0.841975
0.813152
0.680191
0.819002
0.807143
0.813103
0.906191
0.800948
0.816099
0.800617
0.800563
0.816443
0.800665
0.803406
0.783727
0.747445
0.806757
0.81319
0.758291
0.791663
0.823224
0.813066
0.822465
0.806436
0.825968
0.875387
0.830828
0.576521
0.709138
0.840908
0.817521
0.844296
0.81501
0.850226
0.80758
0.812573
0.799568
0.838563
0.861046
0.85292
0.731961
0.814351
0.822378
0.743797
0.817369
0.776108
0.800372
0.73347
0.816306
0.831045
0.823544
0.862285
0.814472
0.813577
0.810445
0.814894
0.835941
0.812252
0.798892
0.810279
0.737982
0.811637
0.77414
0.832999
0.81302
0.639295
0.777759
0.811367
0.7994
0.820047
0.802705
0.814927
0.817533
0.804614
0.819617
0.804199
0.806102
0.598463
0.847185
0.825327
0.826897
0.815173
0.803251
0.702209
0.80673
0.907881
0.813848
0.80128
0.813157
0.782402
0.807513
0.813547
0.821501
0.814695
0.813508
0.816481
0.699791
0.778114
0.764909
0.812946
0.805452
0.801274
0.621911
0.805963
0.802847
0.708691
0.837401
0.817434
0.802356
0.807676
0.799592
0.81748
0.814118
0.813569
0.813176
0.710015
0.831856
0.800344
0.807669
0.84303
0.817868
0.816533
0.800382
0.753766
0.824027
0.787675
0.821646
0.789511
0.805899
0.821169
0.737614
0.817612
0.652241
0.872125
0.704736
0.845152
0.801058
0.875241
0.793911
0.801786
0.820889
0.836437
0.83852
0.825655
0.82005
0.814954
0.801364
0.80424
0.80834
0.726515
0.827344
0.800123
0.719424
0.830697
0.703052
0.800247
0.860813
0.805629
0.702519
0.797922
0.814353
0.704286
0.785669
0.819606
0.832009
0.807225
0.579222
0.729352
0.812449
0.801579
0.813222
0.800875
0.737518
0.814276
0.815965
0.812788
0.775582
0.803292
0.804538
0.803832
0.561187
0.813012
0.834209
0.580975
0.815419
0.816348
0.814955
0.81859
0.814681
0.824739
0.799329
0.795182
0.771001
0.823
0.829763
0.825204
0.835189
0.765602
0.809277
0.725174
0.772476
0.809041
0.82129
0.813564
0.801006
0.858717
0.813226
0.800588
0.809873
0.816336
0.815441
0.836796
0.814755
0.8131
0.812026
0.814089
0.800395
0.821209
0.803812
0.823039
0.813745
0.576673
0.813791
0.834635
0.858485
0.838309
0.492581
0.817047
0.80472
0.498114
0.670225
0.644915
0.834454
0.808161
0.811697
0.813085
0.803219
0.816989
0.81108
0.535642
0.687384
0.818327
0.806666
0.815862
0.803539
0.810301
0.811198
0.820449
0.799704
0.693304
0.856335
0.803166
0.814775
0.813893
0.758025
0.487553
0.83307
0.813679
0.741803
0.802718
0.806456
0.592405
0.827678
0.815033
0.827912
0.819009
0.826252
0.804769
0.720263
0.644031
0.562812
0.825516
0.808778
0.782962
0.813263
0.780067
0.818123
0.8734
0.762607
0.821823
0.813787
0.826032
0.883645
0.814701
0.812115
0.803314
0.813913
0.692368
0.828398
0.800064
0.810427
0.802272
0.784347
0.854291
0.822251
0.840609
0.821738
0.75753
0.756089
0.803558
0.818325
0.803084
0.805283
0.802641
0.775938
0.814939
0.761861
0.821418
0.662513
0.814237
0.803009
0.735388
0.823402
0.818178
0.74027
0.801214
0.757489
0.881166
0.800754
0.813141
0.762957
0.800334
0.814536
0.803983
0.590559
0.821093
0.798855
0.801601
0.814786
0.8258
0.757444
0.805763
0.841958
0.827209
0.8142
0.836006
0.698709
0.700511
0.813223
0.744434
0.822429
0.771595
0.813133
0.802565
0.810585
0.752221
0.79426
0.764623
0.810154
0.80316
0.63167
0.779192
0.799276
0.849364
0.81463
0.828839
0.527736
0.825411
0.785303
0.858856
0.800975
0.818105
0.800526
0.786011
0.798976
0.825896
0.835896
0.821913
0.81735
0.706462
0.774102
0.815581
0.805418
0.81027
0.80394
0.705794
0.793035
0.803606
0.810901
0.827414
0.851321
0.83203
0.813742
0.799662
0.804415
0.802185
0.779775
0.612218
0.800574
0.731787
0.662405
0.823003
0.799062
0.77726
0.80019
0.754416
0.785389
0.811757
0.822415
0.803554
0.816248
0.817546
0.820813
0.813668
0.808664
0.712471
0.699771
0.641365
0.829464
0.869667
0.815522
0.841514
0.847972
0.863835
0.736279
0.816792
0.863116
0.810409
0.813173
0.816381
0.733183
0.812672
0.806911
0.80644
0.518523
0.813258
0.761399
0.813438
0.813845
0.803571
0.704948
0.813477
0.611206
0.825173
0.802458
0.822388
0.85529
0.803462
0.795435
0.821148
0.811845
0.805813
0.762463
0.511398
0.821109
0.803127
0.829201
0.825956
0.802353
0.807065
0.834615
0.721252
0.502052
0.886335
0.800808
0.815936
0.804357
0.710007
0.798861
0.800223
0.815316
0.736656
0.646969
0.883322
0.714536
0.836713
0.812259
0.833063
0.842811
0.792438
0.804779
0.813862
0.85289
0.738594
0.87079
0.814281
0.563537
0.802697
0.74879
0.853042
0.760614
0.804251
0.803985
0.799832
0.801677
0.809148
0.813205
0.855923
0.806218
0.802885
0.801336
0.800205
0.81254
0.81711
0.80264
0.812784
0.849344
0.803113
0.783675
0.802273
0.839904
0.725756
0.813899
0.814089
0.643834
0.713485
0.805602
0.823219
0.803806
0.51313
0.856711
0.813473
0.833291
0.805343
0.803337
0.801418
0.786483
0.587749
0.804346
0.816343
0.83609
0.820781
0.813242
0.798415
0.747376
0.801621
0.766137
0.787632
0.799551
0.791039
0.751167
0.801022
0.811713
0.81064
0.832344
0.849431
0.554249
0.842055
0.813143
0.820904
0.802172
0.82273
0.811375
0.894677
0.800415
0.867535
0.805735
0.760087
0.86222
0.802315
0.800277
0.82435
0.660866
0.64576
0.803423
0.803892
0.703023
0.654762
0.799934
0.824051
0.813318
0.822794
0.733404
0.817361
0.813124
0.826325
0.817154
0.811989
0.813164
0.754839
0.804116
0.815918
0.81163
0.676623
0.567195
0.813201
0.650447
0.722227
0.555943
0.841546
0.800323
0.528496
0.601378
0.827659
0.908113
0.818372
0.652787
0.814417
0.786655
0.801894
0.786583
0.820915
0.810323
0.788378
0.821258
0.801249
0.588437
0.818053
0.766937
0.816164
0.700136
0.822427
0.789868
0.814211
0.800274
0.663324
0.843633
0.80673
0.806854
0.495246
0.817067
0.800567
0.852528
0.710984
0.81732
0.585899
0.71971
0.801575
0.79687
0.733359
0.716031
0.715375
0.508587
0.592918
0.800221
0.519108
0.822805
0.522579
0.757438
0.672094
0.601953
0.54204
0.745702
0.803099
0.714439
0.821508
0.801065
0.803079
0.761436
0.889748
0.799273
0.824678
0.80347
0.813085
0.706309
0.807781
0.736985
0.822119
0.886114
0.833726
0.748018
0.822992
0.770739
0.879977
0.804229
0.758906
0.850818
0.777098
0.79996
0.805537
0.758477
0.74512
0.667449
0.80502
0.803042
0.818127
0.833658
0.611987
0.80816
0.539277
0.66901
0.617795
0.818778
0.821253
0.809261
0.804008
0.616195
0.872543
0.802698
0.802962
0.863627
0.812723
0.772212
0.81246
0.802397
0.818131
0.803159
0.717367
0.80352
0.656581
0.799215
0.804312
0.801613
0.639613
0.811715
0.810478
0.725734
0.818043
0.550111
0.577432
0.804183
0.696851
0.726239
0.572801
0.724092
0.813891
0.706343
0.773129
0.716314
0.812962
0.670638
0.762347
0.806558
0.810859
0.655202
0.801997
0.895218
0.796774
0.817032
0.58644
0.694218
0.80118
0.813236
0.814269
0.851773
0.812925
0.804302
0.803766
0.803366
0.714198
0.717311
0.61623
0.771754
0.534483
0.7235
0.810182
0.81466
0.806355
0.799493
0.541747
0.809323
0.803789
0.554979
0.544589
0.746858
0.803603
0.806395
0.55018
0.798345
0.570374
0.721273
0.608412
0.813683
0.802419
0.597719
0.608876
0.867994
0.810163
0.765646
0.718338
0.62287
0.655773
0.708775
0.816245
0.760013
0.765462
0.624577
0.754163
0.809563
0.81561
0.812748
0.815718
0.866052
0.755012
0.81915
0.803385
0.851401
0.813156
0.802801
0.813357
0.722022
0.813179
0.812227
0.815417
0.811392
0.816122
0.803295
0.818147
0.810631
0.809987
0.817491
0.80015
0.816821
0.819172
0.667909
0.81883
0.868515
0.818391
0.793
0.646372
0.858697
0.81901
0.825082
0.799759
0.811507
0.757469
0.852673
0.56207
0.727328
0.809907
0.815909
0.803907
0.803388
0.832221
0.805253
0.805338
0.815509
0.780918
0.838709
0.842089
0.815402
0.664756
0.614507
0.816007
0.816848
0.788573
0.849761
0.847384
0.8111
0.81386
0.777996
0.814339
0.818055
0.814365
0.818997
0.813337
0.816064
0.851172
0.816209
0.814737
0.817782
0.817991
0.785
0.814352
0.804267
0.804374
0.804805
0.81879
0.811774
0.788566
0.753847
0.81294
0.806315
0.809039
0.806416
0.857871
0.803513
0.814244
0.812978
0.805346
0.602087
0.803923
0.813024
0.815261
0.810362
0.813068
0.813567
0.813302
0.810219
0.864484
0.503093
0.813099
0.8418
0.81293
0.803016
0.808496
0.815246
0.83983
0.800654
0.801454
0.812767
0.703778
0.813118
0.808389
0.807589
0.812825
0.813162
0.813302
0.813628
0.513312
0.811936
0.716597
0.885912
0.821252
0.733121
0.673664
0.815604
0.803714
0.818915
0.64696
0.80176
0.8136
0.648434
0.800066
0.804152
0.815691
0.806439
0.856857
0.809889
0.607507
0.80099
0.775142
0.811268
0.889141
0.803475
0.815565
0.819461
0.832332
0.813664
0.8226
0.836493
0.63546
0.802835
0.65623
0.814004
0.813906
0.712027
0.813793
0.805038
0.712767
0.815124
0.702156
0.861184
0.784266
0.814547
0.813174
0.813689
0.668493
0.813913
0.633735
0.80036
0.792449
0.82249
0.815421
0.716513
0.766697
0.830223
0.813019
0.821442
0.822105
0.813701
0.82552
0.799697
0.552859
0.75482
0.759494
0.731042
0.837761
0.822616
0.834453
0.776338
0.802787
0.813303
0.81323
0.813233
0.774801
0.564537
0.803226
0.530014
0.808383
0.824537
0.799911
0.803787
0.813209
0.806064
0.782857
0.732387
0.813651
0.859244
0.813879
0.799488
0.736736
0.809855
0.78881
0.833843
0.505719
0.796035
0.80614
0.79909
0.69057
0.813111
0.810961
0.857462
0.569761
0.807381
0.803291
0.813082
0.613736
0.813357
0.803355
0.803428
0.803051
0.813466
0.813562
0.816329
0.813312
0.717182
0.804541
0.803222
0.813264
0.896219
0.813413
0.774224
0.84135
0.799216
0.803152
0.601938
0.81316
0.803379
0.825916
0.802021
0.866323
0.815006
0.853753
0.800551
0.820833
0.778014
0.559121
0.753051
0.794468
0.80417
0.813978
0.814052
0.556326
0.861874
0.858307
0.768772
0.757733
0.738573
0.812314
0.848683
0.813197
0.813832
0.813231
0.804304
0.726701
0.803528
0.799312
0.764129
0.824443
0.823185
0.86193
0.815873
0.813244
0.528592
0.808926
0.813203
0.800874
0.774185
0.81812
0.803127
0.813137
0.827059
0.79851
0.803724
0.801344
0.815361
0.839255
0.802575
0.799357
0.801721
0.766045
0.820064
0.567831
0.868459
0.803722
0.546579
0.803335
0.80331
0.819793
0.595327
0.606777
0.801722
0.803852
0.801037
0.86082
0.780102
0.814826
0.802963
0.866163
0.804746
0.804481
0.826449
0.816143
0.82035
0.821462
0.820515
0.867559
0.729561
0.852248
0.817405
0.654136
0.802689
0.803213
0.803667
0.821309
0.823681
0.804097
0.801265
0.800244
0.822858
0.803327
0.803642
0.799868
0.824559
0.804002
0.802075
0.806112
0.828024
0.800769
0.801691
0.824516
0.799769
0.815603
0.651742
0.826554
0.849948
0.804977
0.819766
0.803269
0.828907
0.837632
0.803421
0.821659
0.800676
0.807188
0.789611
0.802229
0.803293
0.80639
0.80601
0.804704
0.818738
0.814972
0.811288
0.831559
0.802389
0.802267
0.800098
0.789024
0.833926
0.803187
0.819495
0.815428
0.807196
0.805197
0.802965
0.839033
0.865164
0.799778
0.679333
0.801297
0.842276
0.816799
0.805352
0.804493
0.819786
0.844707
0.604379
0.829026
0.79471
0.850737
0.818922
0.812057
0.813363
0.808433
0.803984
0.81284
0.808811
0.592391
0.848098
0.794718
0.81441
0.854692
0.819469
0.763409
0.80873
0.814677
0.815659
0.803004
0.662149
0.809437
0.863244
0.802753
0.800839
0.775686
0.87129
0.800555
0.877138
0.806847
0.817364
0.820797
0.802455
0.803957
0.812854
0.816091
0.803689
0.813561
0.816941
0.881417
0.820768
0.809333
0.800357
0.82855
0.810521
0.839151
0.808932
0.806975
0.812359
0.816752
0.830039
0.813886
0.822696
0.832634
0.8144
0.700505
0.692148
0.813289
0.81794
0.804038
0.813359
0.515802
0.854961
0.799936
0.806258
0.814148
0.813713
0.803997
0.812718
0.800655
0.801344
0.8082
0.814889
0.757229
0.784831
0.823112
0.843017
0.834923
0.800452
0.805277
0.803378
0.812959
0.805822
0.799725
0.799974
0.801132
0.811049
0.797868
0.802962
0.835631
0.831596
0.730397
0.689603
0.807634
0.699596
0.799715
0.574626
0.804449
0.807029
0.803294
0.818356
0.834053
0.814151
0.813108
0.810307
0.803888
0.881588
0.816471
0.805029
0.772404
0.587944
0.810273
0.80684
0.769531
0.814635
0.814101
0.791541
0.800756
0.804066
0.628117
0.830562
0.803526
0.781763
0.779433
0.852806
0.810021
0.803092
0.802831
0.81042
0.811111
0.520226
0.801898
0.839621
0.814151
0.798635
0.589664
0.814672
0.814292
0.813203
0.833871
0.814142
0.80399
0.822067
0.805825
0.576465
0.808692
0.736987
0.798544
0.813864
0.722482
0.815139
0.846321
0.831688
0.664933
0.890955
0.785683
0.777682
0.796928
0.779573
0.808745
0.850312
0.808182
0.802928
0.813779
0.809083
0.782723
0.78602
0.8141
0.80854
0.834921
0.821435
0.835761
0.801496
0.799835
0.813292
0.856713
0.816623
0.818537
0.81358
0.607887
0.795587
0.824042
0.829456
0.865984
0.812856
0.819064
0.510274
0.809968
0.800766
0.812838
0.81497
0.84769
0.813292
0.811123
0.88156
0.764772
0.812619
0.813469
0.80924
0.80525
0.814445
0.656348
0.800548
0.849639
0.833585
0.810793
0.813749
0.813599
0.809597
0.699899
0.812689
0.800387
0.838698
0.818657
0.811834
0.831447
0.792939
0.811748
0.817998
0.809031
0.81947
0.744702
0.855079
0.819147
0.814004
0.813296
0.812946
0.815907
0.817342
0.812994
0.810988
0.841192
0.818778
0.80036
0.825352
0.827086
0.816262
0.814534
0.800555
0.801623
0.813288
0.819208
0.829483
0.813042
0.816644
0.800049
0.810166
0.81308
0.813038
0.802522
0.814876
0.813557
0.803297
0.813105
0.835785
0.800065
0.809642
0.821769
0.560919
0.814426
0.81835
0.815686
0.8152
0.822133
0.828957
0.815819
0.819019
0.701794
0.8133
0.801464
0.815819
0.819212
0.835142
0.821736
0.815667
0.829518
0.8251
0.810913
0.819223
0.819768
0.804425
0.813393
0.815806
0.819533
0.832253
0.812862
0.815899
0.802741
0.813179
0.813287
0.52439
0.628603
0.814387
0.821611
0.801895
0.822625
0.816106
0.841969
0.708454
0.813966
0.73091
0.817545
0.810526
0.813396
0.829474
0.813878
0.805105
0.813164
0.830198
0.839634
0.813027
0.719508
0.819308
0.816225
0.800098
0.803044
0.815514
0.856016
0.812886
0.813602
0.849798
0.829114
0.843359
0.574996
0.829253
0.814161
0.811103
0.817589
0.850874
0.817951
0.718696
0.799745
0.831818
0.8
0.799921
0.805491
0.748085
0.813625
0.814553
0.725903
0.814562
0.827399
0.813542
0.81424
0.799436
0.818557
0.813228
0.823783
0.808732
0.808381
0.81516
0.706089
0.819255
0.81429
0.813215
0.640636
0.718172
0.599941
0.823335
0.531909
0.854182
0.72761
0.842903
0.812757
0.723506
0.821528
0.816071
0.742814
0.807743
0.818536
0.79443
0.816709
0.816061
0.815991
0.813228
0.808104
0.803687
0.737563
0.836418
0.820334
0.816797
0.799418
0.815483
0.80224
0.816204
0.81368
0.854955
0.817954
0.498962
0.813492
0.818969
0.818843
0.778157
0.815792
0.806753
0.818619
0.845677
0.597093
0.809323
0.799525
0.815521
0.817804
0.817873
0.812685
0.81878
0.814047
0.814775
0.803094
0.81447
0.846222
0.814139
0.792032
0.811708
0.623075
0.718548
0.813301
0.817182
0.803009
0.822466
0.735492
0.803162
0.803194
0.820379
0.660935
0.81778
0.799576
0.815616
0.86508
0.78558
0.822114
0.81816
0.823015
0.814234
0.769748
0.802466
0.813785
0.902339
0.827232
0.81662
0.832274
0.809838
0.868642
0.719038
0.698522
0.852614
0.80272
0.685296
0.850565
0.786137