# vtk DataFile Version 1.0
unstructured grid
ascii
DATASET UNSTRUCTURED_GRID
points 7812 float
-1 0 0
-1 1 0
2 0 0
2 1 0
0 0 0
1 0 0
-1 1 0.1
-1 0 0.1
0 0 0.1
1 0 0.1
2 0 0.1
2 1 0.1
-0.99 0 0
-0.98 0 0
-0.97 0 0
-0.96 0 0
-0.95 0 0
-0.94 0 0
-0.93 0 0
-0.92 0 0
-0.91 0 0
-0.9 0 0
-0.89 0 0
-0.88 0 0
-0.87 0 0
-0.86 0 0
-0.85 0 0
-0.84 0 0
-0.83 0 0
-0.82 0 0
-0.81 0 0
-0.8 0 0
-0.79 0 0
-0.78 0 0
-0.77 0 0
-0.76 0 0
-0.75 0 0
-0.74 0 0
-0.73 0 0
-0.72 0 0
-0.71 0 0
-0.7 0 0
-0.69 0 0
-0.68 0 0
-0.67 0 0
-0.66 0 0
-0.65 0 0
-0.64 0 0
-0.63 0 0
-0.62 0 0
-0.61 0 0
-0.6 0 0
-0.59 0 0
-0.58 0 0
-0.57 0 0
-0.56 0 0
-0.55 0 0
-0.54 0 0
-0.53 0 0
-0.52 0 0
-0.51 0 0
-0.5 0 0
-0.49 0 0
-0.48 0 0
-0.47 0 0
-0.46 0 0
-0.45 0 0
-0.44 0 0
-0.43 0 0
-0.42 0 0
-0.41 0 0
-0.4 0 0
-0.39 0 0
-0.38 0 0
-0.37 0 0
-0.36 0 0
-0.35 0 0
-0.34 0 0
-0.33 0 0
-0.32 0 0
-0.31 0 0
-0.3 0 0
-0.29 0 0
-0.28 0 0
-0.27 0 0
-0.26 0 0
-0.25 0 0
-0.24 0 0
-0.23 0 0
-0.22 0 0
-0.21 0 0
-0.2 0 0
-0.19 0 0
-0.18 0 0
-0.17 0 0
-0.16 0 0
-0.15 0 0
-0.14 0 0
-0.13 0 0
-0.12 0 0
-0.11 0 0
-0.1 0 0
-0.09 0 0
-0.08 0 0
-0.07 0 0
-0.06 0 0
-0.05 0 0
-0.04 0 0
-0.03 0 0
-0.02 0 0
-0.01 0 0
1.01 0 0
1.02 0 0
1.03 0 0
1.04 0 0
1.05 0 0
1.06 0 0
1.07 0 0
1.08 0 0
1.09 0 0
1.1 0 0
1.11 0 0
1.12 0 0
1.13 0 0
1.14 0 0
1.15 0 0
1.16 0 0
1.17 0 0
1.18 0 0
1.19 0 0
1.2 0 0
1.21 0 0
1.22 0 0
1.23 0 0
1.24 0 0
1.25 0 0
1.26 0 0
1.27 0 0
1.28 0 0
1.29 0 0
1.3 0 0
1.31 0 0
1.32 0 0
1.33 0 0
1.34 0 0
1.35 0 0
1.36 0 0
1.37 0 0
1.38 0 0
1.39 0 0
1.4 0 0
1.41 0 0
1.42 0 0
1.43 0 0
1.44 0 0
1.45 0 0
1.46 0 0
1.47 0 0
1.48 0 0
1.49 0 0
1.5 0 0
1.51 0 0
1.52 0 0
1.53 0 0
1.54 0 0
1.55 0 0
1.56 0 0
1.57 0 0
1.58 0 0
1.59 0 0
1.6 0 0
1.61 0 0
1.62 0 0
1.63 0 0
1.64 0 0
1.65 0 0
1.66 0 0
1.67 0 0
1.68 0 0
1.69 0 0
1.7 0 0
1.71 0 0
1.72 0 0
1.73 0 0
1.74 0 0
1.75 0 0
1.76 0 0
1.77 0 0
1.78 0 0
1.79 0 0
1.8 0 0
1.81 0 0
1.82 0 0
1.83 0 0
1.84 0 0
1.85 0 0
1.86 0 0
1.87 0 0
1.88 0 0
1.89 0 0
1.9 0 0
1.91 0 0
1.92 0 0
1.93 0 0
1.94 0 0
1.95 0 0
1.96 0 0
1.97 0 0
1.98 0 0
1.99 0 0
2 0.010289 0
2 0.0215307 0
2 0.0338135 0
2 0.0472336 0
2 0.0618965 0
2 0.0779171 0
2 0.0954213 0
2 0.114546 0
2 0.135442 0
2 0.158274 0
2 0.183219 0
2 0.210474 0
2 0.240253 0
2 0.27279 0
2 0.308339 0
2 0.347181 0
2 0.389619 0
2 0.435987 0
2 0.486649 0
2 0.542002 0
2 0.602481 0
2 0.66856 0
2 0.740758 0
2 0.819642 0
2 0.90583 0
1.9 1 0
1.8 1 0
1.7 1 0
1.6 1 0
1.5 1 0
1.4 1 0
1.3 1 0
1.2 1 0
1.1 1 0
1 1 0
0.9 1 0
0.8 1 0
0.7 1 0
0.6 1 0
0.5 1 0
0.4 1 0
0.3 1 0
0.2 1 0
0.1 1 0
3.69793e-12 1 0
-0.1 1 0
-0.2 1 0
-0.3 1 0
-0.4 1 0
-0.5 1 0
-0.6 1 0
-0.7 1 0
-0.8 1 0
-0.9 1 0
-1 0.90583 0
-1 0.819642 0
-1 0.740758 0
-1 0.66856 0
-1 0.602481 0
-1 0.542002 0
-1 0.486649 0
-1 0.435987 0
-1 0.389619 0
-1 0.347181 0
-1 0.308339 0
-1 0.27279 0
-1 0.240253 0
-1 0.210474 0
-1 0.183219 0
-1 0.158274 0
-1 0.135442 0
-1 0.114546 0
-1 0.0954213 0
-1 0.0779171 0
-1 0.0618965 0
-1 0.0472336 0
-1 0.0338135 0
-1 0.0215307 0
-1 0.010289 0
0.00921362 0.00379763 0
0.0184561 0.00752451 0
0.0277268 0.0111804 0
0.0370253 0.0147652 0
0.0463511 0.0182786 0
0.0557034 0.0217203 0
0.0650819 0.0250903 0
0.074486 0.0283883 0
0.083915 0.0316141 0
0.0933685 0.0347675 0
0.102846 0.0378484 0
0.112347 0.0408565 0
0.12187 0.0437917 0
0.131416 0.0466538 0
0.140983 0.0494427 0
0.150572 0.0521581 0
0.160181 0.0547999 0
0.16981 0.0573681 0
0.179458 0.0598623 0
0.189125 0.0622825 0
0.198811 0.0646285 0
0.208514 0.0669001 0
0.218234 0.0690974 0
0.227971 0.07122 0
0.237724 0.073268 0
0.247493 0.0752411 0
0.257276 0.0771393 0
0.267073 0.0789625 0
0.276884 0.0807105 0
0.286708 0.0823832 0
0.296545 0.0839806 0
0.306394 0.0855025 0
0.316254 0.0869488 0
0.326125 0.0883196 0
0.336006 0.0896146 0
0.345896 0.0908339 0
0.355796 0.0919773 0
0.365704 0.0930447 0
0.375621 0.0940362 0
0.385544 0.0949517 0
0.395474 0.095791 0
0.40541 0.0965542 0
0.415352 0.0972412 0
0.425299 0.097852 0
0.43525 0.0983865 0
0.445205 0.0988447 0
0.455164 0.0992266 0
0.465125 0.0995321 0
0.475088 0.0997613 0
0.485052 0.0999141 0
0.495017 0.0999904 0
0.504983 0.0999904 0
0.514948 0.0999141 0
0.524912 0.0997613 0
0.534875 0.0995321 0
0.544836 0.0992266 0
0.554795 0.0988447 0
0.56475 0.0983865 0
0.574701 0.097852 0
0.584648 0.0972412 0
0.59459 0.0965542 0
0.604526 0.095791 0
0.614456 0.0949517 0
0.624379 0.0940362 0
0.634296 0.0930447 0
0.644204 0.0919773 0
0.654104 0.0908339 0
0.663994 0.0896146 0
0.673875 0.0883196 0
0.683746 0.0869488 0
0.693606 0.0855025 0
0.703455 0.0839806 0
0.713292 0.0823832 0
0.723116 0.0807105 0
0.732927 0.0789625 0
0.742724 0.0771393 0
0.752508 0.0752411 0
0.762276 0.073268 0
0.772029 0.07122 0
0.781766 0.0690974 0
0.791486 0.0669001 0
0.801189 0.0646285 0
0.810875 0.0622825 0
0.820542 0.0598623 0
0.83019 0.0573681 0
0.839819 0.0547999 0
0.849428 0.0521581 0
0.859017 0.0494427 0
0.868584 0.0466538 0
0.87813 0.0437917 0
0.887653 0.0408565 0
0.897154 0.0378484 0
0.906631 0.0347675 0
0.916085 0.0316141 0
0.925514 0.0283883 0
0.934918 0.0250903 0
0.944297 0.0217203 0
0.953649 0.0182786 0
0.962975 0.0147652 0
0.972273 0.0111804 0
0.981544 0.00752451 0
0.990786 0.00379763 0
-1 0.90583 0.1
-1 0.819642 0.1
-1 0.740758 0.1
-1 0.66856 0.1
-1 0.602481 0.1
-1 0.542002 0.1
-1 0.486649 0.1
-1 0.435987 0.1
-1 0.389619 0.1
-1 0.347181 0.1
-1 0.308339 0.1
-1 0.27279 0.1
-1 0.240253 0.1
-1 0.210474 0.1
-1 0.183219 0.1
-1 0.158274 0.1
-1 0.135442 0.1
-1 0.114546 0.1
-1 0.0954213 0.1
-1 0.0779171 0.1
-1 0.0618965 0.1
-1 0.0472336 0.1
-1 0.0338135 0.1
-1 0.0215307 0.1
-1 0.010289 0.1
-0.99 0 0.1
-0.98 0 0.1
-0.97 0 0.1
-0.96 0 0.1
-0.95 0 0.1
-0.94 0 0.1
-0.93 0 0.1
-0.92 0 0.1
-0.91 0 0.1
-0.9 0 0.1
-0.89 0 0.1
-0.88 0 0.1
-0.87 0 0.1
-0.86 0 0.1
-0.85 0 0.1
-0.84 0 0.1
-0.83 0 0.1
-0.82 0 0.1
-0.81 0 0.1
-0.8 0 0.1
-0.79 0 0.1
-0.78 0 0.1
-0.77 0 0.1
-0.76 0 0.1
-0.75 0 0.1
-0.74 0 0.1
-0.73 0 0.1
-0.72 0 0.1
-0.71 0 0.1
-0.7 0 0.1
-0.69 0 0.1
-0.68 0 0.1
-0.67 0 0.1
-0.66 0 0.1
-0.65 0 0.1
-0.64 0 0.1
-0.63 0 0.1
-0.62 0 0.1
-0.61 0 0.1
-0.6 0 0.1
-0.59 0 0.1
-0.58 0 0.1
-0.57 0 0.1
-0.56 0 0.1
-0.55 0 0.1
-0.54 0 0.1
-0.53 0 0.1
-0.52 0 0.1
-0.51 0 0.1
-0.5 0 0.1
-0.49 0 0.1
-0.48 0 0.1
-0.47 0 0.1
-0.46 0 0.1
-0.45 0 0.1
-0.44 0 0.1
-0.43 0 0.1
-0.42 0 0.1
-0.41 0 0.1
-0.4 0 0.1
-0.39 0 0.1
-0.38 0 0.1
-0.37 0 0.1
-0.36 0 0.1
-0.35 0 0.1
-0.34 0 0.1
-0.33 0 0.1
-0.32 0 0.1
-0.31 0 0.1
-0.3 0 0.1
-0.29 0 0.1
-0.28 0 0.1
-0.27 0 0.1
-0.26 0 0.1
-0.25 0 0.1
-0.24 0 0.1
-0.23 0 0.1
-0.22 0 0.1
-0.21 0 0.1
-0.2 0 0.1
-0.19 0 0.1
-0.18 0 0.1
-0.17 0 0.1
-0.16 0 0.1
-0.15 0 0.1
-0.14 0 0.1
-0.13 0 0.1
-0.12 0 0.1
-0.11 0 0.1
-0.1 0 0.1
-0.09 0 0.1
-0.08 0 0.1
-0.07 0 0.1
-0.06 0 0.1
-0.05 0 0.1
-0.04 0 0.1
-0.03 0 0.1
-0.02 0 0.1
-0.01 0 0.1
0.00921362 0.00379763 0.1
0.0184561 0.00752451 0.1
0.0277268 0.0111804 0.1
0.0370253 0.0147652 0.1
0.0463511 0.0182786 0.1
0.0557034 0.0217203 0.1
0.0650819 0.0250903 0.1
0.074486 0.0283883 0.1
0.083915 0.0316141 0.1
0.0933685 0.0347675 0.1
0.102846 0.0378484 0.1
0.112347 0.0408565 0.1
0.12187 0.0437917 0.1
0.131416 0.0466538 0.1
0.140983 0.0494427 0.1
0.150572 0.0521581 0.1
0.160181 0.0547999 0.1
0.16981 0.0573681 0.1
0.179458 0.0598623 0.1
0.189125 0.0622825 0.1
0.198811 0.0646285 0.1
0.208514 0.0669001 0.1
0.218234 0.0690974 0.1
0.227971 0.07122 0.1
0.237724 0.073268 0.1
0.247493 0.0752411 0.1
0.257276 0.0771393 0.1
0.267073 0.0789625 0.1
0.276884 0.0807105 0.1
0.286708 0.0823832 0.1
0.296545 0.0839806 0.1
0.306394 0.0855025 0.1
0.316254 0.0869488 0.1
0.326125 0.0883196 0.1
0.336006 0.0896146 0.1
0.345896 0.0908339 0.1
0.355796 0.0919773 0.1
0.365704 0.0930447 0.1
0.375621 0.0940362 0.1
0.385544 0.0949517 0.1
0.395474 0.095791 0.1
0.40541 0.0965542 0.1
0.415352 0.0972412 0.1
0.425299 0.097852 0.1
0.43525 0.0983865 0.1
0.445205 0.0988447 0.1
0.455164 0.0992266 0.1
0.465125 0.0995321 0.1
0.475088 0.0997613 0.1
0.485052 0.0999141 0.1
0.495017 0.0999904 0.1
0.504983 0.0999904 0.1
0.514948 0.0999141 0.1
0.524912 0.0997613 0.1
0.534875 0.0995321 0.1
0.544836 0.0992266 0.1
0.554795 0.0988447 0.1
0.56475 0.0983865 0.1
0.574701 0.097852 0.1
0.584648 0.0972412 0.1
0.59459 0.0965542 0.1
0.604526 0.095791 0.1
0.614456 0.0949517 0.1
0.624379 0.0940362 0.1
0.634296 0.0930447 0.1
0.644204 0.0919773 0.1
0.654104 0.0908339 0.1
0.663994 0.0896146 0.1
0.673875 0.0883196 0.1
0.683746 0.0869488 0.1
0.693606 0.0855025 0.1
0.703455 0.0839806 0.1
0.713292 0.0823832 0.1
0.723116 0.0807105 0.1
0.732927 0.0789625 0.1
0.742724 0.0771393 0.1
0.752508 0.0752411 0.1
0.762276 0.073268 0.1
0.772029 0.07122 0.1
0.781766 0.0690974 0.1
0.791486 0.0669001 0.1
0.801189 0.0646285 0.1
0.810875 0.0622825 0.1
0.820542 0.0598623 0.1
0.83019 0.0573681 0.1
0.839819 0.0547999 0.1
0.849428 0.0521581 0.1
0.859017 0.0494427 0.1
0.868584 0.0466538 0.1
0.87813 0.0437917 0.1
0.887653 0.0408565 0.1
0.897154 0.0378484 0.1
0.906631 0.0347675 0.1
0.916085 0.0316141 0.1
0.925514 0.0283883 0.1
0.934918 0.0250903 0.1
0.944297 0.0217203 0.1
0.953649 0.0182786 0.1
0.962975 0.0147652 0.1
0.972273 0.0111804 0.1
0.981544 0.00752451 0.1
0.990786 0.00379763 0.1
1.01 0 0.1
1.02 0 0.1
1.03 0 0.1
1.04 0 0.1
1.05 0 0.1
1.06 0 0.1
1.07 0 0.1
1.08 0 0.1
1.09 0 0.1
1.1 0 0.1
1.11 0 0.1
1.12 0 0.1
1.13 0 0.1
1.14 0 0.1
1.15 0 0.1
1.16 0 0.1
1.17 0 0.1
1.18 0 0.1
1.19 0 0.1
1.2 0 0.1
1.21 0 0.1
1.22 0 0.1
1.23 0 0.1
1.24 0 0.1
1.25 0 0.1
1.26 0 0.1
1.27 0 0.1
1.28 0 0.1
1.29 0 0.1
1.3 0 0.1
1.31 0 0.1
1.32 0 0.1
1.33 0 0.1
1.34 0 0.1
1.35 0 0.1
1.36 0 0.1
1.37 0 0.1
1.38 0 0.1
1.39 0 0.1
1.4 0 0.1
1.41 0 0.1
1.42 0 0.1
1.43 0 0.1
1.44 0 0.1
1.45 0 0.1
1.46 0 0.1
1.47 0 0.1
1.48 0 0.1
1.49 0 0.1
1.5 0 0.1
1.51 0 0.1
1.52 0 0.1
1.53 0 0.1
1.54 0 0.1
1.55 0 0.1
1.56 0 0.1
1.57 0 0.1
1.58 0 0.1
1.59 0 0.1
1.6 0 0.1
1.61 0 0.1
1.62 0 0.1
1.63 0 0.1
1.64 0 0.1
1.65 0 0.1
1.66 0 0.1
1.67 0 0.1
1.68 0 0.1
1.69 0 0.1
1.7 0 0.1
1.71 0 0.1
1.72 0 0.1
1.73 0 0.1
1.74 0 0.1
1.75 0 0.1
1.76 0 0.1
1.77 0 0.1
1.78 0 0.1
1.79 0 0.1
1.8 0 0.1
1.81 0 0.1
1.82 0 0.1
1.83 0 0.1
1.84 0 0.1
1.85 0 0.1
1.86 0 0.1
1.87 0 0.1
1.88 0 0.1
[...]
CELL_DATA 7425
SCALARS rho float
LOOKUP_TABLE default
0.588157
0.805084
0.819827
0.827752
0.799718
0.819416
0.821122
0.814452
0.813333
0.738976
0.863611
0.810134
0.81422
0.827609
0.803972
0.817439
0.799029
0.813605
0.803509
0.767461
0.831498
0.822139
0.725154
0.828283
0.803916
0.703948
0.831425
0.848724
0.80022
0.808089
0.819585
0.725162
0.803656
0.652911
0.52116
0.82825
0.803542
0.81443
0.811244
0.828226
0.716739
0.704511
0.790223
0.700341
0.587669
0.748496
0.799586
0.814155
0.664443
0.718978
0.746383
0.805202
0.812441
0.799354
0.709012
0.668919
0.823169
0.800286
0.738849
0.701404
0.710644
0.807715
0.813576
0.799642
0.798831
0.817892
0.585313
0.773562
0.703222
0.808018
0.804373
0.803225
0.883492
0.821212
0.810939
0.813392
0.805099
0.800491
0.813582
0.757911
0.816276
0.807295
0.81062
0.788939
0.836073
0.801343
0.57538
0.830166
0.543921
0.848648
0.704297
0.7301
0.845678
0.803216
0.817683
0.758726
0.836275
0.788149
0.825871
0.802759
0.808389
0.738619
0.803322
0.828459
0.598048
0.811167
0.824608
0.708085
0.815304
0.799456
0.816996
0.784722
0.790047
0.812493
0.789956
0.786456
0.831473
0.803126
0.698895
0.636777
0.805096
0.777535
0.813299
0.790527
0.859086
0.839246
0.807753
0.8045
0.661811
0.505994
0.814785
0.655871
0.516935
0.868249
0.665002
0.799811
0.811187
0.724011
0.582947
0.725602
0.72398
0.809817
0.809983
0.706474
0.803343
0.779767
0.566388
0.788845
0.782566
0.828003
0.816979
0.70522
0.803162
0.744342
0.704434
0.803314
0.810535
0.830635
0.797805
0.653698
0.802611
0.701636
0.801353
0.829971
0.820724
0.802419
0.813413
0.785068
0.806344
0.800923
0.81998
0.804769
0.791503
0.799418
0.800087
0.740753
0.803957
0.759225
0.595423
0.702937
0.799953
0.792988
0.879891
0.832047
0.63601
0.823182
0.798927
0.827657
0.800136
0.813739
0.812971
0.803233
0.807012
0.703777
0.815318
0.819521
0.770302
0.797414
0.861666
0.807834
0.811985
0.811518
0.613643
0.839303
0.573978
0.533533
0.596313
0.602696
0.82839
0.879428
0.80758
0.79871
0.841533
0.813325
0.816968
0.821031
0.815508
0.638621
0.554661
0.814054
0.547023
0.593846
0.70261
0.811996
0.81438
0.813393
0.833346
0.813275
0.864724
0.708912
0.835409
0.713755
0.805239
0.803963
0.802044
0.714413
0.721278
0.620128
0.704099
0.863756
0.875992
0.806548
0.807753
0.799146
0.811714
0.716862
0.821869
0.800486
0.825932
0.794722
0.810196
0.72126
0.813174
0.823987
0.740449
0.529767
0.800082
0.736333
0.843485
0.814655
0.726284
0.815877
0.815151
0.850088
0.80984
0.804191
0.803288
0.825895
0.860904
0.805732
0.619869
0.849051
0.812313
0.805654
0.827773
0.837505
0.813329
0.821682
0.793611
0.81538
0.867143
0.850084
0.827576
0.836942
0.802762
0.817448
0.803213
0.759865
0.702176
0.581822
0.699612
0.802623
0.813245
0.816284
0.855168
0.779816
0.646344
0.827318
0.522699
0.774552
0.801227
0.647008
0.499343
0.639708
0.815503
0.813578
0.813324
0.81305
0.826954
0.774573
0.811541
0.802711
0.813272
0.840902
0.867638
0.833765
0.802855
0.703693
0.796146
0.834454
0.692118
0.79903
0.802117
0.864909
0.817389
0.593842
0.813727
0.741164
0.852745
0.732526
0.810442
0.907713
0.800161
0.795924
0.659586
0.636197
0.710725
0.780953
0.826776
0.815243
0.814022
0.883047
0.858644
0.799828
0.799386
0.82613
0.73974
0.802618
0.879492
0.801415
0.805018
0.800971
0.802607
0.813307
0.816021
0.816665
0.63716
0.830231
0.647218
0.808646
0.640267
0.802894
0.802293
0.840425
0.729483
0.81643
0.808864
0.817268
0.799745
0.802534
0.811355
0.698204
0.824567
0.813409
0.813269
0.800721
0.736916
0.560875
0.80647
0.811371
0.803222
0.813258
0.794983
0.507251
0.846283
0.813652
0.803889
0.785979
0.813604
0.804862
0.803239
0.816534
0.807566
0.822763
0.76887
0.812865
0.807836
0.563623
0.803408
0.640718
0.838913
0.636861
0.815003
0.878009
0.595173
0.818223
0.749325
0.804465
0.873447
0.535469
0.82337
0.822516
0.803535
0.825979
0.811219
0.823709
0.83086
0.825076
0.74035
0.827755
0.761636
0.810416
0.794337
0.793882
0.75893
0.805664
0.802114
0.814747
0.752798
0.804861
0.605254
0.615015
0.690178
0.813154
0.844373
0.864973
0.830088
0.798879
0.813007
0.805061
0.818765
0.68106
0.801213
0.743318
0.824235
0.815096
0.805722
0.710617
0.727695
0.53504
0.606314
0.801532
0.612061
0.792883
0.765538
0.770299
0.7267
0.762795
0.767889
0.809773
0.815242
0.819823
0.811819
0.711362
0.604501
0.839222
0.807225
0.783298
0.810163
0.802696
0.836762
0.71923
0.855441
0.763796
0.729251
0.764908
0.811815
0.546344
0.799112
0.841806
0.813506
0.814114
0.810046
0.799468
0.78067
0.835873
0.803142
0.84316
0.721448
0.706721
0.800514
0.795409
0.822277
0.709358
0.848135
0.800731
0.816347
0.799007
0.779339
0.808583
0.595424
0.677989
0.633028
0.813258
0.804032
0.826589
0.749576
0.810658
0.815111
0.82066
0.799269
0.730139
0.797192
0.81463
0.80323
0.704519
0.813926
0.819174
0.840208
0.811131
0.825581
0.862415
0.857408
0.744453
0.604195
0.838191
0.805994
0.843534
0.814548
0.823103
0.813859
0.814132
0.639867
0.805512
0.809577
0.81319
0.792146
0.810804
0.805039
0.861066
0.798958
0.813105
0.815028
0.872043
0.598427
0.813795
0.842856
0.88341
0.531791
0.8167
0.830194
0.796229
0.814832
0.795208
0.867727
0.81243
0.831572
0.813051
0.620071
0.802465
0.804198
0.692019
0.853278
0.759719
0.801902
0.814301
0.813064
0.860235
0.795439
0.833798
0.834933
0.784649
0.825363
0.842772
0.80003
0.810804
0.807265
0.805369
0.815123
0.80267
0.845397
0.769446
0.809852
0.803233
0.815436
0.723692
0.81326
0.818637
0.752925
0.813921
0.816595
0.827911
0.825361
0.800982
0.800852
0.850642
0.767867
0.825479
0.844385
0.804608
0.507593
0.813256
0.828514
0.852526
0.81295
0.803172
0.808622
0.855186
0.780096
0.80263
0.801469
0.813301
0.728081
0.80292
0.830185
0.808345
0.795071
0.793843
0.843387
0.806663
0.845468
0.80205
0.824502
0.8131
0.804264
0.84201
0.813225
0.680389
0.81906
0.807159
0.813172
0.906205
0.800984
0.816153
0.800648
0.800603
0.816505
0.800705
0.803419
0.783734
0.747478
0.806822
0.813265
0.758363
0.791731
0.823277
0.813084
0.82252
0.806471
0.82602
0.875411
0.830876
0.576979
0.709224
0.840949
0.817581
0.844334
0.815073
0.85026
0.807648
0.81262
0.799623
0.838605
0.861078
0.852956
0.732076
0.814417
0.822431
0.743758
0.817447
0.776161
0.800407
0.733574
0.816368
0.831093
0.82357
0.862414
0.814537
0.813647
0.81051
0.814958
0.835981
0.812271
0.798949
0.810297
0.738095
0.81171
0.774136
0.833042
0.813094
0.63942
0.777801
0.811431
0.799455
0.820104
0.802767
0.814991
0.817593
0.804656
0.819673
0.804211
0.806174
0.598781
0.847223
0.825379
0.826948
0.815246
0.803262
0.702303
0.806808
0.907895
0.813914
0.801349
0.813225
0.782443
0.807588
0.813613
0.821556
0.814715
0.813579
0.816543
0.699193
0.778185
0.764995
0.813017
0.805489
0.801342
0.622058
0.806033
0.802903
0.70882
0.837462
0.817494
0.802397
0.807736
0.799637
0.81754
0.814167
0.813639
0.813251
0.7101
0.8319
0.800366
0.807744
0.843095
0.817939
0.816595
0.800433
0.753802
0.824077
0.787744
0.821701
0.789545
0.805977
0.821225
0.737653
0.817666
0.652694
0.872152
0.704839
0.845192
0.801122
0.875265
0.79397
0.801814
0.820945
0.836499
0.838556
0.825703
0.820107
0.815015
0.801425
0.804261
0.80837
0.726731
0.827378
0.800137
0.719371
0.830741
0.702212
0.800314
0.860934
0.805645
0.702822
0.797951
0.81442
0.704098
0.785679
0.819663
0.83205
0.80729
0.580893
0.729555
0.812473
0.801649
0.813297
0.800927
0.737595
0.814342
0.816028
0.812862
0.77564
0.8033
0.804553
0.803908
0.561379
0.813087
0.834242
0.581281
0.815483
0.81641
0.81502
0.818649
0.814746
0.824791
0.799395
0.795202
0.771002
0.823034
0.829796
0.825237
0.835281
0.765679
0.809345
0.725382
0.772514
0.809108
0.821346
0.813634
0.801018
0.858837
0.8133
0.800652
0.809943
0.816397
0.815505
0.83684
0.81482
0.813173
0.812043
0.814156
0.800466
0.821265
0.803826
0.823093
0.813814
0.57697
0.81386
0.834681
0.858603
0.838348
0.493073
0.817108
0.804772
0.498524
0.670452
0.645374
0.834496
0.808211
0.811715
0.813156
0.803224
0.81705
0.811117
0.535923
0.687625
0.818357
0.80668
0.815924
0.803549
0.810323
0.811269
0.820503
0.799748
0.693582
0.856455
0.803171
0.814795
0.81396
0.758089
0.488056
0.833116
0.81372
0.741762
0.802723
0.806535
0.592802
0.827724
0.815096
0.827963
0.819067
0.826334
0.804782
0.720499
0.644154
0.563007
0.825568
0.808856
0.782965
0.813336
0.780138
0.818182
0.873424
0.762669
0.821879
0.813853
0.826083
0.883668
0.814766
0.812184
0.803332
0.813931
0.69254
0.828448
0.800108
0.810507
0.802289
0.784383
0.854326
0.822305
0.840644
0.821793
0.75752
0.756152
0.803627
0.818382
0.80309
0.805296
0.802661
0.776013
0.815003
0.761948
0.821497
0.662629
0.814303
0.803027
0.73531
0.823442
0.818231
0.740342
0.801236
0.757561
0.881317
0.800765
0.813216
0.763029
0.800403
0.814602
0.803994
0.590741
0.821139
0.798907
0.801665
0.814851
0.82585
0.75754
0.805829
0.842055
0.827291
0.814233
0.836051
0.698095
0.700605
0.813297
0.744505
0.822484
0.771654
0.813208
0.802579
0.810635
0.75229
0.794283
0.7647
0.81022
0.803165
0.631795
0.779247
0.79929
0.849469
0.814696
0.828888
0.528075
0.825437
0.785357
0.858889
0.800988
0.818144
0.800593
0.786071
0.799034
0.825944
0.835932
0.821959
0.81741
0.706329
0.774173
0.815639
0.805431
0.810343
0.803952
0.705506
0.79309
0.803643
0.810973
0.827482
0.851352
0.832077
0.813812
0.799723
0.804465
0.802226
0.779822
0.612377
0.800638
0.73192
0.662536
0.823055
0.799115
0.777265
0.800246
0.754483
0.785423
0.811832
0.822481
0.80361
0.816309
0.817597
0.820854
0.813738
0.808714
0.712555
0.699869
0.641486
0.829513
0.869694
0.815566
0.841564
0.848008
0.863862
0.736454
0.816846
0.863145
0.810465
0.813248
0.816432
0.733289
0.812735
0.806986
0.80651
0.518866
0.813331
0.761471
0.813508
0.813869
0.80358
0.704787
0.813547
0.611362
0.825218
0.802505
0.822428
0.855325
0.803472
0.795459
0.821204
0.811912
0.805844
0.762533
0.511825
0.821164
0.803142
0.829286
0.826008
0.802417
0.80708
0.834656
0.721367
0.502513
0.886356
0.800868
0.815998
0.80437
0.709883
0.79892
0.80028
0.81538
0.736818
0.647091
0.883343
0.714637
0.836758
0.812328
0.833109
0.842851
0.792506
0.804791
0.81393
0.85292
0.738667
0.870815
0.814348
0.563733
0.802764
0.748764
0.853077
0.7607
0.804263
0.803996
0.799883
0.8017
0.809216
0.81328
0.856028
0.806283
0.80289
0.801345
0.800258
0.812615
0.817171
0.802647
0.812859
0.849381
0.803117
0.783735
0.802283
0.839995
0.725964
0.813968
0.814155
0.645402
0.713587
0.805623
0.823271
0.803883
0.513515
0.856825
0.813539
0.833379
0.805356
0.803345
0.801439
0.786548
0.587901
0.804366
0.816405
0.836125
0.820837
0.813316
0.79848
0.747507
0.801643
0.766234
0.787668
0.799609
0.791066
0.751193
0.80107
0.811791
0.810708
0.832384
0.849537
0.554522
0.842096
0.813219
0.820925
0.802218
0.822754
0.811451
0.894696
0.800464
0.867664
0.805754
0.760173
0.862247
0.802329
0.800289
0.824401
0.660989
0.645886
0.803433
0.803905
0.702466
0.654883
0.799946
0.824103
0.81339
0.822848
0.733543
0.817409
0.813196
0.826377
0.817209
0.812007
0.813239
0.754908
0.804178
0.81598
0.811705
0.676728
0.567399
0.813276
0.650566
0.722307
0.55616
0.841587
0.800377
0.528923
0.601541
0.827699
0.908127
0.818431
0.652912
0.814483
0.786715
0.801942
0.786645
0.820997
0.810381
0.788413
0.821312
0.801312
0.588644
0.818112
0.767009
0.816225
0.699931
0.822481
0.78993
0.814278
0.800336
0.663444
0.843667
0.806779
0.806924
0.495713
0.817128
0.800616
0.852637
0.710893
0.81738
0.586456
0.719938
0.801621
0.796927
0.733533
0.716164
0.715215
0.509034
0.593875
0.800287
0.51955
0.82286
0.523262
0.757505
0.672325
0.602715
0.542442
0.745774
0.803104
0.714248
0.821563
0.801098
0.803118
0.761501
0.889769
0.799334
0.82473
0.803483
0.81316
0.706402
0.807842
0.737062
0.822174
0.886136
0.833768
0.7481
0.823045
0.770806
0.879999
0.804241
0.758971
0.850854
0.777162
0.799972
0.805611
0.758543
0.745261
0.668047
0.805033
0.803048
0.818184
0.833704
0.612121
0.808234
0.539601
0.669121
0.618215
0.818858
0.821308
0.809328
0.80402
0.616334
0.872567
0.802705
0.802967
0.863658
0.812799
0.772273
0.812536
0.802405
0.81819
0.803163
0.717454
0.803563
0.656932
0.799269
0.80437
0.801631
0.639733
0.811766
0.810525
0.725779
0.818116
0.550381
0.57763
0.804197
0.69695
0.726318
0.572991
0.724224
0.81396
0.706028
0.773182
0.716212
0.813006
0.670755
0.762412
0.806591
0.810924
0.655394
0.802012
0.895237
0.796803
0.817092
0.586795
0.694328
0.801244
0.81331
0.814335
0.851805
0.812996
0.80432
0.803781
0.803375
0.714306
0.717247
0.616394
0.771832
0.534968
0.723393
0.810249
0.814724
0.80642
0.799556
0.54342
0.80939
0.8038
0.555256
0.544941
0.746929
0.803614
0.806453
0.550417
0.798385
0.570588
0.721498
0.608584
0.813729
0.802464
0.597902
0.609034
0.868022
0.810201
0.765711
0.718471
0.623203
0.655892
0.708521
0.816305
0.760077
0.765459
0.624729
0.754243
0.809628
0.815673
0.812823
0.815781
0.866182
0.7551
0.819207
0.803405
0.851435
0.813231
0.802809
0.813428
0.721886
0.813239
0.812288
0.815478
0.811454
0.816182
0.803303
0.818206
0.810694
0.810051
0.817549
0.800164
0.81688
0.81923
0.668026
0.818888
0.868543
0.81845
0.793026
0.646497
0.85873
0.819068
0.825135
0.799817
0.811582
0.757465
0.852709
0.562869
0.727522
0.809925
0.815972
0.803919
0.803397
0.832268
0.805325
0.805378
0.815573
0.780974
0.838752
0.842128
0.815455
0.664875
0.615129
0.816069
0.816908
0.788645
0.849798
0.84742
0.811177
0.813921
0.778062
0.814404
0.818114
0.81443
0.819055
0.813411
0.816127
0.851208
0.816271
0.814798
0.817841
0.81805
0.785038
0.814413
0.804328
0.804449
0.804859
0.818849
0.811848
0.788626
0.753821
0.813009
0.80633
0.809107
0.80643
0.857901
0.80356
0.814308
0.813051
0.805391
0.613037
0.803935
0.813097
0.815336
0.81038
0.813142
0.813636
0.813373
0.810235
0.864512
0.503529
0.813173
0.841839
0.813002
0.803033
0.808524
0.81531
0.839872
0.800711
0.801524
0.812812
0.703143
0.813192
0.808439
0.807659
0.812895
0.813234
0.813373
0.813698
0.513735
0.811961
0.716838
0.885933
0.821306
0.73305
0.67432
0.815668
0.803777
0.818976
0.647086
0.801788
0.81367
0.648556
0.800125
0.80417
0.815771
0.806486
0.856891
0.809906
0.607664
0.801032
0.77514
0.81129
0.889161
0.803529
0.815587
0.819508
0.83237
0.813734
0.822654
0.836536
0.635595
0.802892
0.656352
0.814072
0.813974
0.711892
0.813861
0.805098
0.712673
0.81518
0.702425
0.861215
0.784322
0.814613
0.813248
0.813758
0.66866
0.813982
0.633855
0.800401
0.792481
0.822544
0.815485
0.71667
0.766703
0.830271
0.813089
0.821484
0.822159
0.81377
0.825572
0.799749
0.55307
0.754809
0.759586
0.73095
0.837805
0.822699
0.834493
0.776423
0.802797
0.813376
0.813304
0.813306
0.774856
0.564735
0.803234
0.530434
0.808435
0.82462
0.799968
0.803798
0.813288
0.806084
0.782923
0.732459
0.81372
0.859273
0.81393
0.799539
0.736698
0.809932
0.788843
0.83388
0.506241
0.796056
0.806203
0.799146
0.69101
0.813183
0.811018
0.857579
0.56995
0.807399
0.803298
0.813151
0.614078
0.813428
0.803362
0.803437
0.803061
0.813537
0.813632
0.81639
0.813385
0.717009
0.804555
0.803229
0.813337
0.896237
0.813484
0.77429
0.841413
0.79923
0.803158
0.602101
0.813233
0.803387
0.825998
0.802042
0.866352
0.815058
0.853854
0.800609
0.820889
0.778062
0.559345
0.753149
0.794532
0.804233
0.813996
0.814119
0.556546
0.861902
0.858423
0.768856
0.757764
0.738596
0.812393
0.848764
0.81327
0.813873
0.813305
0.804317
0.726692
0.803539
0.799366
0.764114
0.824495
0.823239
0.861958
0.815934
0.813317
0.529819
0.808942
0.813277
0.800918
0.774245
0.818142
0.803132
0.813207
0.82711
0.798534
0.803764
0.801378
0.815415
0.839297
0.802632
0.799406
0.801786
0.766042
0.820121
0.568038
0.868484
0.803734
0.546812
0.803384
0.803363
0.819863
0.59632
0.606947
0.801768
0.803914
0.801089
0.860848
0.780157
0.814883
0.802974
0.866294
0.804758
0.804493
0.82649
0.8162
0.820429
0.821517
0.820571
0.867585
0.729642
0.852279
0.817465
0.654261
0.802731
0.803225
0.803679
0.821365
0.823734
0.804135
0.801313
0.800295
0.822912
0.803365
0.803655
0.799923
0.824612
0.804013
0.802099
0.806126
0.828073
0.800835
0.801736
0.824599
0.799816
0.815666
0.651869
0.826606
0.849981
0.805011
0.819823
0.803282
0.828956
0.837676
0.80343
0.821714
0.800714
0.807249
0.789637
0.802251
0.803331
0.806404
0.806046
0.804758
0.818796
0.815037
0.811309
0.831607
0.802448
0.802281
0.800151
0.789038
0.83397
0.803201
0.819552
0.815491
0.807227
0.805244
0.802971
0.839074
0.865291
0.799834
0.679438
0.801329
0.842317
0.81686
0.805418
0.804504
0.819821
0.844745
0.605159
0.829112
0.794772
0.850851
0.81898
0.812081
0.813396
0.808493
0.803996
0.812868
0.808833
0.592543
0.848136
0.794757
0.814476
0.854726
0.819527
0.763473
0.808763
0.814743
0.815719
0.803024
0.662272
0.809508
0.863275
0.802805
0.800874
0.775763
0.871316
0.800586
0.877161
0.806895
0.817424
0.820853
0.802523
0.803997
0.812926
0.816153
0.803752
0.81363
0.817012
0.881439
0.820797
0.809351
0.80042
0.828595
0.81054
0.839243
0.808972
0.80699
0.812433
0.816813
0.830082
0.813953
0.822748
0.832679
0.814473
0.700736
0.692538
0.813361
0.818
0.804106
0.813428
0.516299
0.854991
0.799982
0.806272
0.814212
0.813781
0.804011
0.812788
0.800704
0.801381
0.808252
0.814939
0.757325
0.784886
0.823166
0.843119
0.834967
0.800505
0.805336
0.803387
0.812982
0.805859
0.79978
0.800023
0.801166
0.811095
0.797894
0.803023
0.835675
0.831683
0.730572
0.696054
0.807659
0.699886
0.799777
0.575321
0.804465
0.807062
0.803348
0.818415
0.834141
0.814218
0.813182
0.810326
0.803906
0.881611
0.816533
0.805097
0.772458
0.588529
0.81029
0.806904
0.769591
0.8147
0.814169
0.79157
0.800778
0.80408
0.629103
0.830602
0.803536
0.78184
0.77948
0.852838
0.810037
0.803152
0.802898
0.810492
0.811133
0.520659
0.80193
0.839664
0.814218
0.798663
0.589919
0.814719
0.814359
0.813278
0.833917
0.814209
0.804011
0.822122
0.805899
0.576652
0.808715
0.737117
0.798563
0.813933
0.722582
0.815204
0.846422
0.831721
0.665054
0.890974
0.785722
0.777759
0.796954
0.779599
0.808786
0.850418
0.808243
0.802948
0.813848
0.80915
0.782765
0.786057
0.814166
0.808607
0.834955
0.821488
0.835797
0.801558
0.799895
0.813365
0.856747
0.816676
0.818598
0.81365
0.608035
0.795615
0.824092
0.829495
0.866014
0.81293
0.819112
0.510712
0.810035
0.800813
0.812907
0.815048
0.847726
0.813364
0.811142
0.881582
0.76485
0.812647
0.813538
0.809305
0.805269
0.814511
0.656468
0.800569
0.849677
0.833618
0.810856
0.813808
0.813669
0.809614
0.70018
0.812749
0.800449
0.838741
0.818715
0.81191
0.831489
0.793005
0.811809
0.818057
0.809104
0.819528
0.744828
0.855182
0.819205
0.814078
0.813368
0.813019
0.815967
0.817401
0.813068
0.811051
0.841232
0.818837
0.800416
0.825385
0.827133
0.816336
0.814565
0.800606
0.801655
0.813361
0.819266
0.829517
0.813116
0.816703
0.80011
0.81023
0.813154
0.81311
0.802533
0.814941
0.813627
0.803323
0.81318
0.835828
0.800087
0.809706
0.821849
0.561178
0.814492
0.818408
0.815742
0.81526
0.822188
0.829002
0.815881
0.819077
0.701891
0.813373
0.8015
0.815882
0.819284
0.835177
0.821791
0.815711
0.829567
0.825152
0.810985
0.819244
0.819848
0.804487
0.813465
0.815869
0.819569
0.832301
0.812933
0.815961
0.802749
0.813253
0.813358
0.524893
0.628867
0.814409
0.821667
0.801941
0.822677
0.816168
0.842011
0.708546
0.814034
0.731053
0.817595
0.810591
0.813468
0.829518
0.813947
0.805178
0.813238
0.830239
0.839738
0.813098
0.719594
0.819334
0.816287
0.800145
0.80305
0.815578
0.856048
0.812958
0.813672
0.849833
0.829155
0.843393
0.575437
0.829301
0.814228
0.811166
0.817649
0.850985
0.81801
0.718778
0.799799
0.83185
0.800065
0.799971
0.805522
0.748155
0.813695
0.814618
0.726035
0.814627
0.827432
0.813611
0.814305
0.799493
0.818615
0.813302
0.823862
0.808749
0.808439
0.81522
0.706424
0.819313
0.814355
0.813289
0.640841
0.718031
0.600097
0.823369
0.532575
0.854294
0.727688
0.842946
0.812827
0.723732
0.82157
0.816132
0.742886
0.807773
0.818595
0.794446
0.816769
0.816124
0.816053
0.813302
0.80817
0.803697
0.737637
0.836509
0.820389
0.816857
0.799466
0.815513
0.802311
0.816266
0.813748
0.855059
0.818013
0.4995
0.813552
0.819027
0.818901
0.778198
0.815821
0.806768
0.818648
0.845778
0.597275
0.809389
0.799585
0.815585
0.817864
0.817932
0.812757
0.818838
0.814108
0.814837
0.803104
0.814531
0.846262
0.814203
0.792048
0.811775
0.623224
0.718509
0.813374
0.817243
0.803033
0.822521
0.735512
0.803167
0.803197
0.820435
0.670923
0.81784
0.799637
0.815679
0.865207
0.785616
0.822169
0.818219
0.823095
0.814301
0.769803
0.802479
0.813854
0.902355
0.827266
0.816681
0.832307
0.809908
0.868777
0.718953
0.701383
0.8527
0.802728
0.691198