# vtk DataFile Version 1.0
unstructured grid
ascii
DATASET UNSTRUCTURED_GRID
points 14760 float
-1 0 0
-1 1 0
2 0 0
2 1 0
0 0 0
1 0 0
-1 1 0.1
-1 0 0.1
0 0 0.1
1 0 0.1
2 0 0.1
2 1 0.1
-0.99 0 0
-0.98 0 0
-0.97 0 0
-0.96 0 0
-0.95 0 0
-0.94 0 0
-0.93 0 0
-0.92 0 0
-0.91 0 0
-0.9 0 0
-0.89 0 0
-0.88 0 0
-0.87 0 0
-0.86 0 0
-0.85 0 0
-0.84 0 0
-0.83 0 0
-0.82 0 0
-0.81 0 0
-0.8 0 0
-0.79 0 0
-0.78 0 0
-0.77 0 0
-0.76 0 0
-0.75 0 0
-0.74 0 0
-0.73 0 0
-0.72 0 0
-0.71 0 0
-0.7 0 0
-0.69 0 0
-0.68 0 0
-0.67 0 0
-0.66 0 0
-0.65 0 0
-0.64 0 0
-0.63 0 0
-0.62 0 0
-0.61 0 0
-0.6 0 0
-0.59 0 0
-0.58 0 0
-0.57 0 0
-0.56 0 0
-0.55 0 0
-0.54 0 0
-0.53 0 0
-0.52 0 0
-0.51 0 0
-0.5 0 0
-0.49 0 0
-0.48 0 0
-0.47 0 0
-0.46 0 0
-0.45 0 0
-0.44 0 0
-0.43 0 0
-0.42 0 0
-0.41 0 0
-0.4 0 0
-0.39 0 0
-0.38 0 0
-0.37 0 0
-0.36 0 0
-0.35 0 0
-0.34 0 0
-0.33 0 0
-0.32 0 0
-0.31 0 0
-0.3 0 0
-0.29 0 0
-0.28 0 0
-0.27 0 0
-0.26 0 0
-0.25 0 0
-0.24 0 0
-0.23 0 0
-0.22 0 0
-0.21 0 0
-0.2 0 0
-0.19 0 0
-0.18 0 0
-0.17 0 0
-0.16 0 0
-0.15 0 0
-0.14 0 0
-0.13 0 0
-0.12 0 0
-0.11 0 0
-0.1 0 0
-0.09 0 0
-0.08 0 0
-0.07 0 0
-0.06 0 0
-0.05 0 0
-0.04 0 0
-0.03 0 0
-0.02 0 0
-0.01 0 0
1.01 0 0
1.02 0 0
1.03 0 0
1.04 0 0
1.05 0 0
1.06 0 0
1.07 0 0
1.08 0 0
1.09 0 0
1.1 0 0
1.11 0 0
1.12 0 0
1.13 0 0
1.14 0 0
1.15 0 0
1.16 0 0
1.17 0 0
1.18 0 0
1.19 0 0
1.2 0 0
1.21 0 0
1.22 0 0
1.23 0 0
1.24 0 0
1.25 0 0
1.26 0 0
1.27 0 0
1.28 0 0
1.29 0 0
1.3 0 0
1.31 0 0
1.32 0 0
1.33 0 0
1.34 0 0
1.35 0 0
1.36 0 0
1.37 0 0
1.38 0 0
1.39 0 0
1.4 0 0
1.41 0 0
1.42 0 0
1.43 0 0
1.44 0 0
1.45 0 0
1.46 0 0
1.47 0 0
1.48 0 0
1.49 0 0
1.5 0 0
1.51 0 0
1.52 0 0
1.53 0 0
1.54 0 0
1.55 0 0
1.56 0 0
1.57 0 0
1.58 0 0
1.59 0 0
1.6 0 0
1.61 0 0
1.62 0 0
1.63 0 0
1.64 0 0
1.65 0 0
1.66 0 0
1.67 0 0
1.68 0 0
1.69 0 0
1.7 0 0
1.71 0 0
1.72 0 0
1.73 0 0
1.74 0 0
1.75 0 0
1.76 0 0
1.77 0 0
1.78 0 0
1.79 0 0
1.8 0 0
1.81 0 0
1.82 0 0
1.83 0 0
1.84 0 0
1.85 0 0
1.86 0 0
1.87 0 0
1.88 0 0
1.89 0 0
1.9 0 0
1.91 0 0
1.92 0 0
1.93 0 0
1.94 0 0
1.95 0 0
1.96 0 0
1.97 0 0
1.98 0 0
1.99 0 0
2 0.0100088 0
2 0.0204183 0
2 0.0312446 0
2 0.0425043 0
2 0.0542147 0
2 0.066394 0
2 0.079061 0
2 0.092235 0
2 0.105936 0
2 0.120186 0
2 0.135007 0
2 0.150421 0
2 0.166452 0
2 0.183124 0
2 0.200465 0
2 0.218499 0
2 0.237256 0
2 0.256763 0
2 0.277051 0
2 0.298152 0
2 0.320097 0
2 0.342921 0
2 0.366659 0
2 0.391347 0
2 0.417024 0
2 0.443728 0
2 0.471502 0
2 0.500387 0
2 0.530429 0
2 0.561674 0
2 0.594169 0
2 0.627966 0
2 0.663115 0
2 0.699672 0
2 0.737692 0
2 0.777235 0
2 0.818361 0
2 0.861133 0
2 0.905617 0
2 0.951882 0
1.95 1 0
1.9 1 0
1.85 1 0
1.8 1 0
1.75 1 0
1.7 1 0
1.65 1 0
1.6 1 0
1.55 1 0
1.5 1 0
1.45 1 0
1.4 1 0
1.35 1 0
1.3 1 0
1.25 1 0
1.2 1 0
1.15 1 0
1.1 1 0
1.05 1 0
1 1 0
0.95 1 0
0.9 1 0
0.85 1 0
0.8 1 0
0.75 1 0
0.7 1 0
0.65 1 0
0.6 1 0
0.55 1 0
0.5 1 0
0.45 1 0
0.4 1 0
0.35 1 0
0.3 1 0
0.25 1 0
0.2 1 0
0.15 1 0
0.1 1 0
0.05 1 0
3.69793e-12 1 0
-0.05 1 0
-0.1 1 0
-0.15 1 0
-0.2 1 0
-0.25 1 0
-0.3 1 0
-0.35 1 0
-0.4 1 0
-0.45 1 0
-0.5 1 0
-0.55 1 0
-0.6 1 0
-0.65 1 0
-0.7 1 0
-0.75 1 0
-0.8 1 0
-0.85 1 0
-0.9 1 0
-0.95 1 0
-1 0.951882 0
-1 0.905617 0
-1 0.861133 0
-1 0.818361 0
-1 0.777235 0
-1 0.737692 0
-1 0.699672 0
-1 0.663115 0
-1 0.627966 0
-1 0.594169 0
-1 0.561674 0
-1 0.530429 0
-1 0.500387 0
-1 0.471502 0
-1 0.443728 0
-1 0.417024 0
-1 0.391347 0
-1 0.366659 0
-1 0.342921 0
-1 0.320097 0
-1 0.298152 0
-1 0.277051 0
-1 0.256763 0
-1 0.237256 0
-1 0.218499 0
-1 0.200465 0
-1 0.183124 0
-1 0.166452 0
-1 0.150421 0
-1 0.135007 0
-1 0.120186 0
-1 0.105936 0
-1 0.092235 0
-1 0.079061 0
-1 0.066394 0
-1 0.0542147 0
-1 0.0425043 0
-1 0.0312446 0
-1 0.0204183 0
-1 0.0100088 0
0.00921362 0.00379763 0
0.0184561 0.00752451 0
0.0277268 0.0111804 0
0.0370253 0.0147652 0
0.0463511 0.0182786 0
0.0557034 0.0217203 0
0.0650819 0.0250903 0
0.074486 0.0283883 0
0.083915 0.0316141 0
0.0933685 0.0347675 0
0.102846 0.0378484 0
0.112347 0.0408565 0
0.12187 0.0437917 0
0.131416 0.0466538 0
0.140983 0.0494427 0
0.150572 0.0521581 0
0.160181 0.0547999 0
0.16981 0.0573681 0
0.179458 0.0598623 0
0.189125 0.0622825 0
0.198811 0.0646285 0
0.208514 0.0669001 0
0.218234 0.0690974 0
0.227971 0.07122 0
0.237724 0.073268 0
0.247493 0.0752411 0
0.257276 0.0771393 0
0.267073 0.0789625 0
0.276884 0.0807105 0
0.286708 0.0823832 0
0.296545 0.0839806 0
0.306394 0.0855025 0
0.316254 0.0869488 0
0.326125 0.0883196 0
0.336006 0.0896146 0
0.345896 0.0908339 0
0.355796 0.0919773 0
0.365704 0.0930447 0
0.375621 0.0940362 0
0.385544 0.0949517 0
0.395474 0.095791 0
0.40541 0.0965542 0
0.415352 0.0972412 0
0.425299 0.097852 0
0.43525 0.0983865 0
0.445205 0.0988447 0
0.455164 0.0992266 0
0.465125 0.0995321 0
0.475088 0.0997613 0
0.485052 0.0999141 0
0.495017 0.0999904 0
0.504983 0.0999904 0
0.514948 0.0999141 0
0.524912 0.0997613 0
0.534875 0.0995321 0
0.544836 0.0992266 0
0.554795 0.0988447 0
0.56475 0.0983865 0
0.574701 0.097852 0
0.584648 0.0972412 0
0.59459 0.0965542 0
0.604526 0.095791 0
0.614456 0.0949517 0
0.624379 0.0940362 0
0.634296 0.0930447 0
0.644204 0.0919773 0
0.654104 0.0908339 0
0.663994 0.0896146 0
0.673875 0.0883196 0
0.683746 0.0869488 0
0.693606 0.0855025 0
0.703455 0.0839806 0
0.713292 0.0823832 0
0.723116 0.0807105 0
0.732927 0.0789625 0
0.742724 0.0771393 0
0.752508 0.0752411 0
0.762276 0.073268 0
0.772029 0.07122 0
0.781766 0.0690974 0
0.791486 0.0669001 0
0.801189 0.0646285 0
0.810875 0.0622825 0
0.820542 0.0598623 0
0.83019 0.0573681 0
0.839819 0.0547999 0
0.849428 0.0521581 0
0.859017 0.0494427 0
0.868584 0.0466538 0
0.87813 0.0437917 0
0.887653 0.0408565 0
0.897154 0.0378484 0
0.906631 0.0347675 0
0.916085 0.0316141 0
0.925514 0.0283883 0
0.934918 0.0250903 0
0.944297 0.0217203 0
0.953649 0.0182786 0
0.962975 0.0147652 0
0.972273 0.0111804 0
0.981544 0.00752451 0
0.990786 0.00379763 0
-1 0.951882 0.1
-1 0.905617 0.1
-1 0.861133 0.1
-1 0.818361 0.1
-1 0.777235 0.1
-1 0.737692 0.1
-1 0.699672 0.1
-1 0.663115 0.1
-1 0.627966 0.1
-1 0.594169 0.1
-1 0.561674 0.1
-1 0.530429 0.1
-1 0.500387 0.1
-1 0.471502 0.1
-1 0.443728 0.1
-1 0.417024 0.1
-1 0.391347 0.1
-1 0.366659 0.1
-1 0.342921 0.1
-1 0.320097 0.1
-1 0.298152 0.1
-1 0.277051 0.1
-1 0.256763 0.1
-1 0.237256 0.1
-1 0.218499 0.1
-1 0.200465 0.1
-1 0.183124 0.1
-1 0.166452 0.1
-1 0.150421 0.1
-1 0.135007 0.1
-1 0.120186 0.1
-1 0.105936 0.1
-1 0.092235 0.1
-1 0.079061 0.1
-1 0.066394 0.1
-1 0.0542147 0.1
-1 0.0425043 0.1
-1 0.0312446 0.1
-1 0.0204183 0.1
-1 0.0100088 0.1
-0.99 0 0.1
-0.98 0 0.1
-0.97 0 0.1
-0.96 0 0.1
-0.95 0 0.1
-0.94 0 0.1
-0.93 0 0.1
-0.92 0 0.1
-0.91 0 0.1
-0.9 0 0.1
-0.89 0 0.1
-0.88 0 0.1
-0.87 0 0.1
-0.86 0 0.1
-0.85 0 0.1
-0.84 0 0.1
-0.83 0 0.1
-0.82 0 0.1
-0.81 0 0.1
-0.8 0 0.1
-0.79 0 0.1
-0.78 0 0.1
-0.77 0 0.1
-0.76 0 0.1
-0.75 0 0.1
-0.74 0 0.1
-0.73 0 0.1
-0.72 0 0.1
-0.71 0 0.1
-0.7 0 0.1
-0.69 0 0.1
-0.68 0 0.1
-0.67 0 0.1
-0.66 0 0.1
-0.65 0 0.1
-0.64 0 0.1
-0.63 0 0.1
-0.62 0 0.1
-0.61 0 0.1
-0.6 0 0.1
-0.59 0 0.1
-0.58 0 0.1
-0.57 0 0.1
-0.56 0 0.1
-0.55 0 0.1
-0.54 0 0.1
-0.53 0 0.1
-0.52 0 0.1
-0.51 0 0.1
-0.5 0 0.1
-0.49 0 0.1
-0.48 0 0.1
-0.47 0 0.1
-0.46 0 0.1
-0.45 0 0.1
-0.44 0 0.1
-0.43 0 0.1
-0.42 0 0.1
-0.41 0 0.1
-0.4 0 0.1
-0.39 0 0.1
-0.38 0 0.1
-0.37 0 0.1
-0.36 0 0.1
-0.35 0 0.1
-0.34 0 0.1
-0.33 0 0.1
-0.32 0 0.1
-0.31 0 0.1
-0.3 0 0.1
-0.29 0 0.1
-0.28 0 0.1
-0.27 0 0.1
-0.26 0 0.1
-0.25 0 0.1
-0.24 0 0.1
-0.23 0 0.1
-0.22 0 0.1
-0.21 0 0.1
-0.2 0 0.1
-0.19 0 0.1
-0.18 0 0.1
-0.17 0 0.1
-0.16 0 0.1
-0.15 0 0.1
-0.14 0 0.1
-0.13 0 0.1
-0.12 0 0.1
-0.11 0 0.1
-0.1 0 0.1
-0.09 0 0.1
-0.08 0 0.1
-0.07 0 0.1
-0.06 0 0.1
-0.05 0 0.1
-0.04 0 0.1
-0.03 0 0.1
-0.02 0 0.1
-0.01 0 0.1
0.00921362 0.00379763 0.1
0.0184561 0.00752451 0.1
0.0277268 0.0111804 0.1
0.0370253 0.0147652 0.1
0.0463511 0.0182786 0.1
0.0557034 0.0217203 0.1
0.0650819 0.0250903 0.1
0.074486 0.0283883 0.1
0.083915 0.0316141 0.1
0.0933685 0.0347675 0.1
0.102846 0.0378484 0.1
0.112347 0.0408565 0.1
0.12187 0.0437917 0.1
0.131416 0.0466538 0.1
0.140983 0.0494427 0.1
0.150572 0.0521581 0.1
0.160181 0.0547999 0.1
0.16981 0.0573681 0.1
0.179458 0.0598623 0.1
0.189125 0.0622825 0.1
0.198811 0.0646285 0.1
0.208514 0.0669001 0.1
0.218234 0.0690974 0.1
0.227971 0.07122 0.1
0.237724 0.073268 0.1
0.247493 0.0752411 0.1
0.257276 0.0771393 0.1
0.267073 0.0789625 0.1
0.276884 0.0807105 0.1
0.286708 0.0823832 0.1
0.296545 0.0839806 0.1
0.306394 0.0855025 0.1
0.316254 0.0869488 0.1
0.326125 0.0883196 0.1
0.336006 0.0896146 0.1
0.345896 0.0908339 0.1
0.355796 0.0919773 0.1
0.365704 0.0930447 0.1
0.375621 0.0940362 0.1
0.385544 0.0949517 0.1
0.395474 0.095791 0.1
0.40541 0.0965542 0.1
0.415352 0.0972412 0.1
0.425299 0.097852 0.1
0.43525 0.0983865 0.1
0.445205 0.0988447 0.1
0.455164 0.0992266 0.1
0.465125 0.0995321 0.1
0.475088 0.0997613 0.1
0.485052 0.0999141 0.1
0.495017 0.0999904 0.1
0.504983 0.0999904 0.1
0.514948 0.0999141 0.1
0.524912 0.0997613 0.1
0.534875 0.0995321 0.1
0.544836 0.0992266 0.1
0.554795 0.0988447 0.1
0.56475 0.0983865 0.1
0.574701 0.097852 0.1
0.584648 0.0972412 0.1
0.59459 0.0965542 0.1
0.604526 0.095791 0.1
0.614456 0.0949517 0.1
0.624379 0.0940362 0.1
0.634296 0.0930447 0.1
0.644204 0.0919773 0.1
0.654104 0.0908339 0.1
0.663994 0.0896146 0.1
0.673875 0.0883196 0.1
0.683746 0.0869488 0.1
0.693606 0.0855025 0.1
0.703455 0.0839806 0.1
0.713292 0.0823832 0.1
0.723116 0.0807105 0.1
0.732927 0.0789625 0.1
0.742724 0.0771393 0.1
0.752508 0.0752411 0.1
0.762276 0.073268 0.1
0.772029 0.07122 0.1
0.781766 0.0690974 0.1
0.791486 0.0669001 0.1
0.801189 0.0646285 0.1
0.810875 0.0622825 0.1
0.820542 0.0598623 0.1
0.83019 0.0573681 0.1
0.839819 0.0547999 0.1
0.849428 0.0521581 0.1
0.859017 0.0494427 0.1
0.868584 0.0466538 0.1
0.87813 0.0437917 0.1
0.887653 0.0408565 0.1
0.897154 0.0378484 0.1
0.906631 0.0347675 0.1
0.916085 0.0316141 0.1
0.925514 0.0283883 0.1
0.934918 0.0250903 0.1
0.944297 0.0217203 0.1
0.953649 0.0182786 0.1
0.962975 0.0147652 0.1
0.972273 0.0111804 0.1
0.981544 0.00752451 0.1
0.990786 0.00379763 0.1
1.01 0 0.1
1.02 0 0.1
1.03 0 0.1
[...]
CELL_DATA 14313
SCALARS rho float
LOOKUP_TABLE default
0.794172
0.828857
0.811386
0.6078
0.784721
0.835991
0.833359
0.833736
0.815479
0.819918
0.836136
0.804315
0.801336
0.678708
0.832492
0.841864
0.813528
0.812748
0.828594
0.810931
0.834724
0.818435
0.833531
0.784558
0.832419
0.819446
0.758664
0.712582
0.828352
0.835071
0.834615
0.800562
0.806552
0.832405
0.807887
0.828896
0.714725
0.813661
0.832141
0.805082
0.76968
0.834213
0.610624
0.731417
0.831882
0.842334
0.830482
0.788837
0.815526
0.856152
0.711166
0.681943
0.686796
0.828829
0.832238
0.793237
0.831868
0.819209
0.815254
0.832447
0.835775
0.832496
0.80054
0.845462
0.83418
0.831692
0.85795
0.794107
0.848874
0.832487
0.803893
0.841504
0.667565
0.845477
0.758634
0.821578
0.830522
0.762946
0.718636
0.834317
0.634874
0.835408
0.839912
0.805274
0.820102
0.832805
0.835911
0.807539
0.834076
0.812185
0.791452
0.680488
0.811856
0.803202
0.758663
0.80646
0.831274
0.83086
0.806028
0.669212
0.819305
0.830516
0.833451
0.823341
0.766048
0.813811
0.80582
0.721009
0.843457
0.828454
0.81834
0.836395
0.828756
0.832844
0.806627
0.837949
0.832379
0.844631
0.790723
0.803708
0.83201
0.831177
0.863764
0.754355
0.848417
0.773565
0.802789
0.807575
0.831422
0.84799
0.829396
0.834513
0.864902
0.833705
0.835496
0.793176
0.814583
0.799891
0.831938
0.832056
0.833359
0.830042
0.804207
0.80552
0.803509
0.847625
0.809539
0.776317
0.806617
0.832046
0.802787
0.805183
0.833534
0.736268
0.832442
0.806441
0.741877
0.834071
0.833003
0.816485
0.832477
0.813161
0.725055
0.77442
0.835391
0.830215
0.73986
0.831515
0.838696
0.821883
0.721021
0.820579
0.735517
0.801408
0.824954
0.831915
0.825139
0.824502
0.833977
0.767184
0.834388
0.829446
0.786892
0.778902
0.798739
0.818552
0.832552
0.803883
0.646356
0.799293
0.778011
0.768116
0.781631
0.754163
0.832409
0.830025
0.811821
0.805057
0.822887
0.831855
0.776152
0.805882
0.839085
0.831458
0.842639
0.805565
0.8209
0.818722
0.833068
0.841402
0.809936
0.822721
0.807112
0.722353
0.830845
0.827814
0.830432
0.813498
0.843306
0.807583
0.80515
0.823489
0.822782
0.861423
0.820893
0.805882
0.832322
0.803582
0.833729
0.773519
0.721546
0.819588
0.719647
0.837836
0.803566
0.754788
0.829859
0.830752
0.829917
0.832047
0.799427
0.711088
0.769564
0.694254
0.831073
0.742504
0.806142
0.811256
0.845734
0.821556
0.63123
0.806594
0.752385
0.846311
0.806056
0.725304
0.823048
0.837608
0.831317
0.656483
0.817739
0.805977
0.812876
0.81879
0.80031
0.787228
0.820171
0.819979
0.675236
0.831422
0.830883
0.784885
0.807597
0.836305
0.791036
0.830375
0.798108
0.740338
0.808843
0.809384
0.62547
0.607793
0.777203
0.825039
0.833685
0.798385
0.836148
0.831471
0.787636
0.81
0.805326
0.831816
0.840049
0.80602
0.812674
0.818291
0.709831
0.827104
0.747756
0.802855
0.799784
0.786149
0.844237
0.813742
0.801114
0.717981
0.713207
0.814798
0.811953
0.823942
0.808204
0.804873
0.680954
0.831041
0.826837
0.822455
0.836215
0.830341
0.806298
0.801927
0.831544
0.702446
0.826969
0.834212
0.831312
0.83147
0.781454
0.832605
0.803394
0.831524
0.830155
0.762585
0.772925
0.804384
0.804339
0.677742
0.833282
0.818401
0.813417
0.829899
0.807704
0.805078
0.751621
0.734575
0.831348
0.76405
0.77891
0.825676
0.846426
0.831215
0.807624
0.812782
0.833602
0.807679
0.831951
0.797666
0.831928
0.816307
0.831256
0.806335
0.829014
0.805148
0.835252
0.63282
0.802581
0.803956
0.818623
0.822343
0.782613
0.807188
0.833832
0.833446
0.832371
0.781828
0.822773
0.819667
0.773852
0.77024
0.81737
0.820341
0.839847
0.836492
0.827821
0.810031
0.693042
0.793688
0.665782
0.807793
0.808559
0.815584
0.830702
0.877656
0.616874
0.675108
0.846319
0.875738
0.828808
0.712849
0.808356
0.755186
0.820605
0.821792
0.727344
0.684757
0.769551
0.830471
0.676174
0.877212
0.836148
0.812449
0.813253
0.665305
0.766179
0.794571
0.83218
0.810744
0.805511
0.840564
0.833823
0.737497
0.720848
0.803434
0.810371
0.832933
0.835193
0.813926
0.83578
0.758537
0.799059
0.803203
0.805008
0.780226
0.832203
0.813151
0.832403
0.835095
0.775884
0.809029
0.806448
0.806724
0.834604
0.828191
0.819928
0.700444
0.796605
0.828426
0.817411
0.827116
0.811538
0.83062
0.812006
0.832064
0.832795
0.698918
0.861269
0.760102
0.833796
0.817383
0.755033
0.832205
0.804472
0.836865
0.611412
0.806584
0.716496
0.835681
0.813707
0.673821
0.806844
0.807808
0.803802
0.808202
0.81546
0.78649
0.835418
0.673487
0.809955
0.810063
0.80648
0.831608
0.780163
0.835605
0.830933
0.803694
0.831618
0.80099
0.804272
0.833727
0.665807
0.783799
0.757528
0.650946
0.836488
0.638263
0.807729
0.832704
0.862581
0.73668
0.766137
0.834589
0.810075
0.805646
0.807133
0.78343
0.830537
0.833562
0.805025
0.832043
0.821915
0.674213
0.832377
0.831684
0.810621
0.833961
0.668931
0.829933
0.833924
0.747515
0.797538
0.832006
0.805159
0.835168
0.838519
0.806995
0.751333
0.664842
0.8309
0.625852
0.804256
0.804036
0.781794
0.836264
0.769757
0.833837
0.811893
0.804147
0.649127
0.830781
0.838307
0.840922
0.824007
0.805166
0.804285
0.832715
0.767237
0.854275
0.842942
0.74833
0.803582
0.682378
0.789578
0.701503
0.82854
0.842976
0.805788
0.700091
0.783349
0.831562
0.83614
0.84075
0.822966
0.734405
0.612147
0.810683
0.830855
0.806231
0.822328
0.815718
0.784304
0.856198
0.830064
0.806404
0.831065
0.804188
0.752575
0.804359
0.817887
0.649365
0.71211
0.807905
0.834675
0.80776
0.626322
0.831622
0.643916
0.833518
0.781712
0.82786
0.830916
0.764656
0.820403
0.804719
0.808396
0.842195
0.843951
0.83834
0.808206
0.831589
0.642765
0.833196
0.862758
0.832787
0.839656
0.806733
0.833454
0.802523
0.846162
0.813664
0.818974
0.72346
0.708741
0.845036
0.831791
0.846816
0.748645
0.806163
0.778775
0.801801
0.814485
0.805404
0.821491
0.832216
0.835146
0.838537
0.84054
0.809806
0.758978
0.81768
0.764126
0.807658
0.832228
0.80413
0.819717
0.777115
0.80958
0.810397
0.853936
0.8251
0.804162
0.812048
0.843874
0.83975
0.805058
0.862322
0.803894
0.833057
0.72617
0.804164
0.805124
0.8054
0.841823
0.647281
0.810688
0.809047
0.701828
0.831452
0.839742
0.831496
0.804062
0.810354
0.807299
0.830948
0.805507
0.724644
0.623431
0.831918
0.820461
0.805319
0.8086
0.80773
0.808124
0.830685
0.804454
0.831716
0.633879
0.830622
0.813871
0.833372
0.849307
0.831548
0.838367
0.83506
0.802891
0.832624
0.70581
0.808002
0.856475
0.832569
0.799566
0.831218
0.669931
0.809769
0.696584
0.729129
0.724356
0.813954
0.830751
0.816997
0.647708
0.717035
0.805048
0.841014
0.763629
0.837673
0.80842
0.812442
0.810707
0.705466
0.773109
0.655084
0.805083
0.836104
0.810314
0.829887
0.695538
0.700479
0.859074
0.806488
0.831213
0.763932
0.831803
0.617965
0.83355
0.704799
0.831444
0.830975
0.803599
0.805446
0.836865
0.805604
0.808221
0.817636
0.667899
0.811796
0.706173
0.804334
0.804659
0.831685
0.819797
0.748137
0.829707
0.763644
0.804439
0.726656
0.811139
0.755274
0.696865
0.836244
0.833442
0.805969
0.752201
0.817526
0.690586
0.827869
0.804354
0.734091
0.83736
0.831025
0.711042
0.71846
0.837319
0.805301
0.7514
0.837727
0.844231
0.845359
0.835717
0.609754
0.766783
0.829073
0.833244
0.686968
0.672944
0.821626
0.833266
0.758211
0.78978
0.83541
0.81982
0.77893
0.832504
0.831833
0.804878
0.761312
0.807057
0.810753
0.826964
0.639016
0.809004
0.8345
0.625151
0.831458
0.851765
0.83609
0.70076
0.835389
0.831797
0.835108
0.804633
0.832675
0.808742
0.811171
0.808281
0.804145
0.830976
0.679626
0.824204
0.815519
0.740734
0.677182
0.795645
0.804809
0.835035
0.764207
0.701222
0.833635
0.797584
0.835315
0.833952
0.83165
0.836815
0.76381
0.688429
0.835555
0.842967
0.836098
0.706542
0.816006
0.74785
0.831237
0.828172
0.836138
0.831922
0.806608
0.832218
0.812677
0.767524
0.830046
0.83287
0.770267
0.799614
0.746531
0.696472
0.759729
0.795799
0.829802
0.833855
0.817188
0.827843
0.804162
0.80815
0.812263
0.70507
0.763054
0.834706
0.805143
0.807845
0.822761
0.678742
0.831624
0.806742
0.850178
0.826845
0.698451
0.801048
0.806427
0.848469
0.739808
0.651664
0.630397
0.66682
0.830923
0.810237
0.660076
0.692868
0.833408
0.834297
0.890996
0.807775
0.836799
0.833197
0.777981
0.831067
0.832173
0.835107
0.831178
0.836111
0.802278
0.828875
0.72322
0.830858
0.805306
0.824053
0.764481
0.831819
0.646444
0.860744
0.806194
0.83705
0.836334
0.812166
0.756176
0.829537
0.829573
0.841184
0.835607
0.830847
0.708491
0.836757
0.83427
0.832794
0.84328
0.835064
0.613729
0.801001
0.808667
0.818723
0.821392
0.806214
0.802718
0.831472
0.782181
0.811056
0.831521
0.867452
0.84138
0.68507
0.808732
0.771767
0.83141
0.77893
0.832668
0.807935
0.810852
0.833758
0.800241
0.818005
0.819974
0.826589
0.796008
0.733385
0.761601
0.747421
0.829978
0.8425
0.843153
0.761277
0.825255
0.763618
0.669815
0.835524
0.802673
0.835948
0.804997
0.699819
0.807552
0.788967
0.747751
0.834313
0.755075
0.813979
0.830247
0.865308
0.814575
0.812431
0.756403
0.833094
0.788423
0.847036
0.885999
0.802461
0.624656
0.804833
0.667821
0.784948
0.685857
0.804326
0.669174
0.831451
0.856154
0.810338
0.834572
0.83288
0.810575
0.804259
0.727203
0.830176
0.833271
0.807441
0.821299
0.80007
0.805092
0.819316
0.697988
0.831762
0.807486
0.851672
0.825448
0.810081
0.806416
0.830088
0.830287
0.824054
0.804927
0.800266
0.834548
0.80592
0.808064
0.831757
0.787472
0.624531
0.832804
0.832433
0.809813
0.73088
0.80869
0.82068
0.80454
0.743529
0.879242
0.836049
0.830195
0.835524
0.852758
0.790881
0.834744
0.800271
0.829948
0.83467
0.692431
0.834609
0.748971
0.82343
0.757793
0.80649
0.772912
0.807711
0.686743
0.83048
0.741777
0.661279
0.829243
0.691086
0.77756
0.831682
0.833825
0.790127
0.833538
0.758135
0.671123
0.836937
0.678559
0.83178
0.784004
0.803537
0.812154
0.831846
0.68133
0.80753
0.781834
0.833455
0.829593
0.835859
0.810577
0.719717
0.77023
0.704367
0.804586
0.81075
0.835907
0.829846
0.816442
0.835532
0.833334
0.697718
0.750215
0.68058
0.740829
0.831587
0.8145
0.842806
0.813867
0.831398
0.698443
0.880302
0.831476
0.837446
0.643456
0.834995
0.834344
0.849
0.85189
0.834202
0.835646
0.833535
0.618387
0.810426
0.828483
0.717223
0.831136
0.808821
0.834708
0.812257
0.832125
0.830819
0.78511
0.724639
0.80333
0.802851
0.644524
0.831422
0.864619
0.8311
0.727959
0.828448
0.831712
0.833155
0.841892
0.679823
0.655933
0.807854
0.847493
0.809763
0.808436
0.831341
0.806899
0.816914
0.830743
0.802748
0.806731
0.808201
0.83309
0.808959
0.811471
0.805123
0.840067
0.840718
0.859574
0.832489
0.823923
0.831074
0.832377
0.835413
0.831566
0.829998
0.840712
0.812922
0.831438
0.70082
0.840628
0.699959
0.872375
0.805555
0.840103
0.80604
0.795416
0.799388
0.750134
0.827167
0.815829
0.819196
0.831828
0.788422
0.826593
0.635245
0.810662
0.832336
0.831341
0.80268
0.834117
0.647457
0.793815
0.615428
0.832272
0.801605
0.787152
0.80826
0.830975
0.833364
0.833087
0.745124
0.825419
0.834992
0.81692
0.805545
0.80773
0.756611
0.78516
0.815439
0.806653
0.746501
0.651082
0.644991
0.848301
0.809706
0.791207
0.791767
0.828158
0.80506
0.806054
0.832374
0.790571
0.766906
0.831649
0.813836
0.817292
0.843673
0.810439
0.835542
0.81245
0.653415
0.805069
0.835125
0.78756
0.832259
0.83139
0.836986
0.69955
0.713853
0.650115
0.835569
0.830124
0.763358
0.816656
0.70625
0.821405
0.816339
0.835882
0.807893
0.816451
0.629085
0.722296
0.818703
0.832009
0.800506
0.816264
0.838805
0.805267
0.805979
0.710081
0.820982
0.835948
0.807463
0.833743
0.804337
0.672018
0.821919
0.833637
0.629108
0.746827
0.80761
0.833855
0.741705
0.807912
0.801213
0.834734
0.767774
0.711051
0.83387
0.802372
0.803953
0.77905
0.645482
0.831956
0.703193
0.770434
0.738178
0.806068
0.801914
0.835083
0.709981
0.781841
0.808064
0.831475
0.636168
0.805714
0.829503
0.820966
0.653971
0.809992
0.793467
0.751425
0.75059
0.805343
0.83293
0.832275
0.825099
0.748091
0.756859
0.67589
0.842294
0.84875
0.830507
0.796663
0.868989
0.742541
0.831954
0.782304
0.798361
0.802611
0.835889
0.807194
0.8347
0.794463
0.774917
0.833282
0.801458
0.849938
0.738741
0.798115
0.809685
0.741757
0.808026
0.8311
0.627845
0.80609
0.805949
0.804311
0.834108
0.780857
0.806636
0.743545
0.834788
0.813205
0.746399
0.834738
0.830681
0.83938
0.810944
0.798553
0.802342
0.80995
0.732452
0.833408
0.807665
0.7174
0.811436
0.791598
0.840003
0.829593
0.831966
0.847935
0.853263
0.744857
0.831671
0.806378
0.795976
0.652908
0.827687
0.819209
0.834276
0.791248
0.858759
0.840411
0.792168
0.84854
0.788263
0.803916
0.786514
0.834214
0.742849
0.670585
0.850852
0.706582
0.799576
0.845932
0.833282
0.709697
0.813667
0.76732
0.806712
0.80405
0.796216
0.807482
0.807454
0.807606
0.806677
0.795136
0.83422
0.793846
0.831685
0.812731
0.748143
0.795617
0.81972
0.833345
0.810174
0.61955
0.829698
0.828538
0.832525
0.750177
0.810474
0.803173
0.807075
0.831586
0.755094
0.831557
0.814001
0.815333
0.775213
0.833839
0.817194
0.81151
0.784033
0.814307
0.829907
0.812299
0.826157
0.821565
0.809718
0.835057
0.808102
0.800347
0.823341
0.834228
0.822551
0.794509
0.72652
0.831374
0.816951
0.808176
0.764865
0.797164
0.682906
0.804095
0.617194
0.804344
0.83147
0.783387
0.843525
0.684456
0.828067
0.755807
0.833911
0.608494
0.809648
0.833543
0.831099
0.832728
0.760515
0.849284
0.653972
0.83248
0.713396
0.806089
0.677616
0.698167
0.832145
0.835411
0.763379
0.808466
0.825691
0.648501
0.831086
0.778108
0.843238
0.835521
0.820109
0.831737
0.806655
0.842204
0.816464
0.807857
0.671598
0.804333
0.851102
0.804998
0.816342
0.78198
0.811377
0.834218
0.834526
0.801532
0.751481
0.827698
0.831323
0.64271
0.806783
0.694772
0.831536
0.678065
0.835319
0.785616
0.715734
0.74057
0.790355
0.742327
0.848081
0.818579
0.807672
0.806484
0.726371
0.806443
0.801076
0.803695
0.825391
0.815084
0.737904
0.737406
0.80561
0.786207
0.61613
0.833507
0.727361
0.801604
0.702567
0.834392
0.830664
0.836747
0.819927
0.84127
0.81517
0.688571
0.833747
0.814934
0.807147
0.831499
0.835318
0.831301
0.819116
0.836217
0.831722
0.673404
0.807641
0.803978
0.832451
0.715164
0.806366
0.829168
0.771589
0.713712
0.818175
0.73797
0.75137
0.816184
0.832653
0.697299
0.848782
0.783419
0.808725
0.800919
0.833491
0.851891
0.806873
0.67671
0.831393
0.691534
0.675531
0.785154
0.778264
0.784017
0.834353
0.804491
0.827716
0.836359
0.631521
0.794789
0.836891
0.834705
0.645101
0.75947
0.706472
0.83181
0.83072
0.713732
0.806338
0.832677
0.804995
0.839678
0.683627
0.848799
0.748634
0.832219
0.833184
0.731826
0.831246
0.72514
0.802719
0.720418
0.818015
0.79944
0.68103
0.745468
0.747704
0.841061
0.830999
0.833052
0.83471
0.804065
0.813695
0.808772
0.828253
0.808203
0.738395
0.809345
0.643633
0.791654
0.811309
0.807529
0.83434
0.836153
0.804168
0.753331
0.693287
0.706431
0.804609
0.822222
0.756854
0.704175
0.769862
0.834368
0.80599
0.775275
0.808781
0.831074
0.76816
0.621814
0.712089
0.802588
0.834401
0.869033
0.821131
0.835403
0.857384
0.804719
0.807215
0.831486
0.833479
0.820217
0.745881
0.813437
0.733605
0.867465
0.794328
0.831882
0.704001
0.801427
0.607534
0.629266
0.705007
0.824603
0.805035
0.825349
0.778318
0.804926
0.64351
0.797745
0.809464
0.760624
0.830069
0.808725
0.831332
0.849872
0.684163
0.826008
0.8048
0.832281
0.821096
0.832308
0.83367
0.77341
0.801858
0.805253
0.805518
0.801724
0.828247
0.850398
0.832652
0.750706
0.807727
0.709938
0.831912
0.835307
0.646923
0.782866
0.782807
0.651146
0.799303
0.806561
0.881324
0.804382
0.8286
0.775274
0.801384
0.801965
0.815109
0.793148
0.623351
0.704617
0.708775
0.792181
0.828251
0.805021
0.825972
0.798444
0.816235
0.832364
0.803968
0.858228
0.750872
0.834804
0.791918
0.64237
0.688768
0.832341
0.805299
0.809992
0.623191
0.801941
0.805657
0.687565
0.831351
0.804881
0.81449
0.83067
0.693114
0.732985
0.754019
0.83223
0.83757
0.68557
0.798113
0.718833
0.83137
0.836954
0.790938
0.788813
0.670249
0.830531
0.804365
0.742354
0.8574
0.809359
0.760155
0.757654
0.781815
0.83433
0.617817
0.802911
0.751366
0.804228
0.827857
0.723363
0.805461
0.82574
0.735993
0.817751
0.730636
0.831616
0.803601
0.767712
0.742986
0.822957
0.804901
0.83191
0.697824
0.80875
0.820917
0.834829
0.724764
0.834225
0.814805
0.839658
0.698955
0.831337
0.758446
0.834315
0.812057
0.850278
0.80564
0.832842
0.765257
0.831311
0.847535
0.836764
0.826985
0.850691
0.76134
0.854033
0.833122
0.809498
0.833388
0.809788
0.677881
0.792355
0.831276
0.767085
0.734863
0.805009
0.810083
0.721853
0.803353
0.613112
0.853107
0.746627
0.731024
0.831344
0.788108
0.81766
0.804955
0.817416
0.80709
0.831912
0.84104
0.762204
0.786434
0.649614
0.833904
0.787149
0.820005
0.808407
0.624613
0.803789
0.804362
0.826067
0.802573
0.831643
0.812382
0.704988
0.835152
0.854011
0.712377
0.763721
0.833407
0.808451
0.750413
0.820134
0.775154
0.80363
0.804548
0.810713
0.846077
0.702849
0.731532
0.80437
0.731994
0.783393
0.835896
0.612829
0.726094
0.803571
0.806805
0.804199
0.753517
0.834487
0.823241
0.805328
0.81295
0.831954
0.718373
0.712234
0.814156
0.83166
0.802878
0.87751
0.806917
0.833529
0.803275
0.825735
0.8187
0.812734
0.708154
0.819243
0.831768
0.806464
0.809511
0.804044
0.657652
0.82564
0.830799
0.833267
0.868718
0.830608
0.807259
0.666808
0.840107
0.742926
0.837561
0.811798
0.818497
0.831226
0.832851
0.832759
0.760999
0.61763
0.674208
0.83271
0.827992
0.65871
0.802703
0.830671
0.837545
0.658995
0.814194
0.830755
0.806795
0.813658
0.676896
0.831616
0.813095
0.62207
0.833465
0.831334
0.644847
0.815352
0.831479
0.783935
0.811936
0.820302
0.833715
0.802508
0.836813
0.619529
0.835408
0.820274
0.807032
0.763595
0.797784
0.833606
0.814204
0.809277
0.82883
0.804458
0.725073
0.823281
0.688425
0.836099
0.692248
0.767904
0.801957
0.74023
0.804737
0.62817
0.85623
0.834101
0.831088
0.804997
0.804971
0.804201
0.818239
0.831492
0.698789
0.752723
0.756509
0.831409
0.757707
0.699232
0.82787
0.796422
0.837537
0.828705
0.81445
0.752068
0.671707
0.804921
0.803694
0.670593
0.831362
0.832123
0.752609
0.810051
0.782609
0.685076
0.82548
0.819316
0.801554
0.653535
0.807446
0.793318
0.837714
0.832203
0.83449
0.816562
0.832297
0.717123
0.810669
0.831562
0.739227
0.662144
0.76225
0.803862
0.757748
0.832134
0.804028
0.810738
0.792911
0.871711
0.80423
0.80646
0.836141
0.864967
0.807465
0.828548
0.808529
0.83132
0.797893
0.762584
0.816685
0.806814
0.830609
0.805496
0.804644
0.850805
0.778976
0.832455
0.786382
0.808288
0.674143
0.645049
0.806299
0.807971
0.832682
0.803595
0.810312
0.836153
0.784225
0.809986
0.835518
0.794649
0.828228
0.78489
0.652383
0.809857
0.771146
0.789153
0.770064
0.773978
0.801417
0.796982
0.827062
0.79614
0.813981
0.80435
0.781399
0.831522
0.624691
0.756791
0.829434
0.829869
0.832486
0.815871
0.829821
0.820037
0.810706
0.833971
0.814135
0.79342
0.830967
0.806729
0.804215
0.802933
0.809434
0.63838
0.805703
0.799995
0.652703
0.822353
0.812038
0.809765
0.815341
0.73251
0.762702
0.834079
0.783498
0.816285
0.831372
0.726073
0.808077
0.835649
0.745264
0.805982
0.828201
0.786945
0.817397
0.841912
0.808071
0.832037
0.785641
0.808734
0.803902
0.831084
0.807998
0.802175
0.651047
0.831439
0.801402
0.810544
0.83716
0.743734
0.839322
0.82879
0.660416
0.812091
0.807168
0.80856
0.830834
0.833687
0.835717
0.808743
0.820223
0.831489
0.817934
0.805518
0.830326
0.810141
0.765718
0.75071
0.794562
0.831664
0.827823
0.788959
0.772824
0.818548
0.829536
0.815058
0.833344
0.743666
0.65406
0.756884
0.832143
0.812765
0.831412
0.850576
0.804278
0.75184
0.709542
0.806133
0.810567
0.733942
0.832752
0.727998
0.844948
0.750005
0.829127
0.89652
0.820025
0.805538
0.792082
0.815715
0.728651
0.818797
0.824524
0.799657
0.819936
0.787314
0.805321
0.814476
0.796221
0.80509
0.858227
0.787238
0.80485
0.675894
0.807534
0.716727
0.807054
0.800624
0.795981
0.79633
0.740851
0.816498
0.801161
0.85226
0.831968
0.833091
0.833688
0.896702
0.768194
0.807656
0.762798
0.80458
0.80376
0.808693
0.74654
0.805733
0.811118
0.712515
0.822957
0.766213
0.693378
0.853952
0.854607
0.769882
0.815681
0.802122
0.787191
0.760754
0.789105
0.793841
0.754039
0.806165
0.809043
0.754578
0.831494
0.80804
0.667135
0.835411
0.827137
0.826175
0.806542
0.654839
0.752915
0.811214
0.864776
0.673195
0.751585
0.81593
0.820451
0.808531
0.719928
0.752765
0.813531
0.832006
0.831311
0.846044
0.755819
0.775304
0.878993
0.811422
0.832905
0.802394
0.719672
0.709526
0.646076
0.705821
0.694217
0.782925
0.815102
0.807822
0.831028
0.818978
0.816009
0.865568
0.756565
0.835535
0.831615
0.831603
0.831767
0.831622
0.832282
0.830606
0.836256
0.72883