# vtk DataFile Version 1.0
unstructured grid
ascii
DATASET UNSTRUCTURED_GRID
points 14760 float
-1 0 0
-1 1 0
2 0 0
2 1 0
0 0 0
1 0 0
-1 1 0.1
-1 0 0.1
0 0 0.1
1 0 0.1
2 0 0.1
2 1 0.1
-0.99 0 0
-0.98 0 0
-0.97 0 0
-0.96 0 0
-0.95 0 0
-0.94 0 0
-0.93 0 0
-0.92 0 0
-0.91 0 0
-0.9 0 0
-0.89 0 0
-0.88 0 0
-0.87 0 0
-0.86 0 0
-0.85 0 0
-0.84 0 0
-0.83 0 0
-0.82 0 0
-0.81 0 0
-0.8 0 0
-0.79 0 0
-0.78 0 0
-0.77 0 0
-0.76 0 0
-0.75 0 0
-0.74 0 0
-0.73 0 0
-0.72 0 0
-0.71 0 0
-0.7 0 0
-0.69 0 0
-0.68 0 0
-0.67 0 0
-0.66 0 0
-0.65 0 0
-0.64 0 0
-0.63 0 0
-0.62 0 0
-0.61 0 0
-0.6 0 0
-0.59 0 0
-0.58 0 0
-0.57 0 0
-0.56 0 0
-0.55 0 0
-0.54 0 0
-0.53 0 0
-0.52 0 0
-0.51 0 0
-0.5 0 0
-0.49 0 0
-0.48 0 0
-0.47 0 0
-0.46 0 0
-0.45 0 0
-0.44 0 0
-0.43 0 0
-0.42 0 0
-0.41 0 0
-0.4 0 0
-0.39 0 0
-0.38 0 0
-0.37 0 0
-0.36 0 0
-0.35 0 0
-0.34 0 0
-0.33 0 0
-0.32 0 0
-0.31 0 0
-0.3 0 0
-0.29 0 0
-0.28 0 0
-0.27 0 0
-0.26 0 0
-0.25 0 0
-0.24 0 0
-0.23 0 0
-0.22 0 0
-0.21 0 0
-0.2 0 0
-0.19 0 0
-0.18 0 0
-0.17 0 0
-0.16 0 0
-0.15 0 0
-0.14 0 0
-0.13 0 0
-0.12 0 0
-0.11 0 0
-0.1 0 0
-0.09 0 0
-0.08 0 0
-0.07 0 0
-0.06 0 0
-0.05 0 0
-0.04 0 0
-0.03 0 0
-0.02 0 0
-0.01 0 0
1.01 0 0
1.02 0 0
1.03 0 0
1.04 0 0
1.05 0 0
1.06 0 0
1.07 0 0
1.08 0 0
1.09 0 0
1.1 0 0
1.11 0 0
1.12 0 0
1.13 0 0
1.14 0 0
1.15 0 0
1.16 0 0
1.17 0 0
1.18 0 0
1.19 0 0
1.2 0 0
1.21 0 0
1.22 0 0
1.23 0 0
1.24 0 0
1.25 0 0
1.26 0 0
1.27 0 0
1.28 0 0
1.29 0 0
1.3 0 0
1.31 0 0
1.32 0 0
1.33 0 0
1.34 0 0
1.35 0 0
1.36 0 0
1.37 0 0
1.38 0 0
1.39 0 0
1.4 0 0
1.41 0 0
1.42 0 0
1.43 0 0
1.44 0 0
1.45 0 0
1.46 0 0
1.47 0 0
1.48 0 0
1.49 0 0
1.5 0 0
1.51 0 0
1.52 0 0
1.53 0 0
1.54 0 0
1.55 0 0
1.56 0 0
1.57 0 0
1.58 0 0
1.59 0 0
1.6 0 0
1.61 0 0
1.62 0 0
1.63 0 0
1.64 0 0
1.65 0 0
1.66 0 0
1.67 0 0
1.68 0 0
1.69 0 0
1.7 0 0
1.71 0 0
1.72 0 0
1.73 0 0
1.74 0 0
1.75 0 0
1.76 0 0
1.77 0 0
1.78 0 0
1.79 0 0
1.8 0 0
1.81 0 0
1.82 0 0
1.83 0 0
1.84 0 0
1.85 0 0
1.86 0 0
1.87 0 0
1.88 0 0
1.89 0 0
1.9 0 0
1.91 0 0
1.92 0 0
1.93 0 0
1.94 0 0
1.95 0 0
1.96 0 0
1.97 0 0
1.98 0 0
1.99 0 0
2 0.0100088 0
2 0.0204183 0
2 0.0312446 0
2 0.0425043 0
2 0.0542147 0
2 0.066394 0
2 0.079061 0
2 0.092235 0
2 0.105936 0
2 0.120186 0
2 0.135007 0
2 0.150421 0
2 0.166452 0
2 0.183124 0
2 0.200465 0
2 0.218499 0
2 0.237256 0
2 0.256763 0
2 0.277051 0
2 0.298152 0
2 0.320097 0
2 0.342921 0
2 0.366659 0
2 0.391347 0
2 0.417024 0
2 0.443728 0
2 0.471502 0
2 0.500387 0
2 0.530429 0
2 0.561674 0
2 0.594169 0
2 0.627966 0
2 0.663115 0
2 0.699672 0
2 0.737692 0
2 0.777235 0
2 0.818361 0
2 0.861133 0
2 0.905617 0
2 0.951882 0
1.95 1 0
1.9 1 0
1.85 1 0
1.8 1 0
1.75 1 0
1.7 1 0
1.65 1 0
1.6 1 0
1.55 1 0
1.5 1 0
1.45 1 0
1.4 1 0
1.35 1 0
1.3 1 0
1.25 1 0
1.2 1 0
1.15 1 0
1.1 1 0
1.05 1 0
1 1 0
0.95 1 0
0.9 1 0
0.85 1 0
0.8 1 0
0.75 1 0
0.7 1 0
0.65 1 0
0.6 1 0
0.55 1 0
0.5 1 0
0.45 1 0
0.4 1 0
0.35 1 0
0.3 1 0
0.25 1 0
0.2 1 0
0.15 1 0
0.1 1 0
0.05 1 0
3.69793e-12 1 0
-0.05 1 0
-0.1 1 0
-0.15 1 0
-0.2 1 0
-0.25 1 0
-0.3 1 0
-0.35 1 0
-0.4 1 0
-0.45 1 0
-0.5 1 0
-0.55 1 0
-0.6 1 0
-0.65 1 0
-0.7 1 0
-0.75 1 0
-0.8 1 0
-0.85 1 0
-0.9 1 0
-0.95 1 0
-1 0.951882 0
-1 0.905617 0
-1 0.861133 0
-1 0.818361 0
-1 0.777235 0
-1 0.737692 0
-1 0.699672 0
-1 0.663115 0
-1 0.627966 0
-1 0.594169 0
-1 0.561674 0
-1 0.530429 0
-1 0.500387 0
-1 0.471502 0
-1 0.443728 0
-1 0.417024 0
-1 0.391347 0
-1 0.366659 0
-1 0.342921 0
-1 0.320097 0
-1 0.298152 0
-1 0.277051 0
-1 0.256763 0
-1 0.237256 0
-1 0.218499 0
-1 0.200465 0
-1 0.183124 0
-1 0.166452 0
-1 0.150421 0
-1 0.135007 0
-1 0.120186 0
-1 0.105936 0
-1 0.092235 0
-1 0.079061 0
-1 0.066394 0
-1 0.0542147 0
-1 0.0425043 0
-1 0.0312446 0
-1 0.0204183 0
-1 0.0100088 0
0.00921362 0.00379763 0
0.0184561 0.00752451 0
0.0277268 0.0111804 0
0.0370253 0.0147652 0
0.0463511 0.0182786 0
0.0557034 0.0217203 0
0.0650819 0.0250903 0
0.074486 0.0283883 0
0.083915 0.0316141 0
0.0933685 0.0347675 0
0.102846 0.0378484 0
0.112347 0.0408565 0
0.12187 0.0437917 0
0.131416 0.0466538 0
0.140983 0.0494427 0
0.150572 0.0521581 0
0.160181 0.0547999 0
0.16981 0.0573681 0
0.179458 0.0598623 0
0.189125 0.0622825 0
0.198811 0.0646285 0
0.208514 0.0669001 0
0.218234 0.0690974 0
0.227971 0.07122 0
0.237724 0.073268 0
0.247493 0.0752411 0
0.257276 0.0771393 0
0.267073 0.0789625 0
0.276884 0.0807105 0
0.286708 0.0823832 0
0.296545 0.0839806 0
0.306394 0.0855025 0
0.316254 0.0869488 0
0.326125 0.0883196 0
0.336006 0.0896146 0
0.345896 0.0908339 0
0.355796 0.0919773 0
0.365704 0.0930447 0
0.375621 0.0940362 0
0.385544 0.0949517 0
0.395474 0.095791 0
0.40541 0.0965542 0
0.415352 0.0972412 0
0.425299 0.097852 0
0.43525 0.0983865 0
0.445205 0.0988447 0
0.455164 0.0992266 0
0.465125 0.0995321 0
0.475088 0.0997613 0
0.485052 0.0999141 0
0.495017 0.0999904 0
0.504983 0.0999904 0
0.514948 0.0999141 0
0.524912 0.0997613 0
0.534875 0.0995321 0
0.544836 0.0992266 0
0.554795 0.0988447 0
0.56475 0.0983865 0
0.574701 0.097852 0
0.584648 0.0972412 0
0.59459 0.0965542 0
0.604526 0.095791 0
0.614456 0.0949517 0
0.624379 0.0940362 0
0.634296 0.0930447 0
0.644204 0.0919773 0
0.654104 0.0908339 0
0.663994 0.0896146 0
0.673875 0.0883196 0
0.683746 0.0869488 0
0.693606 0.0855025 0
0.703455 0.0839806 0
0.713292 0.0823832 0
0.723116 0.0807105 0
0.732927 0.0789625 0
0.742724 0.0771393 0
0.752508 0.0752411 0
0.762276 0.073268 0
0.772029 0.07122 0
0.781766 0.0690974 0
0.791486 0.0669001 0
0.801189 0.0646285 0
0.810875 0.0622825 0
0.820542 0.0598623 0
0.83019 0.0573681 0
0.839819 0.0547999 0
0.849428 0.0521581 0
0.859017 0.0494427 0
0.868584 0.0466538 0
0.87813 0.0437917 0
0.887653 0.0408565 0
0.897154 0.0378484 0
0.906631 0.0347675 0
0.916085 0.0316141 0
0.925514 0.0283883 0
0.934918 0.0250903 0
0.944297 0.0217203 0
0.953649 0.0182786 0
0.962975 0.0147652 0
0.972273 0.0111804 0
0.981544 0.00752451 0
0.990786 0.00379763 0
-1 0.951882 0.1
-1 0.905617 0.1
-1 0.861133 0.1
-1 0.818361 0.1
-1 0.777235 0.1
-1 0.737692 0.1
-1 0.699672 0.1
-1 0.663115 0.1
-1 0.627966 0.1
-1 0.594169 0.1
-1 0.561674 0.1
-1 0.530429 0.1
-1 0.500387 0.1
-1 0.471502 0.1
-1 0.443728 0.1
-1 0.417024 0.1
-1 0.391347 0.1
-1 0.366659 0.1
-1 0.342921 0.1
-1 0.320097 0.1
-1 0.298152 0.1
-1 0.277051 0.1
-1 0.256763 0.1
-1 0.237256 0.1
-1 0.218499 0.1
-1 0.200465 0.1
-1 0.183124 0.1
-1 0.166452 0.1
-1 0.150421 0.1
-1 0.135007 0.1
-1 0.120186 0.1
-1 0.105936 0.1
-1 0.092235 0.1
-1 0.079061 0.1
-1 0.066394 0.1
-1 0.0542147 0.1
-1 0.0425043 0.1
-1 0.0312446 0.1
-1 0.0204183 0.1
-1 0.0100088 0.1
-0.99 0 0.1
-0.98 0 0.1
-0.97 0 0.1
-0.96 0 0.1
-0.95 0 0.1
-0.94 0 0.1
-0.93 0 0.1
-0.92 0 0.1
-0.91 0 0.1
-0.9 0 0.1
-0.89 0 0.1
-0.88 0 0.1
-0.87 0 0.1
-0.86 0 0.1
-0.85 0 0.1
-0.84 0 0.1
-0.83 0 0.1
-0.82 0 0.1
-0.81 0 0.1
-0.8 0 0.1
-0.79 0 0.1
-0.78 0 0.1
-0.77 0 0.1
-0.76 0 0.1
-0.75 0 0.1
-0.74 0 0.1
-0.73 0 0.1
-0.72 0 0.1
-0.71 0 0.1
-0.7 0 0.1
-0.69 0 0.1
-0.68 0 0.1
-0.67 0 0.1
-0.66 0 0.1
-0.65 0 0.1
-0.64 0 0.1
-0.63 0 0.1
-0.62 0 0.1
-0.61 0 0.1
-0.6 0 0.1
-0.59 0 0.1
-0.58 0 0.1
-0.57 0 0.1
-0.56 0 0.1
-0.55 0 0.1
-0.54 0 0.1
-0.53 0 0.1
-0.52 0 0.1
-0.51 0 0.1
-0.5 0 0.1
-0.49 0 0.1
-0.48 0 0.1
-0.47 0 0.1
-0.46 0 0.1
-0.45 0 0.1
-0.44 0 0.1
-0.43 0 0.1
-0.42 0 0.1
-0.41 0 0.1
-0.4 0 0.1
-0.39 0 0.1
-0.38 0 0.1
-0.37 0 0.1
-0.36 0 0.1
-0.35 0 0.1
-0.34 0 0.1
-0.33 0 0.1
-0.32 0 0.1
-0.31 0 0.1
-0.3 0 0.1
-0.29 0 0.1
-0.28 0 0.1
-0.27 0 0.1
-0.26 0 0.1
-0.25 0 0.1
-0.24 0 0.1
-0.23 0 0.1
-0.22 0 0.1
-0.21 0 0.1
-0.2 0 0.1
-0.19 0 0.1
-0.18 0 0.1
-0.17 0 0.1
-0.16 0 0.1
-0.15 0 0.1
-0.14 0 0.1
-0.13 0 0.1
-0.12 0 0.1
-0.11 0 0.1
-0.1 0 0.1
-0.09 0 0.1
-0.08 0 0.1
-0.07 0 0.1
-0.06 0 0.1
-0.05 0 0.1
-0.04 0 0.1
-0.03 0 0.1
-0.02 0 0.1
-0.01 0 0.1
0.00921362 0.00379763 0.1
0.0184561 0.00752451 0.1
0.0277268 0.0111804 0.1
0.0370253 0.0147652 0.1
0.0463511 0.0182786 0.1
0.0557034 0.0217203 0.1
0.0650819 0.0250903 0.1
0.074486 0.0283883 0.1
0.083915 0.0316141 0.1
0.0933685 0.0347675 0.1
0.102846 0.0378484 0.1
0.112347 0.0408565 0.1
0.12187 0.0437917 0.1
0.131416 0.0466538 0.1
0.140983 0.0494427 0.1
0.150572 0.0521581 0.1
0.160181 0.0547999 0.1
0.16981 0.0573681 0.1
0.179458 0.0598623 0.1
0.189125 0.0622825 0.1
0.198811 0.0646285 0.1
0.208514 0.0669001 0.1
0.218234 0.0690974 0.1
0.227971 0.07122 0.1
0.237724 0.073268 0.1
0.247493 0.0752411 0.1
0.257276 0.0771393 0.1
0.267073 0.0789625 0.1
0.276884 0.0807105 0.1
0.286708 0.0823832 0.1
0.296545 0.0839806 0.1
0.306394 0.0855025 0.1
0.316254 0.0869488 0.1
0.326125 0.0883196 0.1
0.336006 0.0896146 0.1
0.345896 0.0908339 0.1
0.355796 0.0919773 0.1
0.365704 0.0930447 0.1
0.375621 0.0940362 0.1
0.385544 0.0949517 0.1
0.395474 0.095791 0.1
0.40541 0.0965542 0.1
0.415352 0.0972412 0.1
0.425299 0.097852 0.1
0.43525 0.0983865 0.1
0.445205 0.0988447 0.1
0.455164 0.0992266 0.1
0.465125 0.0995321 0.1
0.475088 0.0997613 0.1
0.485052 0.0999141 0.1
0.495017 0.0999904 0.1
0.504983 0.0999904 0.1
0.514948 0.0999141 0.1
0.524912 0.0997613 0.1
0.534875 0.0995321 0.1
0.544836 0.0992266 0.1
0.554795 0.0988447 0.1
0.56475 0.0983865 0.1
0.574701 0.097852 0.1
0.584648 0.0972412 0.1
0.59459 0.0965542 0.1
0.604526 0.095791 0.1
0.614456 0.0949517 0.1
0.624379 0.0940362 0.1
0.634296 0.0930447 0.1
0.644204 0.0919773 0.1
0.654104 0.0908339 0.1
0.663994 0.0896146 0.1
0.673875 0.0883196 0.1
0.683746 0.0869488 0.1
0.693606 0.0855025 0.1
0.703455 0.0839806 0.1
0.713292 0.0823832 0.1
0.723116 0.0807105 0.1
0.732927 0.0789625 0.1
0.742724 0.0771393 0.1
0.752508 0.0752411 0.1
0.762276 0.073268 0.1
0.772029 0.07122 0.1
0.781766 0.0690974 0.1
0.791486 0.0669001 0.1
0.801189 0.0646285 0.1
0.810875 0.0622825 0.1
0.820542 0.0598623 0.1
0.83019 0.0573681 0.1
0.839819 0.0547999 0.1
0.849428 0.0521581 0.1
0.859017 0.0494427 0.1
0.868584 0.0466538 0.1
0.87813 0.0437917 0.1
0.887653 0.0408565 0.1
0.897154 0.0378484 0.1
0.906631 0.0347675 0.1
0.916085 0.0316141 0.1
0.925514 0.0283883 0.1
0.934918 0.0250903 0.1
0.944297 0.0217203 0.1
0.953649 0.0182786 0.1
0.962975 0.0147652 0.1
0.972273 0.0111804 0.1
0.981544 0.00752451 0.1
0.990786 0.00379763 0.1
1.01 0 0.1
1.02 0 0.1
1.03 0 0.1
[...]
CELL_DATA 14313
SCALARS rho float
LOOKUP_TABLE default
0.781358
0.824216
0.805903
0.537672
0.766333
0.811816
0.81248
0.812366
0.811016
0.815145
0.812052
0.798883
0.797044
0.517593
0.812846
0.831887
0.808784
0.807722
0.81006
0.80536
0.810718
0.813944
0.812412
0.766073
0.81204
0.814649
0.742428
0.709674
0.823736
0.824339
0.81191
0.794488
0.799543
0.812011
0.804683
0.810656
0.679788
0.808921
0.811597
0.802376
0.752565
0.810386
0.541873
0.70205
0.817602
0.835708
0.81086
0.77743
0.804426
0.851044
0.675487
0.653263
0.589425
0.810568
0.819647
0.782675
0.817587
0.814701
0.810809
0.812317
0.811922
0.818381
0.794465
0.839195
0.810346
0.813291
0.852789
0.783907
0.840549
0.812838
0.798317
0.831449
0.487402
0.837194
0.726011
0.806937
0.824628
0.747114
0.696457
0.811387
0.591947
0.824691
0.833123
0.803479
0.805548
0.819262
0.811797
0.804467
0.82656
0.807006
0.77989
0.522858
0.807321
0.797938
0.725947
0.803836
0.814619
0.808921
0.803239
0.48901
0.807024
0.809627
0.812446
0.814216
0.748443
0.809308
0.802651
0.699572
0.834438
0.809975
0.813865
0.824851
0.812074
0.819294
0.80417
0.827386
0.819796
0.836207
0.778721
0.798771
0.811557
0.808977
0.859413
0.720829
0.84341
0.753425
0.789569
0.804466
0.814628
0.842923
0.809427
0.811944
0.860713
0.812238
0.823235
0.78264
0.806972
0.79225
0.817638
0.817294
0.812479
0.81673
0.803388
0.803436
0.796548
0.839022
0.805955
0.760709
0.795529
0.817321
0.797235
0.803539
0.812415
0.709031
0.821173
0.803724
0.723102
0.821066
0.812032
0.811876
0.818398
0.808729
0.646953
0.757507
0.823078
0.824412
0.71402
0.812629
0.827995
0.815443
0.688685
0.816233
0.712973
0.787922
0.808905
0.826099
0.808113
0.815437
0.820917
0.741602
0.811351
0.809496
0.773502
0.771837
0.790509
0.811041
0.812831
0.796999
0.496619
0.787238
0.757532
0.74278
0.770239
0.713307
0.81229
0.814909
0.807276
0.803391
0.806091
0.816793
0.760114
0.802914
0.82847
0.814841
0.833429
0.803348
0.816573
0.814235
0.811983
0.834565
0.804022
0.811182
0.795964
0.700931
0.814048
0.820687
0.809573
0.807193
0.834503
0.802913
0.802641
0.819227
0.806002
0.855314
0.809602
0.803131
0.817921
0.802483
0.812366
0.757252
0.635994
0.81507
0.697507
0.826842
0.802395
0.721341
0.811964
0.814018
0.814861
0.826271
0.791698
0.710315
0.747702
0.595275
0.815012
0.723816
0.799321
0.807111
0.837698
0.815102
0.575146
0.804048
0.728715
0.837316
0.801238
0.694739
0.811368
0.827028
0.814591
0.557075
0.813268
0.801182
0.798918
0.806032
0.788396
0.773886
0.815731
0.815547
0.529532
0.814625
0.813773
0.772161
0.802053
0.81203
0.780514
0.817261
0.78304
0.709189
0.802826
0.80583
0.56755
0.543526
0.756284
0.807965
0.820437
0.790084
0.811678
0.814815
0.77608
0.805959
0.8035
0.816684
0.829461
0.793161
0.808307
0.811564
0.631729
0.818899
0.69964
0.797288
0.793293
0.777594
0.835604
0.809344
0.79667
0.676383
0.668172
0.803619
0.805715
0.819646
0.804237
0.798419
0.652126
0.815121
0.822105
0.81812
0.812053
0.812885
0.799462
0.790953
0.814182
0.570879
0.807964
0.812236
0.814425
0.812599
0.765322
0.821533
0.801536
0.814219
0.813074
0.753887
0.752495
0.803405
0.803486
0.536684
0.812459
0.811958
0.807145
0.811827
0.803355
0.800956
0.728138
0.711974
0.814396
0.748393
0.758027
0.818491
0.837468
0.8142
0.802224
0.8085
0.812279
0.803462
0.817052
0.782578
0.816983
0.811796
0.810751
0.79513
0.810457
0.792163
0.811858
0.589752
0.79959
0.800433
0.81194
0.813474
0.767627
0.801618
0.812225
0.812445
0.818034
0.770251
0.818299
0.808372
0.752591
0.761722
0.812888
0.80582
0.829183
0.824732
0.823198
0.804342
0.594454
0.779028
0.600459
0.803391
0.80294
0.8008
0.814285
0.874031
0.526206
0.593628
0.838311
0.871992
0.811869
0.690184
0.802026
0.716337
0.806855
0.815763
0.707032
0.650936
0.751162
0.812942
0.476612
0.873562
0.824382
0.798513
0.808799
0.479171
0.739756
0.781751
0.817601
0.804689
0.800603
0.830238
0.812336
0.705632
0.685002
0.801578
0.806087
0.809327
0.81161
0.808808
0.811931
0.735603
0.791195
0.797201
0.80253
0.764096
0.817675
0.807894
0.812878
0.811646
0.755177
0.805612
0.804083
0.793266
0.81216
0.815711
0.806958
0.657328
0.787477
0.817509
0.812845
0.812278
0.807372
0.812724
0.804234
0.821174
0.821528
0.617872
0.855155
0.744065
0.820619
0.804967
0.746937
0.824506
0.800902
0.82547
0.548535
0.799518
0.67921
0.812009
0.809241
0.522168
0.799976
0.804647
0.798021
0.8021
0.800684
0.772282
0.81187
0.592638
0.80574
0.806112
0.799262
0.818335
0.764983
0.812005
0.80937
0.797923
0.816232
0.796543
0.802865
0.812357
0.6342
0.769311
0.733991
0.490435
0.824737
0.568299
0.802626
0.81883
0.85662
0.703205
0.739698
0.812157
0.80612
0.800961
0.79373
0.765958
0.810926
0.812422
0.797137
0.813133
0.816439
0.472463
0.812385
0.813279
0.806347
0.810124
0.604378
0.815201
0.821551
0.705784
0.788797
0.813188
0.801044
0.828227
0.831337
0.804087
0.742449
0.473425
0.813884
0.571155
0.798797
0.803328
0.774697
0.812035
0.750474
0.811327
0.806597
0.803361
0.486192
0.81428
0.827437
0.830583
0.81478
0.803485
0.803227
0.812414
0.75854
0.847341
0.836917
0.709441
0.798672
0.65345
0.778057
0.667608
0.816092
0.836164
0.798986
0.637945
0.765852
0.813689
0.824454
0.832595
0.813654
0.670652
0.537766
0.80464
0.815923
0.801365
0.815856
0.804751
0.771644
0.851205
0.815248
0.804049
0.816769
0.799019
0.744015
0.798039
0.811413
0.596672
0.689185
0.803326
0.810775
0.804817
0.575182
0.81161
0.604884
0.812426
0.767611
0.816906
0.816325
0.753536
0.806577
0.792422
0.805157
0.836921
0.837232
0.831318
0.804791
0.816147
0.579628
0.81246
0.856798
0.825099
0.829295
0.80421
0.820796
0.799364
0.839831
0.808776
0.814403
0.672758
0.630792
0.835752
0.813387
0.840684
0.715969
0.801262
0.763512
0.797255
0.809597
0.793175
0.807071
0.813104
0.822711
0.82812
0.830087
0.805425
0.750143
0.804132
0.729505
0.793228
0.821533
0.800959
0.815062
0.758297
0.805073
0.804395
0.846993
0.809105
0.803411
0.806057
0.83431
0.831366
0.803592
0.856317
0.79598
0.820082
0.661844
0.803169
0.800254
0.798864
0.831732
0.608867
0.806344
0.805562
0.658638
0.814594
0.829351
0.813867
0.803386
0.806062
0.802515
0.816094
0.798937
0.720399
0.513739
0.813418
0.805662
0.801831
0.804539
0.803023
0.803694
0.810752
0.798128
0.813744
0.583376
0.812838
0.809419
0.811916
0.842365
0.813741
0.834252
0.811438
0.797697
0.812817
0.682459
0.803739
0.850298
0.81285
0.793029
0.814208
0.633984
0.805489
0.566878
0.662583
0.673561
0.809565
0.815524
0.812449
0.497422
0.694521
0.803475
0.830799
0.74738
0.831422
0.805168
0.804773
0.796755
0.694973
0.75134
0.547486
0.802784
0.811708
0.804325
0.820882
0.669919
0.624523
0.854068
0.801576
0.814057
0.729165
0.813574
0.526542
0.820851
0.703411
0.813865
0.817536
0.801698
0.802158
0.825189
0.794895
0.803614
0.803926
0.631398
0.806606
0.653305
0.798837
0.798268
0.813753
0.815349
0.729159
0.815418
0.755763
0.803165
0.72129
0.805027
0.74591
0.671553
0.824561
0.812434
0.799159
0.726437
0.81141
0.65848
0.810947
0.80293
0.728264
0.82588
0.81638
0.637733
0.696085
0.825807
0.803662
0.725692
0.833698
0.834747
0.836138
0.811797
0.548334
0.751092
0.821032
0.820341
0.521604
0.640087
0.815635
0.812493
0.721979
0.778416
0.812088
0.807095
0.758018
0.812218
0.813532
0.803576
0.728872
0.802248
0.796943
0.812115
0.577057
0.805572
0.821804
0.574365
0.818184
0.845411
0.812054
0.676662
0.811783
0.811658
0.811889
0.80117
0.818741
0.803262
0.806698
0.804864
0.803316
0.813541
0.485806
0.80992
0.809721
0.692095
0.603351
0.786115
0.798383
0.812128
0.75327
0.565066
0.811472
0.783539
0.8121
0.821522
0.813522
0.825113
0.748359
0.590584
0.811573
0.839105
0.81205
0.709214
0.803508
0.727355
0.813177
0.811109
0.811959
0.817382
0.801266
0.813103
0.808357
0.757542
0.816266
0.812667
0.751815
0.791916
0.710934
0.558991
0.733641
0.781598
0.815843
0.81136
0.810689
0.810615
0.803301
0.795411
0.808077
0.707162
0.753396
0.811629
0.803434
0.804839
0.818365
0.604337
0.813592
0.803901
0.843553
0.807882
0.636495
0.793702
0.803825
0.842478
0.69095
0.562039
0.577121
0.635301
0.817633
0.804517
0.560572
0.585694
0.819974
0.812226
0.889293
0.804814
0.829455
0.812466
0.769437
0.810838
0.812628
0.81212
0.810673
0.812055
0.798053
0.812204
0.641479
0.81575
0.803636
0.809666
0.756649
0.817181
0.611005
0.855518
0.803936
0.827021
0.81205
0.808012
0.748047
0.822309
0.811954
0.837249
0.811837
0.812549
0.641444
0.826777
0.810191
0.81242
0.836611
0.822586
0.55393
0.796503
0.802804
0.81097
0.81697
0.803945
0.800225
0.815235
0.765142
0.804984
0.815879
0.863461
0.831164
0.587042
0.796085
0.75414
0.814059
0.761551
0.81941
0.804849
0.806399
0.812275
0.789153
0.805637
0.815483
0.821859
0.787363
0.668837
0.733881
0.698115
0.814155
0.835951
0.837878
0.733595
0.808882
0.753921
0.609805
0.812074
0.799492
0.811837
0.803581
0.631059
0.802231
0.776531
0.736684
0.810804
0.744617
0.807625
0.816472
0.859747
0.809647
0.807104
0.740006
0.812526
0.775893
0.839394
0.883754
0.797059
0.520692
0.799713
0.607768
0.769322
0.657334
0.799169
0.494947
0.815019
0.84984
0.80594
0.810659
0.81972
0.80288
0.803255
0.696726
0.822988
0.811972
0.804158
0.806634
0.792453
0.803566
0.806841
0.628629
0.816549
0.802043
0.845258
0.808021
0.804386
0.801514
0.812998
0.813113
0.807575
0.803538
0.787559
0.81219
0.795299
0.801776
0.813289
0.771818
0.567195
0.812693
0.818169
0.803996
0.724471
0.801214
0.80773
0.803485
0.698461
0.873159
0.811651
0.816735
0.812077
0.847784
0.778193
0.812147
0.787653
0.815852
0.822049
0.663286
0.812183
0.728623
0.81902
0.718385
0.799512
0.751247
0.80254
0.581665
0.809239
0.734998
0.476648
0.820173
0.661884
0.769069
0.817238
0.812338
0.776569
0.81128
0.718894
0.638183
0.826172
0.698935
0.816717
0.767395
0.80163
0.807939
0.813284
0.652285
0.804332
0.774849
0.809619
0.812083
0.829042
0.806125
0.687606
0.755486
0.651522
0.798215
0.803051
0.811985
0.815419
0.811915
0.81156
0.8094
0.663521
0.731319
0.488602
0.696575
0.813903
0.808136
0.832972
0.809427
0.814707
0.709892
0.874103
0.815178
0.826194
0.571634
0.822883
0.812198
0.840679
0.845543
0.826558
0.830064
0.820186
0.540621
0.805742
0.814929
0.715888
0.81677
0.801346
0.812133
0.807957
0.812614
0.812677
0.767217
0.721121
0.798036
0.800351
0.571852
0.814025
0.859009
0.815316
0.65909
0.822516
0.813132
0.819535
0.835234
0.688476
0.486746
0.804854
0.839846
0.806073
0.803925
0.814219
0.801578
0.81243
0.809533
0.799972
0.804253
0.804692
0.812483
0.805565
0.806179
0.79862
0.836122
0.830682
0.853206
0.812904
0.807411
0.814467
0.812991
0.812089
0.811031
0.81558
0.833973
0.808613
0.811115
0.601088
0.830528
0.710411
0.868168
0.803628
0.83327
0.799083
0.786105
0.785736
0.740001
0.821188
0.810951
0.811544
0.81339
0.775861
0.807882
0.584375
0.806083
0.813001
0.813153
0.795696
0.812073
0.611139
0.783511
0.558388
0.820776
0.796942
0.774559
0.801939
0.81368
0.812441
0.812474
0.737849
0.808278
0.811934
0.810393
0.803657
0.803825
0.74726
0.767334
0.809303
0.803733
0.696563
0.598001
0.490004
0.841028
0.806074
0.778614
0.78123
0.824266
0.803579
0.803969
0.818034
0.779256
0.756993
0.816156
0.807511
0.811172
0.837208
0.804845
0.811752
0.808263
0.483751
0.80345
0.811905
0.773753
0.819416
0.814214
0.825594
0.599793
0.710277
0.573153
0.828264
0.815608
0.743349
0.811846
0.676814
0.81377
0.81066
0.811905
0.803137
0.811852
0.577014
0.686465
0.80615
0.813308
0.79371
0.801312
0.831035
0.798745
0.803028
0.643185
0.807792
0.811967
0.804296
0.812271
0.802743
0.617096
0.814308
0.812386
0.572565
0.697386
0.793162
0.828201
0.697665
0.804007
0.793659
0.812146
0.756563
0.685002
0.810447
0.795916
0.79936
0.766373
0.540818
0.820243
0.673578
0.747741
0.73127
0.803976
0.79736
0.811467
0.660232
0.767602
0.803981
0.814996
0.592698
0.798955
0.825767
0.807207
0.539361
0.805608
0.783439
0.707344
0.706075
0.80041
0.819127
0.813014
0.808681
0.69976
0.739682
0.64152
0.832321
0.842889
0.816901
0.788182
0.865217
0.697011
0.813357
0.766792
0.790255
0.795545
0.811981
0.803993
0.811605
0.787095
0.755307
0.819753
0.796792
0.84213
0.719382
0.791399
0.805529
0.723297
0.803266
0.814492
0.57608
0.801955
0.799022
0.802796
0.821191
0.764313
0.800184
0.722676
0.812158
0.808841
0.72526
0.812159
0.816219
0.828656
0.805602
0.787142
0.797704
0.805646
0.726456
0.812469
0.801227
0.677676
0.806915
0.780305
0.831898
0.82089
0.81901
0.839306
0.848311
0.699312
0.813733
0.795563
0.787327
0.617609
0.816955
0.803686
0.812241
0.776201
0.853467
0.832805
0.78183
0.84209
0.779806
0.800644
0.772002
0.812233
0.721753
0.635877
0.844205
0.661119
0.792825
0.839727
0.81245
0.671268
0.809247
0.751938
0.803986
0.799016
0.781385
0.804165
0.801124
0.802808
0.801906
0.785636
0.81204
0.781457
0.816276
0.807484
0.712809
0.783882
0.815167
0.812472
0.8055
0.564168
0.825127
0.812877
0.812062
0.703681
0.804788
0.801131
0.801367
0.815912
0.746218
0.815995
0.800608
0.804607
0.755285
0.811503
0.812755
0.805954
0.769046
0.807958
0.812999
0.808056
0.815844
0.808361
0.806075
0.822946
0.804609
0.788783
0.806266
0.812209
0.818174
0.778792
0.703612
0.81379
0.812194
0.800815
0.742541
0.788828
0.65416
0.803394
0.540399
0.803176
0.814436
0.774927
0.834602
0.515672
0.809495
0.738495
0.8105
0.534432
0.804402
0.827884
0.813342
0.818747
0.734377
0.840944
0.553834
0.823551
0.702683
0.799625
0.478139
0.669949
0.812582
0.812079
0.741814
0.801046
0.820889
0.612137
0.822011
0.770903
0.833507
0.812084
0.814175
0.813162
0.803835
0.836883
0.810706
0.80377
0.476446
0.803119
0.843498
0.802262
0.801389
0.767628
0.805466
0.812021
0.812177
0.796662
0.734364
0.810457
0.815517
0.603104
0.804178
0.53776
0.815679
0.539855
0.812023
0.770444
0.682635
0.733425
0.783097
0.713152
0.841602
0.813734
0.796919
0.803987
0.703409
0.802567
0.78949
0.802463
0.814993
0.801759
0.731324
0.698215
0.800669
0.772328
0.519128
0.811237
0.663586
0.794126
0.705424
0.825054
0.80947
0.825071
0.810225
0.837218
0.807316
0.580268
0.829266
0.807073
0.801607
0.815457
0.812015
0.812626
0.814589
0.825147
0.816413
0.618227
0.804759
0.800666
0.812926
0.692253
0.802324
0.823303
0.756426
0.688653
0.807547
0.688596
0.731747
0.810093
0.812742
0.668632
0.841486
0.766998
0.805402
0.79651
0.80983
0.844506
0.80108
0.539122
0.814917
0.707927
0.534863
0.778181
0.758205
0.769581
0.812229
0.80352
0.816407
0.812048
0.585923
0.78751
0.831311
0.812127
0.591343
0.721714
0.635154
0.816682
0.810494
0.691003
0.803996
0.812201
0.799393
0.83428
0.606311
0.840354
0.740144
0.811993
0.812504
0.669537
0.812564
0.720829
0.79185
0.716329
0.81193
0.7845
0.634051
0.724238
0.71251
0.833159
0.809443
0.819345
0.822054
0.803349
0.808532
0.802876
0.817656
0.803269
0.687328
0.803455
0.603591
0.776766
0.807189
0.802366
0.812201
0.824282
0.80333
0.717121
0.710157
0.667327
0.790333
0.816753
0.749015
0.580233
0.751547
0.810288
0.801865
0.760245
0.803634
0.823162
0.753274
0.568923
0.702234
0.79868
0.8122
0.864302
0.814659
0.811806
0.851829
0.799636
0.801865
0.814434
0.812296
0.805391
0.717727
0.80916
0.695609
0.862242
0.778724
0.813463
0.57503
0.796566
0.529353
0.583344
0.585651
0.807956
0.803636
0.80931
0.758227
0.803559
0.532465
0.782277
0.802983
0.734658
0.814369
0.801702
0.81587
0.842902
0.519038
0.812075
0.802089
0.809633
0.816745
0.812912
0.812384
0.754208
0.797223
0.79881
0.803239
0.797639
0.810763
0.845386
0.818592
0.723799
0.804693
0.608788
0.813241
0.812099
0.586727
0.766899
0.766965
0.536528
0.784322
0.803647
0.878271
0.798436
0.813143
0.755278
0.794437
0.797116
0.809281
0.782706
0.542151
0.710713
0.680496
0.781081
0.814687
0.802909
0.821842
0.790254
0.801869
0.812838
0.798152
0.852165
0.704834
0.811913
0.780707
0.531152
0.516642
0.81295
0.803552
0.805455
0.560536
0.796998
0.80375
0.659197
0.813771
0.790665
0.806619
0.814853
0.534836
0.72443
0.718952
0.812503
0.832078
0.630101
0.789851
0.716895
0.813644
0.827282
0.779464
0.773209
0.535435
0.811573
0.802412
0.723705
0.852113
0.805826
0.722891
0.739908
0.763934
0.81086
0.563547
0.796713
0.737959
0.800336
0.821908
0.720033
0.799248
0.811798
0.716569
0.813026
0.706042
0.816029
0.798277
0.759645
0.690175
0.808953
0.800015
0.813418
0.669649
0.805382
0.804909
0.811651
0.699527
0.812203
0.808444
0.831773
0.652749
0.815537
0.740811
0.811993
0.805778
0.842223
0.803693
0.818957
0.749074
0.81523
0.838814
0.832847
0.81648
0.845675
0.752311
0.847842
0.82607
0.803895
0.825768
0.805634
0.646694
0.778123
0.813975
0.746879
0.695322
0.798528
0.804139
0.680557
0.79751
0.538143
0.848536
0.69638
0.706293
0.813618
0.774513
0.806929
0.798949
0.80699
0.803897
0.812082
0.835704
0.730158
0.772191
0.58838
0.810077
0.777046
0.810935
0.805124
0.570161
0.802915
0.802535
0.807549
0.798704
0.816776
0.808166
0.709629
0.823163
0.848011
0.684502
0.743692
0.812239
0.800999
0.712519
0.814329
0.754425
0.796807
0.802918
0.805381
0.837172
0.668814
0.723156
0.80081
0.702092
0.772668
0.832177
0.532174
0.691374
0.799593
0.804298
0.803369
0.741739
0.822417
0.806945
0.80367
0.808145
0.813357
0.696146
0.649445
0.809689
0.813857
0.799308
0.8716
0.802772
0.812425
0.799059
0.810011
0.811331
0.808388
0.653231
0.814763
0.81663
0.803447
0.801947
0.799452
0.617387
0.809766
0.810578
0.812488
0.862425
0.81448
0.801506
0.480993
0.836381
0.692941
0.826428
0.805832
0.813808
0.824091
0.809164
0.812136
0.731101
0.551515
0.492098
0.812397
0.809022
0.534338
0.795584
0.814545
0.833326
0.504321
0.809602
0.81349
0.802319
0.809107
0.530567
0.813179
0.808263
0.560098
0.81228
0.815316
0.538986
0.808832
0.81273
0.775873
0.806331
0.811209
0.809576
0.799066
0.825914
0.534007
0.83024
0.815824
0.804077
0.74217
0.786235
0.81143
0.809417
0.802191
0.815989
0.800715
0.657451
0.806228
0.589614
0.812041
0.659945
0.746397
0.797014
0.718354
0.803547
0.579836
0.849758
0.812277
0.812401
0.799342
0.802732
0.803184
0.813664
0.814423
0.670188
0.717886
0.726379
0.814837
0.721562
0.577349
0.817439
0.783766
0.827912
0.811753
0.809402
0.732569
0.536176
0.79874
0.7901
0.49652
0.813909
0.813074
0.735651
0.805937
0.768564
0.607282
0.810012
0.814674
0.788695
0.609904
0.802326
0.783001
0.82639
0.813042
0.810463
0.811913
0.812902
0.71551
0.800121
0.815797
0.695061
0.480871
0.733086
0.79882
0.730916
0.813079
0.798198
0.805543
0.782604
0.867346
0.803557
0.801686
0.825816
0.859351
0.804627
0.815747
0.794399
0.815965
0.789188
0.744069
0.811934
0.804273
0.816283
0.803256
0.790876
0.842827
0.766133
0.812801
0.773428
0.803772
0.642637
0.509659
0.801003
0.802186
0.809605
0.798168
0.799727
0.812002
0.772942
0.804677
0.812083
0.782254
0.816961
0.77717
0.59352
0.805061
0.760906
0.776251
0.750542
0.763676
0.793946
0.788605
0.823063
0.787542
0.809436
0.803371
0.765196
0.81558
0.54248
0.72965
0.810614
0.814061
0.811484
0.80239
0.812904
0.810569
0.805769
0.821212
0.809702
0.782988
0.816667
0.801761
0.790542
0.795917
0.805181
0.586277
0.803637
0.792199
0.574699
0.813228
0.807251
0.806058
0.810776
0.702459
0.75485
0.821165
0.774905
0.811409
0.816388
0.722049
0.804493
0.824155
0.720158
0.79945
0.809588
0.77862
0.804781
0.837045
0.801928
0.817386
0.772583
0.805348
0.800365
0.813148
0.802187
0.797977
0.588898
0.815283
0.786796
0.806647
0.825673
0.691459
0.828598
0.820009
0.505617
0.806446
0.804464
0.801558
0.812338
0.824286
0.82411
0.804922
0.805974
0.814236
0.813397
0.803527
0.812637
0.80479
0.749311
0.708483
0.780968
0.813735
0.812154
0.77592
0.75785
0.813946
0.82498
0.810545
0.812296
0.691894
0.501048
0.747771
0.817594
0.806783
0.816306
0.844223
0.799953
0.715084
0.654455
0.799745
0.804762
0.694405
0.812743
0.671465
0.836851
0.729314
0.81292
0.895267
0.81563
0.800882
0.777801
0.811126
0.681709
0.814215
0.808288
0.791542
0.805673
0.779424
0.800727
0.810046
0.780542
0.803582
0.852095
0.777031
0.80214
0.493344
0.803224
0.693982
0.804107
0.79447
0.788594
0.783675
0.722293
0.802161
0.788245
0.844494
0.813357
0.812519
0.81186
0.895525
0.746517
0.802751
0.73101
0.803162
0.798448
0.804538
0.716893
0.801
0.805521
0.639419
0.808725
0.748654
0.535155
0.846547
0.847368
0.75012
0.810785
0.794698
0.772093
0.731902
0.776044
0.785522
0.736298
0.803865
0.804465
0.719674
0.815377
0.804991
0.557122
0.812075
0.821509
0.813304
0.803515
0.610828
0.715217
0.80629
0.859204
0.484197
0.724651
0.806504
0.815984
0.796503
0.713153
0.710955
0.809038
0.813306
0.815076
0.837121
0.745163
0.754481
0.875764
0.806898
0.809303
0.795195
0.637995
0.598442
0.586191
0.657199
0.586596
0.764295
0.800789
0.803431
0.812341
0.809175
0.811493
0.860187
0.715668
0.823919
0.813962
0.817151
0.816702
0.813891
0.813039