# vtk DataFile Version 1.0
unstructured grid
ascii
DATASET UNSTRUCTURED_GRID
points 14760 float
-1 0 0
-1 1 0
2 0 0
2 1 0
0 0 0
1 0 0
-1 1 0.1
-1 0 0.1
0 0 0.1
1 0 0.1
2 0 0.1
2 1 0.1
-0.99 0 0
-0.98 0 0
-0.97 0 0
-0.96 0 0
-0.95 0 0
-0.94 0 0
-0.93 0 0
-0.92 0 0
-0.91 0 0
-0.9 0 0
-0.89 0 0
-0.88 0 0
-0.87 0 0
-0.86 0 0
-0.85 0 0
-0.84 0 0
-0.83 0 0
-0.82 0 0
-0.81 0 0
-0.8 0 0
-0.79 0 0
-0.78 0 0
-0.77 0 0
-0.76 0 0
-0.75 0 0
-0.74 0 0
-0.73 0 0
-0.72 0 0
-0.71 0 0
-0.7 0 0
-0.69 0 0
-0.68 0 0
-0.67 0 0
-0.66 0 0
-0.65 0 0
-0.64 0 0
-0.63 0 0
-0.62 0 0
-0.61 0 0
-0.6 0 0
-0.59 0 0
-0.58 0 0
-0.57 0 0
-0.56 0 0
-0.55 0 0
-0.54 0 0
-0.53 0 0
-0.52 0 0
-0.51 0 0
-0.5 0 0
-0.49 0 0
-0.48 0 0
-0.47 0 0
-0.46 0 0
-0.45 0 0
-0.44 0 0
-0.43 0 0
-0.42 0 0
-0.41 0 0
-0.4 0 0
-0.39 0 0
-0.38 0 0
-0.37 0 0
-0.36 0 0
-0.35 0 0
-0.34 0 0
-0.33 0 0
-0.32 0 0
-0.31 0 0
-0.3 0 0
-0.29 0 0
-0.28 0 0
-0.27 0 0
-0.26 0 0
-0.25 0 0
-0.24 0 0
-0.23 0 0
-0.22 0 0
-0.21 0 0
-0.2 0 0
-0.19 0 0
-0.18 0 0
-0.17 0 0
-0.16 0 0
-0.15 0 0
-0.14 0 0
-0.13 0 0
-0.12 0 0
-0.11 0 0
-0.1 0 0
-0.09 0 0
-0.08 0 0
-0.07 0 0
-0.06 0 0
-0.05 0 0
-0.04 0 0
-0.03 0 0
-0.02 0 0
-0.01 0 0
1.01 0 0
1.02 0 0
1.03 0 0
1.04 0 0
1.05 0 0
1.06 0 0
1.07 0 0
1.08 0 0
1.09 0 0
1.1 0 0
1.11 0 0
1.12 0 0
1.13 0 0
1.14 0 0
1.15 0 0
1.16 0 0
1.17 0 0
1.18 0 0
1.19 0 0
1.2 0 0
1.21 0 0
1.22 0 0
1.23 0 0
1.24 0 0
1.25 0 0
1.26 0 0
1.27 0 0
1.28 0 0
1.29 0 0
1.3 0 0
1.31 0 0
1.32 0 0
1.33 0 0
1.34 0 0
1.35 0 0
1.36 0 0
1.37 0 0
1.38 0 0
1.39 0 0
1.4 0 0
1.41 0 0
1.42 0 0
1.43 0 0
1.44 0 0
1.45 0 0
1.46 0 0
1.47 0 0
1.48 0 0
1.49 0 0
1.5 0 0
1.51 0 0
1.52 0 0
1.53 0 0
1.54 0 0
1.55 0 0
1.56 0 0
1.57 0 0
1.58 0 0
1.59 0 0
1.6 0 0
1.61 0 0
1.62 0 0
1.63 0 0
1.64 0 0
1.65 0 0
1.66 0 0
1.67 0 0
1.68 0 0
1.69 0 0
1.7 0 0
1.71 0 0
1.72 0 0
1.73 0 0
1.74 0 0
1.75 0 0
1.76 0 0
1.77 0 0
1.78 0 0
1.79 0 0
1.8 0 0
1.81 0 0
1.82 0 0
1.83 0 0
1.84 0 0
1.85 0 0
1.86 0 0
1.87 0 0
1.88 0 0
1.89 0 0
1.9 0 0
1.91 0 0
1.92 0 0
1.93 0 0
1.94 0 0
1.95 0 0
1.96 0 0
1.97 0 0
1.98 0 0
1.99 0 0
2 0.0100088 0
2 0.0204183 0
2 0.0312446 0
2 0.0425043 0
2 0.0542147 0
2 0.066394 0
2 0.079061 0
2 0.092235 0
2 0.105936 0
2 0.120186 0
2 0.135007 0
2 0.150421 0
2 0.166452 0
2 0.183124 0
2 0.200465 0
2 0.218499 0
2 0.237256 0
2 0.256763 0
2 0.277051 0
2 0.298152 0
2 0.320097 0
2 0.342921 0
2 0.366659 0
2 0.391347 0
2 0.417024 0
2 0.443728 0
2 0.471502 0
2 0.500387 0
2 0.530429 0
2 0.561674 0
2 0.594169 0
2 0.627966 0
2 0.663115 0
2 0.699672 0
2 0.737692 0
2 0.777235 0
2 0.818361 0
2 0.861133 0
2 0.905617 0
2 0.951882 0
1.95 1 0
1.9 1 0
1.85 1 0
1.8 1 0
1.75 1 0
1.7 1 0
1.65 1 0
1.6 1 0
1.55 1 0
1.5 1 0
1.45 1 0
1.4 1 0
1.35 1 0
1.3 1 0
1.25 1 0
1.2 1 0
1.15 1 0
1.1 1 0
1.05 1 0
1 1 0
0.95 1 0
0.9 1 0
0.85 1 0
0.8 1 0
0.75 1 0
0.7 1 0
0.65 1 0
0.6 1 0
0.55 1 0
0.5 1 0
0.45 1 0
0.4 1 0
0.35 1 0
0.3 1 0
0.25 1 0
0.2 1 0
0.15 1 0
0.1 1 0
0.05 1 0
3.69793e-12 1 0
-0.05 1 0
-0.1 1 0
-0.15 1 0
-0.2 1 0
-0.25 1 0
-0.3 1 0
-0.35 1 0
-0.4 1 0
-0.45 1 0
-0.5 1 0
-0.55 1 0
-0.6 1 0
-0.65 1 0
-0.7 1 0
-0.75 1 0
-0.8 1 0
-0.85 1 0
-0.9 1 0
-0.95 1 0
-1 0.951882 0
-1 0.905617 0
-1 0.861133 0
-1 0.818361 0
-1 0.777235 0
-1 0.737692 0
-1 0.699672 0
-1 0.663115 0
-1 0.627966 0
-1 0.594169 0
-1 0.561674 0
-1 0.530429 0
-1 0.500387 0
-1 0.471502 0
-1 0.443728 0
-1 0.417024 0
-1 0.391347 0
-1 0.366659 0
-1 0.342921 0
-1 0.320097 0
-1 0.298152 0
-1 0.277051 0
-1 0.256763 0
-1 0.237256 0
-1 0.218499 0
-1 0.200465 0
-1 0.183124 0
-1 0.166452 0
-1 0.150421 0
-1 0.135007 0
-1 0.120186 0
-1 0.105936 0
-1 0.092235 0
-1 0.079061 0
-1 0.066394 0
-1 0.0542147 0
-1 0.0425043 0
-1 0.0312446 0
-1 0.0204183 0
-1 0.0100088 0
0.00921362 0.00379763 0
0.0184561 0.00752451 0
0.0277268 0.0111804 0
0.0370253 0.0147652 0
0.0463511 0.0182786 0
0.0557034 0.0217203 0
0.0650819 0.0250903 0
0.074486 0.0283883 0
0.083915 0.0316141 0
0.0933685 0.0347675 0
0.102846 0.0378484 0
0.112347 0.0408565 0
0.12187 0.0437917 0
0.131416 0.0466538 0
0.140983 0.0494427 0
0.150572 0.0521581 0
0.160181 0.0547999 0
0.16981 0.0573681 0
0.179458 0.0598623 0
0.189125 0.0622825 0
0.198811 0.0646285 0
0.208514 0.0669001 0
0.218234 0.0690974 0
0.227971 0.07122 0
0.237724 0.073268 0
0.247493 0.0752411 0
0.257276 0.0771393 0
0.267073 0.0789625 0
0.276884 0.0807105 0
0.286708 0.0823832 0
0.296545 0.0839806 0
0.306394 0.0855025 0
0.316254 0.0869488 0
0.326125 0.0883196 0
0.336006 0.0896146 0
0.345896 0.0908339 0
0.355796 0.0919773 0
0.365704 0.0930447 0
0.375621 0.0940362 0
0.385544 0.0949517 0
0.395474 0.095791 0
0.40541 0.0965542 0
0.415352 0.0972412 0
0.425299 0.097852 0
0.43525 0.0983865 0
0.445205 0.0988447 0
0.455164 0.0992266 0
0.465125 0.0995321 0
0.475088 0.0997613 0
0.485052 0.0999141 0
0.495017 0.0999904 0
0.504983 0.0999904 0
0.514948 0.0999141 0
0.524912 0.0997613 0
0.534875 0.0995321 0
0.544836 0.0992266 0
0.554795 0.0988447 0
0.56475 0.0983865 0
0.574701 0.097852 0
0.584648 0.0972412 0
0.59459 0.0965542 0
0.604526 0.095791 0
0.614456 0.0949517 0
0.624379 0.0940362 0
0.634296 0.0930447 0
0.644204 0.0919773 0
0.654104 0.0908339 0
0.663994 0.0896146 0
0.673875 0.0883196 0
0.683746 0.0869488 0
0.693606 0.0855025 0
0.703455 0.0839806 0
0.713292 0.0823832 0
0.723116 0.0807105 0
0.732927 0.0789625 0
0.742724 0.0771393 0
0.752508 0.0752411 0
0.762276 0.073268 0
0.772029 0.07122 0
0.781766 0.0690974 0
0.791486 0.0669001 0
0.801189 0.0646285 0
0.810875 0.0622825 0
0.820542 0.0598623 0
0.83019 0.0573681 0
0.839819 0.0547999 0
0.849428 0.0521581 0
0.859017 0.0494427 0
0.868584 0.0466538 0
0.87813 0.0437917 0
0.887653 0.0408565 0
0.897154 0.0378484 0
0.906631 0.0347675 0
0.916085 0.0316141 0
0.925514 0.0283883 0
0.934918 0.0250903 0
0.944297 0.0217203 0
0.953649 0.0182786 0
0.962975 0.0147652 0
0.972273 0.0111804 0
0.981544 0.00752451 0
0.990786 0.00379763 0
-1 0.951882 0.1
-1 0.905617 0.1
-1 0.861133 0.1
-1 0.818361 0.1
-1 0.777235 0.1
-1 0.737692 0.1
-1 0.699672 0.1
-1 0.663115 0.1
-1 0.627966 0.1
-1 0.594169 0.1
-1 0.561674 0.1
-1 0.530429 0.1
-1 0.500387 0.1
-1 0.471502 0.1
-1 0.443728 0.1
-1 0.417024 0.1
-1 0.391347 0.1
-1 0.366659 0.1
-1 0.342921 0.1
-1 0.320097 0.1
-1 0.298152 0.1
-1 0.277051 0.1
-1 0.256763 0.1
-1 0.237256 0.1
-1 0.218499 0.1
-1 0.200465 0.1
-1 0.183124 0.1
-1 0.166452 0.1
-1 0.150421 0.1
-1 0.135007 0.1
-1 0.120186 0.1
-1 0.105936 0.1
-1 0.092235 0.1
-1 0.079061 0.1
-1 0.066394 0.1
-1 0.0542147 0.1
-1 0.0425043 0.1
-1 0.0312446 0.1
-1 0.0204183 0.1
-1 0.0100088 0.1
-0.99 0 0.1
-0.98 0 0.1
-0.97 0 0.1
-0.96 0 0.1
-0.95 0 0.1
-0.94 0 0.1
-0.93 0 0.1
-0.92 0 0.1
-0.91 0 0.1
-0.9 0 0.1
-0.89 0 0.1
-0.88 0 0.1
-0.87 0 0.1
-0.86 0 0.1
-0.85 0 0.1
-0.84 0 0.1
-0.83 0 0.1
-0.82 0 0.1
-0.81 0 0.1
-0.8 0 0.1
-0.79 0 0.1
-0.78 0 0.1
-0.77 0 0.1
-0.76 0 0.1
-0.75 0 0.1
-0.74 0 0.1
-0.73 0 0.1
-0.72 0 0.1
-0.71 0 0.1
-0.7 0 0.1
-0.69 0 0.1
-0.68 0 0.1
-0.67 0 0.1
-0.66 0 0.1
-0.65 0 0.1
-0.64 0 0.1
-0.63 0 0.1
-0.62 0 0.1
-0.61 0 0.1
-0.6 0 0.1
-0.59 0 0.1
-0.58 0 0.1
-0.57 0 0.1
-0.56 0 0.1
-0.55 0 0.1
-0.54 0 0.1
-0.53 0 0.1
-0.52 0 0.1
-0.51 0 0.1
-0.5 0 0.1
-0.49 0 0.1
-0.48 0 0.1
-0.47 0 0.1
-0.46 0 0.1
-0.45 0 0.1
-0.44 0 0.1
-0.43 0 0.1
-0.42 0 0.1
-0.41 0 0.1
-0.4 0 0.1
-0.39 0 0.1
-0.38 0 0.1
-0.37 0 0.1
-0.36 0 0.1
-0.35 0 0.1
-0.34 0 0.1
-0.33 0 0.1
-0.32 0 0.1
-0.31 0 0.1
-0.3 0 0.1
-0.29 0 0.1
-0.28 0 0.1
-0.27 0 0.1
-0.26 0 0.1
-0.25 0 0.1
-0.24 0 0.1
-0.23 0 0.1
-0.22 0 0.1
-0.21 0 0.1
-0.2 0 0.1
-0.19 0 0.1
-0.18 0 0.1
-0.17 0 0.1
-0.16 0 0.1
-0.15 0 0.1
-0.14 0 0.1
-0.13 0 0.1
-0.12 0 0.1
-0.11 0 0.1
-0.1 0 0.1
-0.09 0 0.1
-0.08 0 0.1
-0.07 0 0.1
-0.06 0 0.1
-0.05 0 0.1
-0.04 0 0.1
-0.03 0 0.1
-0.02 0 0.1
-0.01 0 0.1
0.00921362 0.00379763 0.1
0.0184561 0.00752451 0.1
0.0277268 0.0111804 0.1
0.0370253 0.0147652 0.1
0.0463511 0.0182786 0.1
0.0557034 0.0217203 0.1
0.0650819 0.0250903 0.1
0.074486 0.0283883 0.1
0.083915 0.0316141 0.1
0.0933685 0.0347675 0.1
0.102846 0.0378484 0.1
0.112347 0.0408565 0.1
0.12187 0.0437917 0.1
0.131416 0.0466538 0.1
0.140983 0.0494427 0.1
0.150572 0.0521581 0.1
0.160181 0.0547999 0.1
0.16981 0.0573681 0.1
0.179458 0.0598623 0.1
0.189125 0.0622825 0.1
0.198811 0.0646285 0.1
0.208514 0.0669001 0.1
0.218234 0.0690974 0.1
0.227971 0.07122 0.1
0.237724 0.073268 0.1
0.247493 0.0752411 0.1
0.257276 0.0771393 0.1
0.267073 0.0789625 0.1
0.276884 0.0807105 0.1
0.286708 0.0823832 0.1
0.296545 0.0839806 0.1
0.306394 0.0855025 0.1
0.316254 0.0869488 0.1
0.326125 0.0883196 0.1
0.336006 0.0896146 0.1
0.345896 0.0908339 0.1
0.355796 0.0919773 0.1
0.365704 0.0930447 0.1
0.375621 0.0940362 0.1
0.385544 0.0949517 0.1
0.395474 0.095791 0.1
0.40541 0.0965542 0.1
0.415352 0.0972412 0.1
0.425299 0.097852 0.1
0.43525 0.0983865 0.1
0.445205 0.0988447 0.1
0.455164 0.0992266 0.1
0.465125 0.0995321 0.1
0.475088 0.0997613 0.1
0.485052 0.0999141 0.1
0.495017 0.0999904 0.1
0.504983 0.0999904 0.1
0.514948 0.0999141 0.1
0.524912 0.0997613 0.1
0.534875 0.0995321 0.1
0.544836 0.0992266 0.1
0.554795 0.0988447 0.1
0.56475 0.0983865 0.1
0.574701 0.097852 0.1
0.584648 0.0972412 0.1
0.59459 0.0965542 0.1
0.604526 0.095791 0.1
0.614456 0.0949517 0.1
0.624379 0.0940362 0.1
0.634296 0.0930447 0.1
0.644204 0.0919773 0.1
0.654104 0.0908339 0.1
0.663994 0.0896146 0.1
0.673875 0.0883196 0.1
0.683746 0.0869488 0.1
0.693606 0.0855025 0.1
0.703455 0.0839806 0.1
0.713292 0.0823832 0.1
0.723116 0.0807105 0.1
0.732927 0.0789625 0.1
0.742724 0.0771393 0.1
0.752508 0.0752411 0.1
0.762276 0.073268 0.1
0.772029 0.07122 0.1
0.781766 0.0690974 0.1
0.791486 0.0669001 0.1
0.801189 0.0646285 0.1
0.810875 0.0622825 0.1
0.820542 0.0598623 0.1
0.83019 0.0573681 0.1
0.839819 0.0547999 0.1
0.849428 0.0521581 0.1
0.859017 0.0494427 0.1
0.868584 0.0466538 0.1
0.87813 0.0437917 0.1
0.887653 0.0408565 0.1
0.897154 0.0378484 0.1
0.906631 0.0347675 0.1
0.916085 0.0316141 0.1
0.925514 0.0283883 0.1
0.934918 0.0250903 0.1
0.944297 0.0217203 0.1
0.953649 0.0182786 0.1
0.962975 0.0147652 0.1
0.972273 0.0111804 0.1
0.981544 0.00752451 0.1
0.990786 0.00379763 0.1
1.01 0 0.1
1.02 0 0.1
1.03 0 0.1
[...]
CELL_DATA 14313
SCALARS rho float
LOOKUP_TABLE default
0.781288
0.824162
0.805877
0.537397
0.766217
0.811712
0.812384
0.812269
0.810995
0.815107
0.811948
0.798862
0.796945
0.517057
0.812754
0.83183
0.808746
0.807699
0.809971
0.805334
0.810615
0.813909
0.812316
0.765957
0.811946
0.81461
0.742345
0.709808
0.823684
0.824278
0.81181
0.794463
0.799445
0.811917
0.804658
0.810568
0.679614
0.808883
0.811502
0.802336
0.752474
0.810283
0.541601
0.701897
0.817527
0.835667
0.810768
0.77738
0.804362
0.850904
0.675313
0.653126
0.588983
0.81048
0.819579
0.782627
0.817512
0.814664
0.810788
0.812224
0.811818
0.818307
0.794441
0.839156
0.810243
0.813202
0.852645
0.783861
0.8405
0.812746
0.798295
0.831392
0.486875
0.837145
0.725771
0.806859
0.824534
0.747032
0.696348
0.811286
0.591774
0.824631
0.833081
0.803464
0.80547
0.819191
0.811693
0.804442
0.826516
0.806983
0.779837
0.522324
0.807284
0.79784
0.725706
0.803827
0.814536
0.808823
0.803207
0.488494
0.806955
0.809532
0.81235
0.814163
0.748351
0.809277
0.802607
0.699467
0.834385
0.809886
0.813842
0.824788
0.811991
0.819222
0.804154
0.827327
0.819728
0.836157
0.778665
0.798675
0.811462
0.808878
0.859383
0.720595
0.843294
0.753305
0.789493
0.804441
0.814545
0.842806
0.809334
0.811844
0.860683
0.812141
0.823168
0.782593
0.806887
0.792218
0.817563
0.817217
0.812384
0.816659
0.803385
0.803428
0.796519
0.838972
0.805938
0.760636
0.795467
0.817245
0.797136
0.803528
0.812319
0.708888
0.82111
0.803714
0.723008
0.820997
0.811936
0.811844
0.818324
0.808698
0.646064
0.757424
0.823012
0.82432
0.713815
0.812539
0.827935
0.815353
0.688522
0.816207
0.71286
0.787844
0.808823
0.826003
0.808027
0.815385
0.820847
0.741443
0.81125
0.809403
0.773431
0.771852
0.790474
0.810951
0.812739
0.796969
0.496214
0.787172
0.75742
0.742624
0.770199
0.712979
0.812197
0.814831
0.807239
0.803377
0.806006
0.816715
0.760028
0.802876
0.82841
0.814758
0.833376
0.80334
0.816547
0.81421
0.811887
0.834524
0.803938
0.811117
0.795902
0.700826
0.813964
0.820585
0.809478
0.80711
0.834451
0.802847
0.802605
0.819192
0.805917
0.855276
0.809538
0.803098
0.817846
0.802461
0.812269
0.757165
0.635173
0.815037
0.697399
0.826781
0.802371
0.721106
0.811877
0.813935
0.814784
0.826176
0.791667
0.710535
0.747571
0.594783
0.81493
0.723722
0.799223
0.807083
0.837651
0.815012
0.574911
0.804029
0.72857
0.837264
0.801154
0.694583
0.811302
0.826969
0.814508
0.556715
0.813245
0.801099
0.798839
0.80596
0.78833
0.773815
0.815705
0.815521
0.529067
0.814541
0.813689
0.772104
0.80203
0.811926
0.780469
0.81719
0.782951
0.709012
0.802799
0.805813
0.567306
0.543262
0.756168
0.807879
0.820367
0.790048
0.811573
0.814732
0.77603
0.805927
0.803485
0.816607
0.829401
0.793088
0.808289
0.811471
0.631252
0.818852
0.699217
0.797189
0.793266
0.777556
0.835554
0.809315
0.796569
0.676163
0.667937
0.803555
0.80563
0.81961
0.804222
0.79832
0.651988
0.815041
0.822055
0.818086
0.811949
0.812799
0.799364
0.790893
0.814096
0.569541
0.807873
0.812138
0.814341
0.812509
0.765233
0.821471
0.801494
0.814134
0.812989
0.753866
0.752382
0.803401
0.803482
0.523409
0.812363
0.811871
0.807062
0.811739
0.803298
0.800941
0.727995
0.711861
0.814312
0.748313
0.757913
0.818392
0.837416
0.814116
0.802139
0.808482
0.812182
0.803447
0.816975
0.782488
0.816906
0.811765
0.810657
0.795067
0.810367
0.792089
0.811756
0.589579
0.799511
0.800358
0.811848
0.813423
0.767547
0.801595
0.812127
0.812349
0.817959
0.770209
0.818262
0.808308
0.752458
0.761688
0.812865
0.805742
0.829123
0.824667
0.823147
0.804264
0.593974
0.778943
0.600167
0.803375
0.802915
0.800719
0.814202
0.874003
0.525895
0.593293
0.838264
0.871964
0.811785
0.690073
0.80193
0.716029
0.80678
0.815684
0.706932
0.650784
0.751062
0.812856
0.475769
0.873534
0.824318
0.798434
0.808768
0.478633
0.739573
0.781681
0.817526
0.804606
0.800515
0.83018
0.812239
0.705455
0.684816
0.801537
0.806051
0.809224
0.811507
0.808783
0.811828
0.735474
0.791162
0.797177
0.802494
0.764007
0.8176
0.807869
0.812786
0.811544
0.755047
0.805597
0.804072
0.793188
0.81206
0.815643
0.806886
0.657123
0.787437
0.817448
0.812822
0.8122
0.807344
0.812637
0.804137
0.821113
0.821465
0.612906
0.855116
0.743983
0.820549
0.804897
0.747003
0.824461
0.800889
0.825407
0.54828
0.799419
0.67902
0.811906
0.80921
0.521685
0.799899
0.804623
0.797998
0.802072
0.800603
0.772205
0.811767
0.592308
0.805703
0.806082
0.799178
0.818264
0.764901
0.811902
0.809273
0.797824
0.816153
0.796443
0.802846
0.81226
0.634052
0.769233
0.733858
0.490004
0.824673
0.568039
0.802606
0.818757
0.856582
0.702855
0.739516
0.812057
0.806091
0.800877
0.793653
0.765855
0.810835
0.812326
0.79707
0.813044
0.816376
0.47163
0.812292
0.81319
0.80633
0.810021
0.60409
0.815125
0.821483
0.705412
0.78876
0.813099
0.801029
0.828116
0.831294
0.804077
0.742448
0.472883
0.8138
0.570934
0.798698
0.803322
0.774704
0.811931
0.750372
0.811227
0.80657
0.803355
0.48575
0.814197
0.827377
0.830525
0.814727
0.803473
0.803218
0.812321
0.758506
0.847299
0.836786
0.709103
0.798576
0.653311
0.778006
0.66745
0.816024
0.836038
0.798887
0.63762
0.765749
0.813602
0.82439
0.832547
0.8136
0.670071
0.537466
0.804556
0.815846
0.801282
0.815764
0.804688
0.771589
0.851069
0.815171
0.804038
0.816695
0.798999
0.744028
0.79794
0.811326
0.59645
0.689073
0.803308
0.810672
0.804801
0.574978
0.811517
0.60472
0.81233
0.767546
0.816844
0.816249
0.753535
0.806502
0.792352
0.805145
0.836814
0.837105
0.831275
0.804778
0.816069
0.579356
0.812365
0.85676
0.825053
0.829236
0.804194
0.820728
0.799282
0.839791
0.808744
0.814374
0.67245
0.630323
0.835698
0.813298
0.840646
0.715762
0.801177
0.763439
0.797156
0.809563
0.793105
0.806993
0.813013
0.822643
0.828062
0.830028
0.805408
0.750126
0.804056
0.729258
0.793144
0.821472
0.800894
0.815026
0.758197
0.805055
0.804312
0.846951
0.809023
0.803408
0.805979
0.834255
0.831317
0.803585
0.856279
0.795915
0.820012
0.661372
0.80316
0.800236
0.798767
0.831675
0.608707
0.806327
0.805548
0.658432
0.81451
0.829293
0.81378
0.80338
0.806026
0.802496
0.816017
0.798839
0.72057
0.513408
0.813329
0.805583
0.801773
0.804497
0.802957
0.803678
0.81066
0.79803
0.813657
0.583173
0.812751
0.8094
0.811819
0.842323
0.813654
0.834186
0.811335
0.797598
0.812725
0.682346
0.803723
0.850156
0.812758
0.793002
0.814124
0.633829
0.805449
0.566073
0.662041
0.673249
0.809547
0.815446
0.812427
0.49702
0.694411
0.803464
0.830741
0.747296
0.831298
0.805155
0.804675
0.796676
0.694035
0.751216
0.547134
0.802753
0.811603
0.804241
0.820829
0.669796
0.620141
0.853925
0.801494
0.813972
0.728916
0.813486
0.526233
0.820783
0.703153
0.813779
0.817464
0.801658
0.802106
0.825125
0.794836
0.803597
0.80385
0.63124
0.80658
0.653028
0.798739
0.798169
0.813666
0.81532
0.729063
0.815343
0.755805
0.803152
0.721532
0.804944
0.74597
0.671431
0.824497
0.812338
0.799061
0.726291
0.811334
0.658333
0.810863
0.802911
0.728427
0.825817
0.816304
0.637284
0.695975
0.825744
0.803654
0.725547
0.833635
0.834693
0.836085
0.811693
0.548076
0.751011
0.820986
0.820271
0.520789
0.639942
0.815556
0.812398
0.721706
0.778365
0.811986
0.807024
0.757904
0.812124
0.813444
0.80357
0.728643
0.80223
0.796864
0.812037
0.576798
0.805556
0.821736
0.574162
0.818113
0.845278
0.81195
0.676546
0.81168
0.811564
0.811787
0.801157
0.818668
0.803238
0.80668
0.804851
0.803309
0.813456
0.484819
0.809844
0.809655
0.691733
0.603032
0.786073
0.798284
0.812027
0.753272
0.563726
0.811373
0.783459
0.811998
0.821455
0.813435
0.825049
0.74828
0.590133
0.81147
0.839028
0.811946
0.709539
0.803437
0.72725
0.81309
0.811024
0.811854
0.817306
0.801244
0.813013
0.808328
0.757549
0.816193
0.812574
0.751714
0.791883
0.710702
0.55818
0.733473
0.781516
0.81577
0.81126
0.810602
0.81053
0.803294
0.795338
0.80806
0.707478
0.753413
0.811527
0.80342
0.804822
0.818329
0.604012
0.813505
0.80389
0.843512
0.807792
0.636175
0.793672
0.803802
0.84244
0.69059
0.561701
0.576904
0.635153
0.817562
0.80449
0.560204
0.585196
0.819903
0.812128
0.889274
0.8048
0.829411
0.812371
0.769437
0.810745
0.812537
0.812018
0.810578
0.81195
0.797957
0.812121
0.640559
0.815672
0.803627
0.809589
0.756683
0.817105
0.610859
0.855371
0.803926
0.826964
0.811945
0.807994
0.7481
0.822204
0.811868
0.837176
0.811734
0.812461
0.641058
0.826721
0.810087
0.812326
0.83657
0.822518
0.55368
0.796402
0.802716
0.810872
0.816936
0.803935
0.800159
0.815154
0.765055
0.804901
0.815799
0.863432
0.831107
0.586611
0.796012
0.754052
0.813974
0.761461
0.81934
0.804829
0.806381
0.812177
0.789093
0.805567
0.815455
0.821808
0.787326
0.668252
0.733697
0.6977
0.814075
0.835832
0.837769
0.733412
0.808799
0.753939
0.60953
0.811972
0.799409
0.811733
0.803572
0.630693
0.80221
0.776473
0.736716
0.810701
0.744642
0.807541
0.816399
0.859711
0.80962
0.807079
0.739922
0.812432
0.775826
0.839348
0.883733
0.79696
0.520379
0.799619
0.607497
0.769244
0.657197
0.799149
0.494437
0.814937
0.8497
0.805923
0.810556
0.819649
0.802782
0.803251
0.696569
0.822882
0.811875
0.804146
0.806555
0.792421
0.803556
0.806771
0.628263
0.816471
0.801956
0.845125
0.807934
0.80436
0.801431
0.812914
0.813028
0.807491
0.80353
0.787488
0.812091
0.79524
0.801679
0.813201
0.771729
0.566951
0.8126
0.818094
0.803969
0.724677
0.801117
0.807658
0.80348
0.69813
0.872974
0.811546
0.816663
0.811974
0.847657
0.778126
0.812047
0.787582
0.815778
0.821981
0.663149
0.812083
0.728519
0.818983
0.718076
0.799413
0.751124
0.802461
0.569683
0.809142
0.735117
0.476141
0.82012
0.661746
0.769067
0.817163
0.812241
0.776496
0.81118
0.718587
0.638039
0.826111
0.698045
0.816639
0.7673
0.801589
0.807922
0.813196
0.652146
0.804304
0.774856
0.809516
0.811997
0.82893
0.806107
0.687445
0.755409
0.651246
0.798116
0.802954
0.811881
0.815343
0.811885
0.811456
0.809297
0.663364
0.731223
0.487349
0.696267
0.813817
0.808053
0.832916
0.809398
0.814624
0.710245
0.873917
0.815096
0.826131
0.571345
0.822817
0.812099
0.84063
0.845503
0.826512
0.829965
0.820115
0.540319
0.805723
0.814856
0.716119
0.816695
0.801248
0.812033
0.807928
0.812522
0.812589
0.767107
0.721347
0.797937
0.800285
0.571566
0.813939
0.858972
0.815236
0.658528
0.822425
0.813043
0.819463
0.835116
0.686728
0.486281
0.80484
0.8398
0.806057
0.80387
0.814135
0.801557
0.812408
0.809437
0.7999
0.804239
0.804678
0.812388
0.80555
0.806155
0.798522
0.83605
0.830625
0.853166
0.812812
0.807327
0.814385
0.8129
0.811987
0.810936
0.815504
0.833932
0.808595
0.811021
0.600525
0.830471
0.711132
0.868138
0.803614
0.833229
0.798986
0.786064
0.785658
0.740044
0.821099
0.810924
0.811444
0.813301
0.775803
0.807793
0.58417
0.806065
0.81291
0.813066
0.795667
0.811975
0.610988
0.783465
0.558159
0.820712
0.796844
0.774493
0.801842
0.813595
0.812345
0.812379
0.737953
0.808193
0.811832
0.810305
0.803644
0.803811
0.747308
0.767225
0.809227
0.803722
0.696143
0.597778
0.489584
0.840984
0.806059
0.778547
0.781183
0.824225
0.80357
0.803959
0.817959
0.779205
0.757
0.816077
0.807428
0.811096
0.837168
0.80482
0.811648
0.808245
0.483297
0.803438
0.811803
0.773678
0.819347
0.814129
0.825531
0.599244
0.710374
0.572864
0.82822
0.815532
0.743241
0.811818
0.676674
0.813669
0.810597
0.811801
0.80307
0.811819
0.576804
0.686278
0.80608
0.813219
0.793687
0.801231
0.830989
0.798647
0.802991
0.642795
0.807719
0.811863
0.804268
0.812173
0.802737
0.616846
0.814207
0.81229
0.572335
0.696958
0.793079
0.828104
0.697355
0.803993
0.793626
0.812045
0.756554
0.684875
0.810344
0.79589
0.799267
0.766324
0.540478
0.820179
0.673438
0.747609
0.73134
0.803967
0.797262
0.811364
0.659968
0.767535
0.803966
0.814914
0.592521
0.798857
0.825725
0.807132
0.538992
0.805591
0.783396
0.706975
0.705699
0.800391
0.819054
0.812923
0.808597
0.699345
0.739594
0.641368
0.832265
0.842852
0.816828
0.788147
0.865189
0.696678
0.813268
0.766715
0.790198
0.795516
0.811878
0.803981
0.811503
0.787076
0.7552
0.819681
0.796693
0.842083
0.719285
0.791381
0.805513
0.723205
0.8032
0.814409
0.575872
0.80194
0.798925
0.802791
0.821122
0.764229
0.800155
0.72257
0.812058
0.808823
0.725151
0.812059
0.816143
0.828596
0.805578
0.78708
0.797606
0.805607
0.726577
0.812373
0.801129
0.67747
0.806878
0.780254
0.831849
0.820839
0.81894
0.839256
0.848184
0.698968
0.813646
0.795503
0.78729
0.617461
0.816894
0.803603
0.812143
0.776115
0.853433
0.832759
0.781785
0.841963
0.779766
0.800632
0.771932
0.812134
0.721646
0.635725
0.844164
0.660891
0.792804
0.839689
0.812355
0.671079
0.809229
0.751858
0.803963
0.798997
0.781299
0.804153
0.801027
0.80279
0.801888
0.785595
0.811941
0.78139
0.816197
0.807458
0.712575
0.783819
0.815133
0.812377
0.805482
0.563945
0.825073
0.812796
0.811968
0.703295
0.804762
0.801081
0.801275
0.815832
0.746207
0.815915
0.800532
0.804546
0.755165
0.811403
0.812733
0.805886
0.768972
0.807875
0.812915
0.808039
0.815785
0.808288
0.806061
0.82288
0.804595
0.78872
0.80618
0.81211
0.818139
0.778698
0.703499
0.813704
0.812168
0.800717
0.742412
0.788792
0.654022
0.803389
0.540097
0.803165
0.814352
0.774874
0.83455
0.515014
0.809406
0.738407
0.810398
0.53414
0.804334
0.827788
0.813256
0.818673
0.734209
0.840895
0.553466
0.823499
0.702384
0.799526
0.47718
0.669813
0.812491
0.811976
0.741692
0.800948
0.820838
0.611985
0.821958
0.770915
0.833451
0.811981
0.814101
0.813073
0.803824
0.836767
0.810641
0.803755
0.47584
0.803106
0.843453
0.802219
0.801307
0.76756
0.805388
0.811922
0.812077
0.796562
0.734277
0.810372
0.815437
0.602943
0.804159
0.536289
0.815598
0.539388
0.811921
0.77036
0.682471
0.733497
0.783084
0.71299
0.841475
0.813695
0.79686
0.803968
0.703296
0.802553
0.789426
0.802439
0.814934
0.801684
0.731465
0.697806
0.800581
0.772261
0.518822
0.811138
0.663112
0.794094
0.705686
0.825
0.809374
0.825007
0.810169
0.83714
0.807218
0.579805
0.829196
0.806976
0.801518
0.815376
0.811913
0.812536
0.814562
0.825085
0.816335
0.617976
0.804745
0.800654
0.812834
0.692141
0.802309
0.823212
0.756347
0.688532
0.807486
0.688238
0.731646
0.810018
0.812649
0.668495
0.841441
0.766915
0.805389
0.79641
0.809727
0.844461
0.801056
0.538653
0.814835
0.708348
0.516728
0.77818
0.75808
0.769503
0.81213
0.803515
0.816343
0.811943
0.58574
0.787491
0.8312
0.812027
0.591116
0.72143
0.634751
0.816604
0.8104
0.690892
0.803979
0.812106
0.799296
0.834176
0.605968
0.840304
0.740163
0.8119
0.812409
0.669042
0.812474
0.721013
0.791791
0.716547
0.811854
0.784412
0.633844
0.72413
0.712278
0.833112
0.809346
0.819273
0.821985
0.803343
0.808505
0.802787
0.817596
0.80325
0.686952
0.803428
0.603428
0.776681
0.807173
0.802286
0.812102
0.824218
0.803327
0.716833
0.710571
0.667138
0.79025
0.816691
0.74908
0.579058
0.751447
0.810184
0.80185
0.760167
0.803564
0.823116
0.753197
0.568713
0.701927
0.798587
0.812101
0.864269
0.814568
0.811703
0.851793
0.799541
0.801844
0.814349
0.8122
0.805311
0.717568
0.80914
0.695387
0.862207
0.77863
0.813375
0.573609
0.796466
0.529064
0.583159
0.584651
0.807872
0.80363
0.809228
0.758101
0.803553
0.532117
0.782184
0.802887
0.734497
0.814289
0.801602
0.815791
0.84286
0.509331
0.812
0.802079
0.809533
0.816715
0.812821
0.812287
0.754097
0.797124
0.798783
0.80323
0.797542
0.810677
0.845264
0.818518
0.723645
0.804673
0.60666
0.813152
0.811997
0.586464
0.766819
0.766886
0.53617
0.784233
0.803637
0.878246
0.798337
0.813064
0.755158
0.794408
0.797017
0.809213
0.782659
0.541844
0.71136
0.68036
0.781031
0.814614
0.802881
0.821803
0.790219
0.80179
0.812746
0.798054
0.852127
0.704454
0.811812
0.780656
0.530808
0.51547
0.812859
0.80354
0.805437
0.560279
0.796978
0.803738
0.659061
0.813685
0.790582
0.806522
0.814773
0.532462
0.724587
0.718699
0.812411
0.831976
0.629837
0.789815
0.71714
0.813558
0.827227
0.779412
0.77312
0.535002
0.811483
0.802405
0.723611
0.851972
0.805812
0.722613
0.739817
0.763842
0.810757
0.563332
0.796692
0.737953
0.800322
0.821818
0.720284
0.799149
0.811723
0.716472
0.812999
0.705918
0.81595
0.798179
0.759669
0.689734
0.808877
0.799997
0.81333
0.669513
0.805368
0.804825
0.81155
0.699402
0.812104
0.808361
0.831726
0.647634
0.815457
0.74072
0.811893
0.805693
0.842175
0.80368
0.818884
0.749009
0.815149
0.838763
0.832789
0.81642
0.845553
0.752307
0.847705
0.825962
0.803817
0.825722
0.805597
0.646553
0.778043
0.813889
0.74677
0.695083
0.79843
0.804055
0.679626
0.797411
0.537842
0.848418
0.695951
0.706169
0.813532
0.774449
0.806868
0.798926
0.806931
0.803885
0.811989
0.835598
0.729935
0.772114
0.588111
0.809973
0.777009
0.810884
0.805111
0.569941
0.802903
0.802529
0.80746
0.798612
0.8167
0.808148
0.709932
0.823097
0.847873
0.684367
0.743583
0.812143
0.800902
0.712246
0.814259
0.754309
0.796778
0.802896
0.805357
0.837121
0.668654
0.723337
0.800797
0.701935
0.772633
0.832125
0.531881
0.691189
0.799578
0.804284
0.803362
0.741753
0.822351
0.806862
0.80366
0.808124
0.813268
0.696037
0.649075
0.80967
0.813771
0.799221
0.871416
0.802714
0.812329
0.799043
0.80993
0.811242
0.808359
0.652933
0.814738
0.816553
0.803436
0.80185
0.79936
0.617223
0.809684
0.810485
0.812392
0.862261
0.814399
0.801482
0.480461
0.836316
0.692457
0.826367
0.805754
0.813773
0.823985
0.809061
0.812041
0.730889
0.551252
0.491511
0.812304
0.808931
0.533959
0.795554
0.814464
0.833252
0.503889
0.809568
0.813405
0.80225
0.809074
0.530099
0.81309
0.808242
0.559845
0.812184
0.815235
0.538649
0.808744
0.81264
0.775818
0.806264
0.811157
0.809472
0.798979
0.825853
0.533713
0.830153
0.815797
0.804066
0.74205
0.786172
0.811331
0.80938
0.802092
0.815919
0.800701
0.656949
0.806142
0.578217
0.811937
0.659797
0.746275
0.796994
0.718243
0.803541
0.579643
0.849718
0.812178
0.812312
0.799245
0.802701
0.80318
0.813634
0.814339
0.670051
0.717611
0.726165
0.814755
0.721289
0.57296
0.817379
0.783696
0.827857
0.811669
0.809374
0.732468
0.53575
0.798715
0.790021
0.496018
0.813824
0.812984
0.735565
0.805904
0.76849
0.606932
0.809932
0.814639
0.788622
0.609729
0.802306
0.782955
0.826327
0.812952
0.810359
0.81189
0.812811
0.715789
0.800062
0.815717
0.694592
0.480365
0.73288
0.798801
0.73074
0.812989
0.7981
0.805521
0.782558
0.867315
0.803554
0.801668
0.825757
0.859315
0.804613
0.815677
0.794317
0.815887
0.78915
0.743981
0.811906
0.804259
0.816208
0.803247
0.790796
0.84278
0.766083
0.812709
0.773359
0.803715
0.642495
0.509284
0.800982
0.80216
0.809503
0.798147
0.799667
0.811898
0.772899
0.804609
0.81198
0.782187
0.816897
0.777164
0.593265
0.805042
0.760901
0.77619
0.750438
0.763664
0.793914
0.788569
0.823025
0.787507
0.809417
0.803367
0.765106
0.815499
0.542169
0.729484
0.810525
0.813981
0.811388
0.802314
0.81282
0.810514
0.805748
0.821143
0.809683
0.782941
0.816592
0.801679
0.790463
0.795887
0.805165
0.586063
0.80362
0.792166
0.574403
0.813176
0.807231
0.806044
0.810756
0.702301
0.754898
0.821096
0.774894
0.811383
0.816311
0.722275
0.804479
0.824091
0.720024
0.799422
0.809499
0.778561
0.80471
0.83695
0.8019
0.81731
0.772514
0.805335
0.800288
0.813061
0.802097
0.79788
0.588625
0.815202
0.786709
0.806631
0.82561
0.691021
0.828538
0.819958
0.505195
0.806378
0.80445
0.801458
0.812249
0.824232
0.824046
0.804907
0.805896
0.814151
0.813366
0.80352
0.812551
0.804722
0.749242
0.708156
0.780892
0.813648
0.812074
0.775851
0.757772
0.81392
0.824927
0.810515
0.8122
0.691407
0.500636
0.747781
0.817519
0.806708
0.816228
0.844183
0.799865
0.714819
0.654155
0.799646
0.804684
0.694168
0.81265
0.671079
0.836803
0.729207
0.812838
0.89525
0.815604
0.800798
0.777721
0.811094
0.681419
0.814182
0.808206
0.791507
0.805596
0.779413
0.800642
0.810027
0.780447
0.803574
0.852056
0.776994
0.80213
0.492761
0.803167
0.693871
0.804096
0.794446
0.788573
0.783605
0.7222
0.802082
0.788171
0.844447
0.813268
0.812424
0.811762
0.895508
0.746394
0.802732
0.730789
0.803156
0.79835
0.804495
0.716721
0.800916
0.805495
0.638963
0.808648
0.748562
0.533796
0.846502
0.847324
0.750008
0.810755
0.794666
0.772009
0.731705
0.775982
0.785473
0.736208
0.803848
0.804412
0.719421
0.815296
0.804975
0.556733
0.811973
0.821431
0.813234
0.803504
0.610651
0.714936
0.806269
0.859168
0.483611
0.724496
0.806451
0.815951
0.796434
0.713245
0.710625
0.809019
0.813217
0.814994
0.837069
0.745186
0.754365
0.875739
0.80686
0.8092
0.795164
0.637346
0.597265
0.585928
0.65695
0.586081
0.76418
0.80071
0.803375
0.812252
0.809119
0.811472
0.860152
0.715346
0.823855
0.813876
0.817076
0.816625
0.813804
0.812948
0.811559
0.811922
0.656692
0.802367
0.741704