# vtk DataFile Version 1.0
unstructured grid
ascii
DATASET UNSTRUCTURED_GRID
points 14760 float
-1 0 0
-1 1 0
2 0 0
2 1 0
0 0 0
1 0 0
-1 1 0.1
-1 0 0.1
0 0 0.1
1 0 0.1
2 0 0.1
2 1 0.1
-0.99 0 0
-0.98 0 0
-0.97 0 0
-0.96 0 0
-0.95 0 0
-0.94 0 0
-0.93 0 0
-0.92 0 0
-0.91 0 0
-0.9 0 0
-0.89 0 0
-0.88 0 0
-0.87 0 0
-0.86 0 0
-0.85 0 0
-0.84 0 0
-0.83 0 0
-0.82 0 0
-0.81 0 0
-0.8 0 0
-0.79 0 0
-0.78 0 0
-0.77 0 0
-0.76 0 0
-0.75 0 0
-0.74 0 0
-0.73 0 0
-0.72 0 0
-0.71 0 0
-0.7 0 0
-0.69 0 0
-0.68 0 0
-0.67 0 0
-0.66 0 0
-0.65 0 0
-0.64 0 0
-0.63 0 0
-0.62 0 0
-0.61 0 0
-0.6 0 0
-0.59 0 0
-0.58 0 0
-0.57 0 0
-0.56 0 0
-0.55 0 0
-0.54 0 0
-0.53 0 0
-0.52 0 0
-0.51 0 0
-0.5 0 0
-0.49 0 0
-0.48 0 0
-0.47 0 0
-0.46 0 0
-0.45 0 0
-0.44 0 0
-0.43 0 0
-0.42 0 0
-0.41 0 0
-0.4 0 0
-0.39 0 0
-0.38 0 0
-0.37 0 0
-0.36 0 0
-0.35 0 0
-0.34 0 0
-0.33 0 0
-0.32 0 0
-0.31 0 0
-0.3 0 0
-0.29 0 0
-0.28 0 0
-0.27 0 0
-0.26 0 0
-0.25 0 0
-0.24 0 0
-0.23 0 0
-0.22 0 0
-0.21 0 0
-0.2 0 0
-0.19 0 0
-0.18 0 0
-0.17 0 0
-0.16 0 0
-0.15 0 0
-0.14 0 0
-0.13 0 0
-0.12 0 0
-0.11 0 0
-0.1 0 0
-0.09 0 0
-0.08 0 0
-0.07 0 0
-0.06 0 0
-0.05 0 0
-0.04 0 0
-0.03 0 0
-0.02 0 0
-0.01 0 0
1.01 0 0
1.02 0 0
1.03 0 0
1.04 0 0
1.05 0 0
1.06 0 0
1.07 0 0
1.08 0 0
1.09 0 0
1.1 0 0
1.11 0 0
1.12 0 0
1.13 0 0
1.14 0 0
1.15 0 0
1.16 0 0
1.17 0 0
1.18 0 0
1.19 0 0
1.2 0 0
1.21 0 0
1.22 0 0
1.23 0 0
1.24 0 0
1.25 0 0
1.26 0 0
1.27 0 0
1.28 0 0
1.29 0 0
1.3 0 0
1.31 0 0
1.32 0 0
1.33 0 0
1.34 0 0
1.35 0 0
1.36 0 0
1.37 0 0
1.38 0 0
1.39 0 0
1.4 0 0
1.41 0 0
1.42 0 0
1.43 0 0
1.44 0 0
1.45 0 0
1.46 0 0
1.47 0 0
1.48 0 0
1.49 0 0
1.5 0 0
1.51 0 0
1.52 0 0
1.53 0 0
1.54 0 0
1.55 0 0
1.56 0 0
1.57 0 0
1.58 0 0
1.59 0 0
1.6 0 0
1.61 0 0
1.62 0 0
1.63 0 0
1.64 0 0
1.65 0 0
1.66 0 0
1.67 0 0
1.68 0 0
1.69 0 0
1.7 0 0
1.71 0 0
1.72 0 0
1.73 0 0
1.74 0 0
1.75 0 0
1.76 0 0
1.77 0 0
1.78 0 0
1.79 0 0
1.8 0 0
1.81 0 0
1.82 0 0
1.83 0 0
1.84 0 0
1.85 0 0
1.86 0 0
1.87 0 0
1.88 0 0
1.89 0 0
1.9 0 0
1.91 0 0
1.92 0 0
1.93 0 0
1.94 0 0
1.95 0 0
1.96 0 0
1.97 0 0
1.98 0 0
1.99 0 0
2 0.0100088 0
2 0.0204183 0
2 0.0312446 0
2 0.0425043 0
2 0.0542147 0
2 0.066394 0
2 0.079061 0
2 0.092235 0
2 0.105936 0
2 0.120186 0
2 0.135007 0
2 0.150421 0
2 0.166452 0
2 0.183124 0
2 0.200465 0
2 0.218499 0
2 0.237256 0
2 0.256763 0
2 0.277051 0
2 0.298152 0
2 0.320097 0
2 0.342921 0
2 0.366659 0
2 0.391347 0
2 0.417024 0
2 0.443728 0
2 0.471502 0
2 0.500387 0
2 0.530429 0
2 0.561674 0
2 0.594169 0
2 0.627966 0
2 0.663115 0
2 0.699672 0
2 0.737692 0
2 0.777235 0
2 0.818361 0
2 0.861133 0
2 0.905617 0
2 0.951882 0
1.95 1 0
1.9 1 0
1.85 1 0
1.8 1 0
1.75 1 0
1.7 1 0
1.65 1 0
1.6 1 0
1.55 1 0
1.5 1 0
1.45 1 0
1.4 1 0
1.35 1 0
1.3 1 0
1.25 1 0
1.2 1 0
1.15 1 0
1.1 1 0
1.05 1 0
1 1 0
0.95 1 0
0.9 1 0
0.85 1 0
0.8 1 0
0.75 1 0
0.7 1 0
0.65 1 0
0.6 1 0
0.55 1 0
0.5 1 0
0.45 1 0
0.4 1 0
0.35 1 0
0.3 1 0
0.25 1 0
0.2 1 0
0.15 1 0
0.1 1 0
0.05 1 0
3.69793e-12 1 0
-0.05 1 0
-0.1 1 0
-0.15 1 0
-0.2 1 0
-0.25 1 0
-0.3 1 0
-0.35 1 0
-0.4 1 0
-0.45 1 0
-0.5 1 0
-0.55 1 0
-0.6 1 0
-0.65 1 0
-0.7 1 0
-0.75 1 0
-0.8 1 0
-0.85 1 0
-0.9 1 0
-0.95 1 0
-1 0.951882 0
-1 0.905617 0
-1 0.861133 0
-1 0.818361 0
-1 0.777235 0
-1 0.737692 0
-1 0.699672 0
-1 0.663115 0
-1 0.627966 0
-1 0.594169 0
-1 0.561674 0
-1 0.530429 0
-1 0.500387 0
-1 0.471502 0
-1 0.443728 0
-1 0.417024 0
-1 0.391347 0
-1 0.366659 0
-1 0.342921 0
-1 0.320097 0
-1 0.298152 0
-1 0.277051 0
-1 0.256763 0
-1 0.237256 0
-1 0.218499 0
-1 0.200465 0
-1 0.183124 0
-1 0.166452 0
-1 0.150421 0
-1 0.135007 0
-1 0.120186 0
-1 0.105936 0
-1 0.092235 0
-1 0.079061 0
-1 0.066394 0
-1 0.0542147 0
-1 0.0425043 0
-1 0.0312446 0
-1 0.0204183 0
-1 0.0100088 0
0.00921362 0.00379763 0
0.0184561 0.00752451 0
0.0277268 0.0111804 0
0.0370253 0.0147652 0
0.0463511 0.0182786 0
0.0557034 0.0217203 0
0.0650819 0.0250903 0
0.074486 0.0283883 0
0.083915 0.0316141 0
0.0933685 0.0347675 0
0.102846 0.0378484 0
0.112347 0.0408565 0
0.12187 0.0437917 0
0.131416 0.0466538 0
0.140983 0.0494427 0
0.150572 0.0521581 0
0.160181 0.0547999 0
0.16981 0.0573681 0
0.179458 0.0598623 0
0.189125 0.0622825 0
0.198811 0.0646285 0
0.208514 0.0669001 0
0.218234 0.0690974 0
0.227971 0.07122 0
0.237724 0.073268 0
0.247493 0.0752411 0
0.257276 0.0771393 0
0.267073 0.0789625 0
0.276884 0.0807105 0
0.286708 0.0823832 0
0.296545 0.0839806 0
0.306394 0.0855025 0
0.316254 0.0869488 0
0.326125 0.0883196 0
0.336006 0.0896146 0
0.345896 0.0908339 0
0.355796 0.0919773 0
0.365704 0.0930447 0
0.375621 0.0940362 0
0.385544 0.0949517 0
0.395474 0.095791 0
0.40541 0.0965542 0
0.415352 0.0972412 0
0.425299 0.097852 0
0.43525 0.0983865 0
0.445205 0.0988447 0
0.455164 0.0992266 0
0.465125 0.0995321 0
0.475088 0.0997613 0
0.485052 0.0999141 0
0.495017 0.0999904 0
0.504983 0.0999904 0
0.514948 0.0999141 0
0.524912 0.0997613 0
0.534875 0.0995321 0
0.544836 0.0992266 0
0.554795 0.0988447 0
0.56475 0.0983865 0
0.574701 0.097852 0
0.584648 0.0972412 0
0.59459 0.0965542 0
0.604526 0.095791 0
0.614456 0.0949517 0
0.624379 0.0940362 0
0.634296 0.0930447 0
0.644204 0.0919773 0
0.654104 0.0908339 0
0.663994 0.0896146 0
0.673875 0.0883196 0
0.683746 0.0869488 0
0.693606 0.0855025 0
0.703455 0.0839806 0
0.713292 0.0823832 0
0.723116 0.0807105 0
0.732927 0.0789625 0
0.742724 0.0771393 0
0.752508 0.0752411 0
0.762276 0.073268 0
0.772029 0.07122 0
0.781766 0.0690974 0
0.791486 0.0669001 0
0.801189 0.0646285 0
0.810875 0.0622825 0
0.820542 0.0598623 0
0.83019 0.0573681 0
0.839819 0.0547999 0
0.849428 0.0521581 0
0.859017 0.0494427 0
0.868584 0.0466538 0
0.87813 0.0437917 0
0.887653 0.0408565 0
0.897154 0.0378484 0
0.906631 0.0347675 0
0.916085 0.0316141 0
0.925514 0.0283883 0
0.934918 0.0250903 0
0.944297 0.0217203 0
0.953649 0.0182786 0
0.962975 0.0147652 0
0.972273 0.0111804 0
0.981544 0.00752451 0
0.990786 0.00379763 0
-1 0.951882 0.1
-1 0.905617 0.1
-1 0.861133 0.1
-1 0.818361 0.1
-1 0.777235 0.1
-1 0.737692 0.1
-1 0.699672 0.1
-1 0.663115 0.1
-1 0.627966 0.1
-1 0.594169 0.1
-1 0.561674 0.1
-1 0.530429 0.1
-1 0.500387 0.1
-1 0.471502 0.1
-1 0.443728 0.1
-1 0.417024 0.1
-1 0.391347 0.1
-1 0.366659 0.1
-1 0.342921 0.1
-1 0.320097 0.1
-1 0.298152 0.1
-1 0.277051 0.1
-1 0.256763 0.1
-1 0.237256 0.1
-1 0.218499 0.1
-1 0.200465 0.1
-1 0.183124 0.1
-1 0.166452 0.1
-1 0.150421 0.1
-1 0.135007 0.1
-1 0.120186 0.1
-1 0.105936 0.1
-1 0.092235 0.1
-1 0.079061 0.1
-1 0.066394 0.1
-1 0.0542147 0.1
-1 0.0425043 0.1
-1 0.0312446 0.1
-1 0.0204183 0.1
-1 0.0100088 0.1
-0.99 0 0.1
-0.98 0 0.1
-0.97 0 0.1
-0.96 0 0.1
-0.95 0 0.1
-0.94 0 0.1
-0.93 0 0.1
-0.92 0 0.1
-0.91 0 0.1
-0.9 0 0.1
-0.89 0 0.1
-0.88 0 0.1
-0.87 0 0.1
-0.86 0 0.1
-0.85 0 0.1
-0.84 0 0.1
-0.83 0 0.1
-0.82 0 0.1
-0.81 0 0.1
-0.8 0 0.1
-0.79 0 0.1
-0.78 0 0.1
-0.77 0 0.1
-0.76 0 0.1
-0.75 0 0.1
-0.74 0 0.1
-0.73 0 0.1
-0.72 0 0.1
-0.71 0 0.1
-0.7 0 0.1
-0.69 0 0.1
-0.68 0 0.1
-0.67 0 0.1
-0.66 0 0.1
-0.65 0 0.1
-0.64 0 0.1
-0.63 0 0.1
-0.62 0 0.1
-0.61 0 0.1
-0.6 0 0.1
-0.59 0 0.1
-0.58 0 0.1
-0.57 0 0.1
-0.56 0 0.1
-0.55 0 0.1
-0.54 0 0.1
-0.53 0 0.1
-0.52 0 0.1
-0.51 0 0.1
-0.5 0 0.1
-0.49 0 0.1
-0.48 0 0.1
-0.47 0 0.1
-0.46 0 0.1
-0.45 0 0.1
-0.44 0 0.1
-0.43 0 0.1
-0.42 0 0.1
-0.41 0 0.1
-0.4 0 0.1
-0.39 0 0.1
-0.38 0 0.1
-0.37 0 0.1
-0.36 0 0.1
-0.35 0 0.1
-0.34 0 0.1
-0.33 0 0.1
-0.32 0 0.1
-0.31 0 0.1
-0.3 0 0.1
-0.29 0 0.1
-0.28 0 0.1
-0.27 0 0.1
-0.26 0 0.1
-0.25 0 0.1
-0.24 0 0.1
-0.23 0 0.1
-0.22 0 0.1
-0.21 0 0.1
-0.2 0 0.1
-0.19 0 0.1
-0.18 0 0.1
-0.17 0 0.1
-0.16 0 0.1
-0.15 0 0.1
-0.14 0 0.1
-0.13 0 0.1
-0.12 0 0.1
-0.11 0 0.1
-0.1 0 0.1
-0.09 0 0.1
-0.08 0 0.1
-0.07 0 0.1
-0.06 0 0.1
-0.05 0 0.1
-0.04 0 0.1
-0.03 0 0.1
-0.02 0 0.1
-0.01 0 0.1
0.00921362 0.00379763 0.1
0.0184561 0.00752451 0.1
0.0277268 0.0111804 0.1
0.0370253 0.0147652 0.1
0.0463511 0.0182786 0.1
0.0557034 0.0217203 0.1
0.0650819 0.0250903 0.1
0.074486 0.0283883 0.1
0.083915 0.0316141 0.1
0.0933685 0.0347675 0.1
0.102846 0.0378484 0.1
0.112347 0.0408565 0.1
0.12187 0.0437917 0.1
0.131416 0.0466538 0.1
0.140983 0.0494427 0.1
0.150572 0.0521581 0.1
0.160181 0.0547999 0.1
0.16981 0.0573681 0.1
0.179458 0.0598623 0.1
0.189125 0.0622825 0.1
0.198811 0.0646285 0.1
0.208514 0.0669001 0.1
0.218234 0.0690974 0.1
0.227971 0.07122 0.1
0.237724 0.073268 0.1
0.247493 0.0752411 0.1
0.257276 0.0771393 0.1
0.267073 0.0789625 0.1
0.276884 0.0807105 0.1
0.286708 0.0823832 0.1
0.296545 0.0839806 0.1
0.306394 0.0855025 0.1
0.316254 0.0869488 0.1
0.326125 0.0883196 0.1
0.336006 0.0896146 0.1
0.345896 0.0908339 0.1
0.355796 0.0919773 0.1
0.365704 0.0930447 0.1
0.375621 0.0940362 0.1
0.385544 0.0949517 0.1
0.395474 0.095791 0.1
0.40541 0.0965542 0.1
0.415352 0.0972412 0.1
0.425299 0.097852 0.1
0.43525 0.0983865 0.1
0.445205 0.0988447 0.1
0.455164 0.0992266 0.1
0.465125 0.0995321 0.1
0.475088 0.0997613 0.1
0.485052 0.0999141 0.1
0.495017 0.0999904 0.1
0.504983 0.0999904 0.1
0.514948 0.0999141 0.1
0.524912 0.0997613 0.1
0.534875 0.0995321 0.1
0.544836 0.0992266 0.1
0.554795 0.0988447 0.1
0.56475 0.0983865 0.1
0.574701 0.097852 0.1
0.584648 0.0972412 0.1
0.59459 0.0965542 0.1
0.604526 0.095791 0.1
0.614456 0.0949517 0.1
0.624379 0.0940362 0.1
0.634296 0.0930447 0.1
0.644204 0.0919773 0.1
0.654104 0.0908339 0.1
0.663994 0.0896146 0.1
0.673875 0.0883196 0.1
0.683746 0.0869488 0.1
0.693606 0.0855025 0.1
0.703455 0.0839806 0.1
0.713292 0.0823832 0.1
0.723116 0.0807105 0.1
0.732927 0.0789625 0.1
0.742724 0.0771393 0.1
0.752508 0.0752411 0.1
0.762276 0.073268 0.1
0.772029 0.07122 0.1
0.781766 0.0690974 0.1
0.791486 0.0669001 0.1
0.801189 0.0646285 0.1
0.810875 0.0622825 0.1
0.820542 0.0598623 0.1
0.83019 0.0573681 0.1
0.839819 0.0547999 0.1
0.849428 0.0521581 0.1
0.859017 0.0494427 0.1
0.868584 0.0466538 0.1
0.87813 0.0437917 0.1
0.887653 0.0408565 0.1
0.897154 0.0378484 0.1
0.906631 0.0347675 0.1
0.916085 0.0316141 0.1
0.925514 0.0283883 0.1
0.934918 0.0250903 0.1
0.944297 0.0217203 0.1
0.953649 0.0182786 0.1
0.962975 0.0147652 0.1
0.972273 0.0111804 0.1
0.981544 0.00752451 0.1
0.990786 0.00379763 0.1
1.01 0 0.1
1.02 0 0.1
1.03 0 0.1
[...]
CELL_DATA 14313
SCALARS rho float
LOOKUP_TABLE default
0.837242
0.849789
0.836308
0.734159
0.835861
0.864449
0.859553
0.860186
0.83621
0.840441
0.864493
0.82692
0.803391
0.762679
0.858173
0.867567
0.831563
0.835893
0.853943
0.835983
0.863111
0.844794
0.859849
0.835786
0.858366
0.839923
0.810756
0.780389
0.849304
0.861796
0.861901
0.823954
0.820552
0.85836
0.81996
0.854196
0.796567
0.831865
0.858156
0.811286
0.82305
0.86244
0.735879
0.805584
0.857402
0.870536
0.856094
0.82351
0.849955
0.872786
0.794607
0.764752
0.77648
0.854133
0.858405
0.821244
0.857381
0.845413
0.836017
0.858296
0.863945
0.858
0.82389
0.872836
0.862415
0.857038
0.874178
0.82356
0.873742
0.858169
0.826747
0.867229
0.752293
0.871046
0.825064
0.848606
0.851096
0.814108
0.785911
0.86177
0.743754
0.862075
0.868625
0.811262
0.847568
0.858466
0.864307
0.818835
0.864428
0.83569
0.820548
0.763777
0.828746
0.809819
0.825154
0.818877
0.856471
0.857591
0.814184
0.753804
0.849876
0.856637
0.859709
0.856016
0.820797
0.832372
0.813838
0.786431
0.869181
0.85378
0.840662
0.862391
0.85402
0.858499
0.815976
0.864138
0.858545
0.870338
0.820085
0.810167
0.85797
0.858115
0.886527
0.822477
0.866279
0.829885
0.842532
0.819081
0.856616
0.866016
0.855103
0.861699
0.887393
0.860208
0.861311
0.820998
0.842974
0.825773
0.857441
0.857434
0.859552
0.856219
0.808531
0.815848
0.829989
0.872706
0.824843
0.817747
0.845113
0.857437
0.80975
0.810902
0.859853
0.807692
0.859451
0.819369
0.800771
0.859788
0.859228
0.836406
0.857999
0.831136
0.795294
0.816853
0.861194
0.850765
0.799422
0.856956
0.864669
0.842501
0.799918
0.843126
0.802511
0.841838
0.850644
0.852292
0.85059
0.856726
0.859676
0.813963
0.861935
0.855144
0.831886
0.819508
0.825642
0.845871
0.858263
0.830328
0.741694
0.840434
0.81618
0.814156
0.821062
0.811023
0.85825
0.855479
0.828554
0.8104
0.848598
0.857191
0.826864
0.813842
0.865039
0.856654
0.868492
0.816514
0.84368
0.841
0.859359
0.869003
0.825296
0.852784
0.845484
0.78762
0.856045
0.85269
0.856526
0.83167
0.86917
0.819492
0.811305
0.844969
0.848503
0.88421
0.852138
0.813788
0.857768
0.80486
0.860174
0.825087
0.794423
0.840294
0.786826
0.863838
0.804948
0.82278
0.855109
0.855955
0.855398
0.852491
0.830566
0.779289
0.828387
0.780771
0.856303
0.801276
0.819366
0.827913
0.871367
0.842129
0.746884
0.815949
0.806433
0.87151
0.815746
0.801869
0.852794
0.863847
0.85651
0.759219
0.839401
0.815541
0.844263
0.848985
0.841073
0.832158
0.843269
0.842777
0.761608
0.856615
0.856085
0.82165
0.831004
0.864828
0.824676
0.856582
0.839725
0.812544
0.835173
0.824524
0.74441
0.734456
0.816207
0.850495
0.859351
0.82521
0.864881
0.856665
0.823075
0.824873
0.811476
0.857139
0.865832
0.844051
0.832683
0.838318
0.79191
0.859226
0.808815
0.809927
0.823512
0.823264
0.869959
0.832301
0.803317
0.800036
0.797714
0.84945
0.829125
0.845379
0.826595
0.816195
0.764077
0.856287
0.847878
0.843811
0.864635
0.855561
0.819661
0.840702
0.85676
0.778874
0.852407
0.861014
0.856506
0.856901
0.831216
0.859712
0.805095
0.856737
0.855367
0.80765
0.815817
0.809118
0.808337
0.756403
0.85945
0.8384
0.83146
0.855174
0.819587
0.824822
0.80595
0.801719
0.856544
0.814917
0.815866
0.85112
0.871634
0.856411
0.819984
0.832475
0.860024
0.827031
0.857312
0.839602
0.857277
0.836226
0.857222
0.84491
0.85436
0.843605
0.863051
0.742539
0.803965
0.808648
0.838715
0.855957
0.830695
0.830522
0.860415
0.859703
0.857831
0.821124
0.843898
0.851595
0.831326
0.812725
0.838992
0.847796
0.865627
0.86237
0.848748
0.825379
0.779825
0.838222
0.770006
0.827774
0.837787
0.844368
0.85592
0.897196
0.736843
0.773441
0.871771
0.895599
0.854061
0.781666
0.822387
0.810845
0.848739
0.842437
0.790388
0.775104
0.824757
0.855697
0.756342
0.896868
0.862067
0.844053
0.831426
0.750453
0.829377
0.837557
0.85759
0.826925
0.814463
0.866362
0.860339
0.810922
0.800891
0.80526
0.825779
0.861007
0.863161
0.838852
0.863943
0.820998
0.830213
0.826743
0.810895
0.830353
0.857627
0.838127
0.858043
0.862943
0.832228
0.823978
0.816731
0.843375
0.86171
0.855305
0.849314
0.789464
0.824635
0.856965
0.839735
0.852988
0.828359
0.855877
0.830785
0.859483
0.859702
0.773114
0.884091
0.811873
0.859479
0.848732
0.804833
0.862906
0.822893
0.862841
0.73612
0.820753
0.798613
0.863699
0.832061
0.760565
0.837768
0.819617
0.827014
0.834596
0.844277
0.83286
0.863341
0.772192
0.824824
0.825279
0.837522
0.857547
0.829042
0.863558
0.857437
0.812102
0.85691
0.803025
0.807502
0.860179
0.756316
0.830994
0.82067
0.74332
0.862372
0.75436
0.829838
0.858268
0.885183
0.79819
0.829346
0.861685
0.825442
0.814559
0.843659
0.834117
0.856148
0.859894
0.836295
0.857506
0.842508
0.754955
0.858169
0.85703
0.830055
0.86221
0.771704
0.855509
0.859937
0.806187
0.82521
0.857445
0.824803
0.855297
0.867013
0.82072
0.800432
0.750011
0.856097
0.742777
0.812493
0.805662
0.821379
0.864739
0.814825
0.86099
0.839766
0.806152
0.742076
0.85599
0.864283
0.866651
0.856348
0.810885
0.807098
0.858639
0.810837
0.878312
0.863537
0.806184
0.809847
0.765927
0.823233
0.787142
0.855623
0.863817
0.818723
0.789554
0.834137
0.856825
0.862104
0.867561
0.855554
0.803054
0.736339
0.826744
0.856282
0.816296
0.84297
0.850127
0.821543
0.872696
0.855589
0.816692
0.856662
0.826309
0.80138
0.814891
0.837821
0.758222
0.781172
0.828462
0.862945
0.819581
0.741392
0.857401
0.747684
0.859821
0.820088
0.856585
0.856437
0.811734
0.848527
0.843876
0.822779
0.861227
0.864613
0.867474
0.82372
0.856872
0.75629
0.859322
0.885334
0.863417
0.865622
0.816444
0.85941
0.804009
0.872499
0.841771
0.84367
0.803293
0.791131
0.870389
0.857141
0.873255
0.818669
0.816115
0.818769
0.804975
0.842439
0.844352
0.848681
0.857734
0.860942
0.864675
0.866292
0.829684
0.805426
0.84718
0.816107
0.841633
0.859739
0.808731
0.840381
0.817043
0.829855
0.826245
0.878077
0.850788
0.807972
0.829212
0.869351
0.866763
0.810904
0.884939
0.835477
0.858915
0.801741
0.806664
0.826586
0.817351
0.867488
0.749846
0.830392
0.824336
0.790454
0.856647
0.865649
0.856733
0.805688
0.825619
0.828468
0.856388
0.817614
0.785532
0.735703
0.857288
0.847655
0.812576
0.821608
0.819831
0.828243
0.856407
0.81508
0.856997
0.746438
0.855861
0.834441
0.859862
0.874437
0.856801
0.858262
0.863069
0.808959
0.858364
0.776775
0.827543
0.872808
0.858278
0.823349
0.856416
0.765891
0.82434
0.776555
0.801792
0.803965
0.83426
0.856124
0.83936
0.742971
0.785404
0.810415
0.866777
0.816081
0.859801
0.822983
0.831114
0.843471
0.776447
0.815644
0.756293
0.81095
0.864755
0.826051
0.85987
0.771638
0.774395
0.874889
0.81697
0.856416
0.815988
0.857121
0.738209
0.859454
0.775993
0.856675
0.85692
0.805841
0.812763
0.862728
0.843843
0.828917
0.846991
0.764751
0.839824
0.793618
0.81276
0.815633
0.856959
0.844383
0.80737
0.855466
0.810057
0.807899
0.786065
0.827663
0.802331
0.772539
0.862197
0.859703
0.819044
0.818431
0.837354
0.777927
0.853161
0.807778
0.791362
0.863225
0.856512
0.793067
0.786517
0.863166
0.812112
0.817722
0.857699
0.869684
0.870694
0.863953
0.734707
0.817954
0.860749
0.859113
0.767039
0.765638
0.842158
0.85941
0.811874
0.823537
0.863144
0.849524
0.815798
0.858418
0.857165
0.810316
0.812673
0.828335
0.843662
0.852838
0.754577
0.823546
0.860274
0.740029
0.857412
0.869029
0.864397
0.773689
0.863362
0.857632
0.862771
0.822589
0.858217
0.838013
0.83148
0.823716
0.806227
0.856194
0.759303
0.850865
0.834607
0.812235
0.774988
0.824423
0.815987
0.862459
0.811431
0.777914
0.860546
0.840066
0.862965
0.859916
0.85695
0.86266
0.814046
0.777606
0.863858
0.862335
0.864417
0.773427
0.848118
0.80973
0.85652
0.853443
0.864575
0.857363
0.829224
0.857738
0.830446
0.813237
0.855965
0.858763
0.825376
0.825457
0.817743
0.776072
0.810619
0.839206
0.855689
0.860994
0.836935
0.85312
0.806375
0.844852
0.831159
0.772197
0.810385
0.862268
0.81071
0.819985
0.844067
0.776214
0.856908
0.820086
0.875184
0.85227
0.788436
0.83156
0.81548
0.874573
0.811628
0.758958
0.745063
0.757091
0.856964
0.835949
0.760889
0.778212
0.859042
0.861161
0.90802
0.820148
0.865678
0.85932
0.819307
0.856905
0.857817
0.862592
0.857138
0.864442
0.8053
0.854142
0.794166
0.856247
0.812133
0.850693
0.810655
0.857244
0.747705
0.87613
0.816117
0.863717
0.864858
0.830647
0.805733
0.850305
0.854812
0.86108
0.863711
0.856159
0.793089
0.863573
0.862748
0.858756
0.870494
0.86085
0.736524
0.803198
0.822592
0.83947
0.84279
0.816085
0.803759
0.85668
0.817684
0.827431
0.856781
0.889227
0.867077
0.77554
0.845236
0.815707
0.856623
0.817764
0.858462
0.820004
0.831007
0.860269
0.839336
0.849217
0.843787
0.847541
0.821421
0.802363
0.826489
0.810966
0.85529
0.861475
0.862043
0.82618
0.850829
0.81073
0.772233
0.863358
0.804393
0.864338
0.809988
0.788306
0.830246
0.821505
0.801754
0.862261
0.805844
0.832429
0.856153
0.887406
0.841448
0.837467
0.808958
0.859139
0.831072
0.872489
0.904207
0.808672
0.737381
0.813108
0.771171
0.818038
0.768295
0.826408
0.75423
0.856651
0.872574
0.830244
0.862862
0.858688
0.828556
0.809675
0.803205
0.850892
0.859671
0.822913
0.848358
0.826079
0.810443
0.849673
0.78736
0.857073
0.819686
0.869004
0.850845
0.835153
0.816738
0.855297
0.855497
0.849723
0.810352
0.841429
0.861597
0.84403
0.821738
0.857122
0.835096
0.743159
0.858662
0.857906
0.835434
0.78863
0.82519
0.849739
0.809259
0.814413
0.890816
0.864705
0.85625
0.863356
0.869847
0.834118
0.861952
0.841416
0.855742
0.860459
0.776297
0.861705
0.810555
0.844554
0.818069
0.820355
0.815658
0.820028
0.763447
0.856786
0.795873
0.747986
0.859359
0.775172
0.819011
0.857172
0.86034
0.83488
0.860515
0.817884
0.764242
0.863232
0.756464
0.857118
0.833562
0.805623
0.831383
0.857228
0.765103
0.818888
0.821396
0.861734
0.854818
0.855835
0.830716
0.798766
0.818512
0.79232
0.815438
0.828825
0.86413
0.855523
0.836556
0.863826
0.861721
0.784877
0.80899
0.760278
0.813374
0.85683
0.833181
0.868387
0.832648
0.856593
0.769224
0.8917
0.856681
0.86339
0.756289
0.860951
0.861256
0.873886
0.876523
0.863934
0.85568
0.859186
0.740994
0.831428
0.854796
0.781254
0.856693
0.825396
0.861901
0.829831
0.857751
0.856102
0.835577
0.786379
0.810143
0.80408
0.757649
0.856638
0.886785
0.856356
0.800825
0.849149
0.857091
0.858753
0.860991
0.757362
0.745849
0.820387
0.872784
0.825884
0.821471
0.856544
0.829474
0.838358
0.857047
0.804136
0.816456
0.82416
0.859155
0.823533
0.835173
0.816767
0.860384
0.866616
0.882708
0.858154
0.849594
0.856273
0.857979
0.863147
0.857552
0.855673
0.869056
0.832562
0.857324
0.78409
0.86649
0.770506
0.892964
0.812334
0.868604
0.819623
0.821979
0.840927
0.802974
0.847909
0.841821
0.839848
0.857187
0.821498
0.851975
0.747898
0.831325
0.857919
0.856643
0.828362
0.860964
0.748702
0.82316
0.735881
0.859117
0.804819
0.830005
0.822146
0.856183
0.859583
0.859154
0.798166
0.850863
0.862534
0.836564
0.812307
0.825932
0.803177
0.835537
0.834572
0.820595
0.810438
0.759792
0.740632
0.873573
0.825509
0.834318
0.824655
0.850618
0.81041
0.814846
0.857831
0.823505
0.81282
0.856923
0.83215
0.836997
0.87116
0.835168
0.863669
0.831141
0.744118
0.810414
0.862788
0.833188
0.85831
0.856595
0.86295
0.783043
0.781303
0.759254
0.865401
0.855738
0.82172
0.842253
0.787311
0.842388
0.835662
0.86416
0.820266
0.836211
0.743931
0.801955
0.849175
0.857424
0.832553
0.844591
0.866557
0.817068
0.81417
0.794207
0.849653
0.864231
0.818603
0.860247
0.813568
0.773206
0.842886
0.860023
0.745629
0.809072
0.841591
0.854106
0.813859
0.826071
0.828112
0.861935
0.813597
0.786809
0.861744
0.826602
0.81009
0.819642
0.751249
0.858759
0.785318
0.814916
0.793306
0.814803
0.805187
0.863082
0.79566
0.819917
0.826883
0.856673
0.745294
0.818478
0.851488
0.849023
0.753093
0.829786
0.825405
0.810228
0.809682
0.826973
0.858492
0.857836
0.850668
0.809873
0.811776
0.768759
0.867923
0.875192
0.856439
0.828829
0.890409
0.813736
0.857344
0.819037
0.831528
0.828613
0.864098
0.822315
0.862283
0.829043
0.816477
0.858897
0.804551
0.874729
0.799117
0.831365
0.828537
0.799915
0.820546
0.856301
0.742555
0.825585
0.819391
0.812997
0.859847
0.818372
0.833691
0.80666
0.862023
0.833368
0.809581
0.861931
0.856255
0.865226
0.834666
0.838483
0.806374
0.824699
0.790059
0.859637
0.821306
0.799656
0.827929
0.82254
0.867107
0.860008
0.858003
0.872945
0.870175
0.814512
0.856946
0.844803
0.821352
0.752269
0.856686
0.846148
0.861116
0.83705
0.881991
0.867648
0.825102
0.86647
0.824671
0.821687
0.818698
0.861021
0.806419
0.765068
0.875638
0.793562
0.832073
0.872814
0.859456
0.794359
0.834243
0.817395
0.816388
0.825926
0.839402
0.82291
0.820779
0.828866
0.827804
0.822016
0.861153
0.83635
0.856971
0.839636
0.818718
0.83634
0.840598
0.859539
0.831202
0.737962
0.850516
0.853989
0.858518
0.811567
0.836834
0.804556
0.819045
0.85684
0.802745
0.856827
0.845715
0.850245
0.830829
0.860875
0.838454
0.828146
0.819404
0.832867
0.855127
0.831492
0.856286
0.849994
0.825847
0.861007
0.824119
0.840725
0.848968
0.861057
0.8437
0.838578
0.795249
0.856605
0.841577
0.82409
0.812758
0.822798
0.765739
0.805931
0.739696
0.807481
0.856671
0.821538
0.8693
0.765389
0.853408
0.810967
0.861766
0.734538
0.82442
0.853769
0.856344
0.858255
0.811059
0.874108
0.75725
0.861435
0.781765
0.818384
0.757561
0.779017
0.857794
0.863153
0.82341
0.824694
0.846728
0.749808
0.860523
0.818857
0.868787
0.863343
0.840415
0.857116
0.820048
0.862824
0.835952
0.826765
0.754158
0.807495
0.875692
0.811024
0.844654
0.819868
0.828046
0.861164
0.861565
0.805295
0.805795
0.852971
0.856567
0.748147
0.816458
0.772323
0.856772
0.764854
0.863035
0.833323
0.796652
0.794951
0.826741
0.813197
0.866049
0.838887
0.845767
0.815513
0.79532
0.825061
0.84135
0.805398
0.855675
0.846249
0.793848
0.799259
0.814747
0.82024
0.735237
0.860492
0.802532
0.828522
0.77042
0.862383
0.856945
0.862632
0.853626
0.861334
0.835231
0.776224
0.85625
0.834931
0.819025
0.85672
0.863044
0.856691
0.843063
0.862491
0.85702
0.774312
0.819627
0.821931
0.858093
0.784768
0.825448
0.849806
0.821289
0.787859
0.851741
0.81104
0.811373
0.835524
0.858431
0.779307
0.873882
0.817892
0.823434
0.802787
0.861601
0.876356
0.830788
0.763596
0.856593
0.764671
0.754821
0.823546
0.833308
0.831165
0.861251
0.808675
0.856073
0.864911
0.742501
0.829328
0.859045
0.861899
0.755981
0.814342
0.791669
0.857133
0.856551
0.782606
0.815021
0.858673
0.814351
0.85914
0.778081
0.873682
0.798989
0.858098
0.859284
0.804306
0.856632
0.785712
0.841334
0.784721
0.837907
0.839972
0.777817
0.808851
0.818303
0.867943
0.857506
0.858632
0.860468
0.805806
0.840424
0.822881
0.857172
0.829916
0.810325
0.836271
0.749339
0.837237
0.829896
0.819666
0.861244
0.862039
0.808696
0.80887
0.766135
0.792515
0.841525
0.842908
0.805926
0.78117
0.82485
0.862845
0.825486
0.824464
0.822601
0.861916
0.816859
0.738644
0.780677
0.805469
0.861353
0.890312
0.841639
0.863366
0.880955
0.812792
0.82996
0.856686
0.859826
0.847426
0.81513
0.832556
0.809654
0.889105
0.8386
0.857236
0.780123
0.805078
0.73446
0.741188
0.782592
0.850174
0.810927
0.851019
0.833403
0.810793
0.748032
0.839149
0.824672
0.824807
0.855393
0.824117
0.856622
0.87481
0.761885
0.852561
0.819586
0.859548
0.842534
0.857907
0.860073
0.828711
0.805332
0.83071
0.816921
0.803719
0.853493
0.867953
0.858162
0.81795
0.819527
0.782564
0.857315
0.86295
0.758551
0.818592
0.818775
0.751707
0.839868
0.820578
0.9001
0.81391
0.854086
0.831007
0.826324
0.806115
0.834095
0.820161
0.74299
0.77335
0.788116
0.822299
0.854586
0.810607
0.847892
0.82482
0.845259
0.858004
0.812741
0.881573
0.81204
0.862223
0.82193
0.746997
0.76769
0.85794
0.811328
0.830468
0.744381
0.824017
0.812783
0.769662
0.85658
0.841717
0.834396
0.855947
0.77019
0.788031
0.82215
0.857929
0.857342
0.781403
0.824439
0.782066
0.856614
0.863886
0.82247
0.835886
0.759692
0.855964
0.815708
0.80093
0.873536
0.824903
0.814356
0.813603
0.817023
0.862229
0.736583
0.834255
0.80443
0.823701
0.848552
0.785349
0.816606
0.852318
0.796453
0.842252
0.800996
0.85688
0.810762
0.812825
0.809278
0.85013
0.826441
0.857278
0.778604
0.823447
0.847193
0.862481
0.796941
0.861057
0.833587
0.867038
0.772929
0.856584
0.814216
0.861341
0.82934
0.874962
0.812766
0.858386
0.812567
0.856533
0.872587
0.857082
0.856563
0.868109
0.806666
0.870881
0.853529
0.824304
0.863456
0.824364
0.767526
0.837163
0.856484
0.813669
0.810562
0.816501
0.82558
0.789132
0.811659
0.737554
0.870135
0.809922
0.8015
0.856586
0.81911
0.851363
0.835495
0.851503
0.822291
0.857636
0.860258
0.812877
0.832809
0.759992
0.862142
0.823961
0.854163
0.822875
0.741371
0.805264
0.814932
0.85145
0.805273
0.857027
0.831292
0.772819
0.861144
0.87083
0.790312
0.822095
0.859745
0.824786
0.819537
0.840507
0.816229
0.829434
0.808623
0.834251
0.871362
0.788259
0.787205
0.822798
0.8062
0.822075
0.856363
0.736624
0.804038
0.823642
0.816882
0.806398
0.805348
0.860556
0.849065
0.811397
0.835151
0.857345
0.785558
0.795682
0.835114
0.85692
0.805648
0.889375
0.817475
0.859842
0.823875
0.851441
0.846054
0.830725
0.794397
0.841774
0.857091
0.821146
0.826665
0.810351
0.759758
0.851318
0.856634
0.859416
0.882545
0.855846
0.831229
0.751888
0.860015
0.804774
0.863542
0.828807
0.838817
0.851822
0.860984
0.858825
0.826607
0.741063
0.756882
0.85864
0.853413
0.754145
0.83224
0.855912
0.858883
0.749577
0.832727
0.855961
0.817398
0.831835
0.763066
0.856967
0.835471
0.743063
0.859812
0.856562
0.750232
0.834441
0.856885
0.821978
0.828913
0.854452
0.862287
0.80434
0.863045
0.739906
0.855461
0.843692
0.820814
0.823406
0.838218
0.860529
0.832757
0.825136
0.855532
0.823419
0.800693
0.848902
0.764869
0.864437
0.779469
0.81405
0.824027
0.80541
0.809603
0.741298
0.87995
0.860812
0.856476
0.814534
0.810574
0.809783
0.843986
0.856694
0.780499
0.808209
0.809622
0.856605
0.811604
0.774075
0.857114
0.838792
0.864381
0.853953
0.84123
0.811882
0.761022
0.829288
0.842467
0.755627
0.856581
0.85762
0.806648
0.825157
0.829247
0.779248
0.851318
0.83984
0.842182
0.758307
0.829582
0.824656
0.863591
0.857733
0.862914
0.839244
0.857895
0.782619
0.84777
0.856807
0.800883
0.748449
0.827404
0.825791
0.809744
0.857636
0.812905
0.833753
0.824711
0.892436
0.806872
0.827658
0.862893
0.8871
0.819231
0.855357
0.842549
0.856632
0.827052
0.811355
0.842651
0.816876
0.856246
0.816829
0.842525
0.875428
0.81949
0.858138
0.830362
0.821104
0.765114
0.743392
0.828733
0.837127
0.860287
0.826165
0.847513
0.864568
0.822322
0.825139
0.863341
0.83704
0.856491
0.823427
0.761788
0.83124
0.815446
0.819631
0.814919
0.817133
0.827969
0.822554
0.848808
0.828333
0.835213
0.809388
0.831327
0.85675
0.744374
0.822557
0.854821
0.855184
0.858717
0.846389
0.855037
0.853924
0.832722
0.859795
0.834439
0.823491
0.856567
0.817622
0.842575
0.828989
0.82874
0.750615
0.812855
0.830557
0.761366
0.855439
0.833814
0.82622
0.837005
0.806729
0.809375
0.859823
0.822626
0.840932
0.856753
0.7867
0.82452
0.861806
0.81281
0.833097
0.85356
0.823906
0.84851
0.860998
0.83425
0.857444
0.829792
0.823897
0.80845
0.856349
0.821189
0.805014
0.761347
0.856653
0.840591
0.827753
0.863053
0.809727
0.865178
0.859378
0.750947
0.829261
0.818263
0.823789
0.856182
0.861811
0.861803
0.826103
0.847966
0.856698
0.838576
0.815136
0.855565
0.825504
0.812829
0.817497
0.838227
0.856936
0.853328
0.833132
0.822006
0.84213
0.850497
0.834537
0.859623
0.806158
0.746906
0.803657
0.857567
0.830432
0.856764
0.875602
0.810494
0.82061
0.795439
0.818253
0.826516
0.80986
0.858569
0.804835
0.870693
0.811854
0.854432
0.912255
0.842512
0.814269
0.837034
0.835274
0.806667
0.839469
0.85021
0.828007
0.847729
0.824866
0.813636
0.835159
0.838806
0.81102
0.881532
0.82394
0.819529
0.758371
0.819201
0.785971
0.820621
0.824115
0.829926
0.838744
0.799206
0.845484
0.841934
0.876651
0.857361
0.85914
0.860396
0.912466
0.814136
0.829204
0.813183
0.812027
0.811073
0.82195
0.816369
0.814877
0.836717
0.794217
0.84998
0.820829
0.771154
0.878073
0.878615
0.826553
0.842356
0.829734
0.834339
0.826269
0.818317
0.828527
0.81032
0.814554
0.822778
0.822527
0.856709
0.820414
0.76249
0.863157
0.847879
0.853503
0.821136
0.759699
0.820815
0.83336
0.886946
0.756197
0.818683
0.850851
0.841703
0.845818
0.785296
0.817899
0.834379
0.85742
0.856522
0.871306
0.806384
0.816183
0.898148
0.827773
0.86097
0.831938
0.795302
0.784843
0.757754
0.79328
0.779305
0.83495
0.84473
0.81995
0.856412
0.852912
0.837739
0.887566
0.815878
0.861637
0.856858
0.857093
0.857103
0.856874
0.857837
0.856044
0.864734
0.797422