# vtk DataFile Version 1.0
unstructured grid
ascii
DATASET UNSTRUCTURED_GRID
points 14760 float
-1 0 0
-1 1 0
2 0 0
2 1 0
0 0 0
1 0 0
-1 1 0.1
-1 0 0.1
0 0 0.1
1 0 0.1
2 0 0.1
2 1 0.1
-0.99 0 0
-0.98 0 0
-0.97 0 0
-0.96 0 0
-0.95 0 0
-0.94 0 0
-0.93 0 0
-0.92 0 0
-0.91 0 0
-0.9 0 0
-0.89 0 0
-0.88 0 0
-0.87 0 0
-0.86 0 0
-0.85 0 0
-0.84 0 0
-0.83 0 0
-0.82 0 0
-0.81 0 0
-0.8 0 0
-0.79 0 0
-0.78 0 0
-0.77 0 0
-0.76 0 0
-0.75 0 0
-0.74 0 0
-0.73 0 0
-0.72 0 0
-0.71 0 0
-0.7 0 0
-0.69 0 0
-0.68 0 0
-0.67 0 0
-0.66 0 0
-0.65 0 0
-0.64 0 0
-0.63 0 0
-0.62 0 0
-0.61 0 0
-0.6 0 0
-0.59 0 0
-0.58 0 0
-0.57 0 0
-0.56 0 0
-0.55 0 0
-0.54 0 0
-0.53 0 0
-0.52 0 0
-0.51 0 0
-0.5 0 0
-0.49 0 0
-0.48 0 0
-0.47 0 0
-0.46 0 0
-0.45 0 0
-0.44 0 0
-0.43 0 0
-0.42 0 0
-0.41 0 0
-0.4 0 0
-0.39 0 0
-0.38 0 0
-0.37 0 0
-0.36 0 0
-0.35 0 0
-0.34 0 0
-0.33 0 0
-0.32 0 0
-0.31 0 0
-0.3 0 0
-0.29 0 0
-0.28 0 0
-0.27 0 0
-0.26 0 0
-0.25 0 0
-0.24 0 0
-0.23 0 0
-0.22 0 0
-0.21 0 0
-0.2 0 0
-0.19 0 0
-0.18 0 0
-0.17 0 0
-0.16 0 0
-0.15 0 0
-0.14 0 0
-0.13 0 0
-0.12 0 0
-0.11 0 0
-0.1 0 0
-0.09 0 0
-0.08 0 0
-0.07 0 0
-0.06 0 0
-0.05 0 0
-0.04 0 0
-0.03 0 0
-0.02 0 0
-0.01 0 0
1.01 0 0
1.02 0 0
1.03 0 0
1.04 0 0
1.05 0 0
1.06 0 0
1.07 0 0
1.08 0 0
1.09 0 0
1.1 0 0
1.11 0 0
1.12 0 0
1.13 0 0
1.14 0 0
1.15 0 0
1.16 0 0
1.17 0 0
1.18 0 0
1.19 0 0
1.2 0 0
1.21 0 0
1.22 0 0
1.23 0 0
1.24 0 0
1.25 0 0
1.26 0 0
1.27 0 0
1.28 0 0
1.29 0 0
1.3 0 0
1.31 0 0
1.32 0 0
1.33 0 0
1.34 0 0
1.35 0 0
1.36 0 0
1.37 0 0
1.38 0 0
1.39 0 0
1.4 0 0
1.41 0 0
1.42 0 0
1.43 0 0
1.44 0 0
1.45 0 0
1.46 0 0
1.47 0 0
1.48 0 0
1.49 0 0
1.5 0 0
1.51 0 0
1.52 0 0
1.53 0 0
1.54 0 0
1.55 0 0
1.56 0 0
1.57 0 0
1.58 0 0
1.59 0 0
1.6 0 0
1.61 0 0
1.62 0 0
1.63 0 0
1.64 0 0
1.65 0 0
1.66 0 0
1.67 0 0
1.68 0 0
1.69 0 0
1.7 0 0
1.71 0 0
1.72 0 0
1.73 0 0
1.74 0 0
1.75 0 0
1.76 0 0
1.77 0 0
1.78 0 0
1.79 0 0
1.8 0 0
1.81 0 0
1.82 0 0
1.83 0 0
1.84 0 0
1.85 0 0
1.86 0 0
1.87 0 0
1.88 0 0
1.89 0 0
1.9 0 0
1.91 0 0
1.92 0 0
1.93 0 0
1.94 0 0
1.95 0 0
1.96 0 0
1.97 0 0
1.98 0 0
1.99 0 0
2 0.0100088 0
2 0.0204183 0
2 0.0312446 0
2 0.0425043 0
2 0.0542147 0
2 0.066394 0
2 0.079061 0
2 0.092235 0
2 0.105936 0
2 0.120186 0
2 0.135007 0
2 0.150421 0
2 0.166452 0
2 0.183124 0
2 0.200465 0
2 0.218499 0
2 0.237256 0
2 0.256763 0
2 0.277051 0
2 0.298152 0
2 0.320097 0
2 0.342921 0
2 0.366659 0
2 0.391347 0
2 0.417024 0
2 0.443728 0
2 0.471502 0
2 0.500387 0
2 0.530429 0
2 0.561674 0
2 0.594169 0
2 0.627966 0
2 0.663115 0
2 0.699672 0
2 0.737692 0
2 0.777235 0
2 0.818361 0
2 0.861133 0
2 0.905617 0
2 0.951882 0
1.95 1 0
1.9 1 0
1.85 1 0
1.8 1 0
1.75 1 0
1.7 1 0
1.65 1 0
1.6 1 0
1.55 1 0
1.5 1 0
1.45 1 0
1.4 1 0
1.35 1 0
1.3 1 0
1.25 1 0
1.2 1 0
1.15 1 0
1.1 1 0
1.05 1 0
1 1 0
0.95 1 0
0.9 1 0
0.85 1 0
0.8 1 0
0.75 1 0
0.7 1 0
0.65 1 0
0.6 1 0
0.55 1 0
0.5 1 0
0.45 1 0
0.4 1 0
0.35 1 0
0.3 1 0
0.25 1 0
0.2 1 0
0.15 1 0
0.1 1 0
0.05 1 0
3.69793e-12 1 0
-0.05 1 0
-0.1 1 0
-0.15 1 0
-0.2 1 0
-0.25 1 0
-0.3 1 0
-0.35 1 0
-0.4 1 0
-0.45 1 0
-0.5 1 0
-0.55 1 0
-0.6 1 0
-0.65 1 0
-0.7 1 0
-0.75 1 0
-0.8 1 0
-0.85 1 0
-0.9 1 0
-0.95 1 0
-1 0.951882 0
-1 0.905617 0
-1 0.861133 0
-1 0.818361 0
-1 0.777235 0
-1 0.737692 0
-1 0.699672 0
-1 0.663115 0
-1 0.627966 0
-1 0.594169 0
-1 0.561674 0
-1 0.530429 0
-1 0.500387 0
-1 0.471502 0
-1 0.443728 0
-1 0.417024 0
-1 0.391347 0
-1 0.366659 0
-1 0.342921 0
-1 0.320097 0
-1 0.298152 0
-1 0.277051 0
-1 0.256763 0
-1 0.237256 0
-1 0.218499 0
-1 0.200465 0
-1 0.183124 0
-1 0.166452 0
-1 0.150421 0
-1 0.135007 0
-1 0.120186 0
-1 0.105936 0
-1 0.092235 0
-1 0.079061 0
-1 0.066394 0
-1 0.0542147 0
-1 0.0425043 0
-1 0.0312446 0
-1 0.0204183 0
-1 0.0100088 0
0.00921362 0.00379763 0
0.0184561 0.00752451 0
0.0277268 0.0111804 0
0.0370253 0.0147652 0
0.0463511 0.0182786 0
0.0557034 0.0217203 0
0.0650819 0.0250903 0
0.074486 0.0283883 0
0.083915 0.0316141 0
0.0933685 0.0347675 0
0.102846 0.0378484 0
0.112347 0.0408565 0
0.12187 0.0437917 0
0.131416 0.0466538 0
0.140983 0.0494427 0
0.150572 0.0521581 0
0.160181 0.0547999 0
0.16981 0.0573681 0
0.179458 0.0598623 0
0.189125 0.0622825 0
0.198811 0.0646285 0
0.208514 0.0669001 0
0.218234 0.0690974 0
0.227971 0.07122 0
0.237724 0.073268 0
0.247493 0.0752411 0
0.257276 0.0771393 0
0.267073 0.0789625 0
0.276884 0.0807105 0
0.286708 0.0823832 0
0.296545 0.0839806 0
0.306394 0.0855025 0
0.316254 0.0869488 0
0.326125 0.0883196 0
0.336006 0.0896146 0
0.345896 0.0908339 0
0.355796 0.0919773 0
0.365704 0.0930447 0
0.375621 0.0940362 0
0.385544 0.0949517 0
0.395474 0.095791 0
0.40541 0.0965542 0
0.415352 0.0972412 0
0.425299 0.097852 0
0.43525 0.0983865 0
0.445205 0.0988447 0
0.455164 0.0992266 0
0.465125 0.0995321 0
0.475088 0.0997613 0
0.485052 0.0999141 0
0.495017 0.0999904 0
0.504983 0.0999904 0
0.514948 0.0999141 0
0.524912 0.0997613 0
0.534875 0.0995321 0
0.544836 0.0992266 0
0.554795 0.0988447 0
0.56475 0.0983865 0
0.574701 0.097852 0
0.584648 0.0972412 0
0.59459 0.0965542 0
0.604526 0.095791 0
0.614456 0.0949517 0
0.624379 0.0940362 0
0.634296 0.0930447 0
0.644204 0.0919773 0
0.654104 0.0908339 0
0.663994 0.0896146 0
0.673875 0.0883196 0
0.683746 0.0869488 0
0.693606 0.0855025 0
0.703455 0.0839806 0
0.713292 0.0823832 0
0.723116 0.0807105 0
0.732927 0.0789625 0
0.742724 0.0771393 0
0.752508 0.0752411 0
0.762276 0.073268 0
0.772029 0.07122 0
0.781766 0.0690974 0
0.791486 0.0669001 0
0.801189 0.0646285 0
0.810875 0.0622825 0
0.820542 0.0598623 0
0.83019 0.0573681 0
0.839819 0.0547999 0
0.849428 0.0521581 0
0.859017 0.0494427 0
0.868584 0.0466538 0
0.87813 0.0437917 0
0.887653 0.0408565 0
0.897154 0.0378484 0
0.906631 0.0347675 0
0.916085 0.0316141 0
0.925514 0.0283883 0
0.934918 0.0250903 0
0.944297 0.0217203 0
0.953649 0.0182786 0
0.962975 0.0147652 0
0.972273 0.0111804 0
0.981544 0.00752451 0
0.990786 0.00379763 0
-1 0.951882 0.1
-1 0.905617 0.1
-1 0.861133 0.1
-1 0.818361 0.1
-1 0.777235 0.1
-1 0.737692 0.1
-1 0.699672 0.1
-1 0.663115 0.1
-1 0.627966 0.1
-1 0.594169 0.1
-1 0.561674 0.1
-1 0.530429 0.1
-1 0.500387 0.1
-1 0.471502 0.1
-1 0.443728 0.1
-1 0.417024 0.1
-1 0.391347 0.1
-1 0.366659 0.1
-1 0.342921 0.1
-1 0.320097 0.1
-1 0.298152 0.1
-1 0.277051 0.1
-1 0.256763 0.1
-1 0.237256 0.1
-1 0.218499 0.1
-1 0.200465 0.1
-1 0.183124 0.1
-1 0.166452 0.1
-1 0.150421 0.1
-1 0.135007 0.1
-1 0.120186 0.1
-1 0.105936 0.1
-1 0.092235 0.1
-1 0.079061 0.1
-1 0.066394 0.1
-1 0.0542147 0.1
-1 0.0425043 0.1
-1 0.0312446 0.1
-1 0.0204183 0.1
-1 0.0100088 0.1
-0.99 0 0.1
-0.98 0 0.1
-0.97 0 0.1
-0.96 0 0.1
-0.95 0 0.1
-0.94 0 0.1
-0.93 0 0.1
-0.92 0 0.1
-0.91 0 0.1
-0.9 0 0.1
-0.89 0 0.1
-0.88 0 0.1
-0.87 0 0.1
-0.86 0 0.1
-0.85 0 0.1
-0.84 0 0.1
-0.83 0 0.1
-0.82 0 0.1
-0.81 0 0.1
-0.8 0 0.1
-0.79 0 0.1
-0.78 0 0.1
-0.77 0 0.1
-0.76 0 0.1
-0.75 0 0.1
-0.74 0 0.1
-0.73 0 0.1
-0.72 0 0.1
-0.71 0 0.1
-0.7 0 0.1
-0.69 0 0.1
-0.68 0 0.1
-0.67 0 0.1
-0.66 0 0.1
-0.65 0 0.1
-0.64 0 0.1
-0.63 0 0.1
-0.62 0 0.1
-0.61 0 0.1
-0.6 0 0.1
-0.59 0 0.1
-0.58 0 0.1
-0.57 0 0.1
-0.56 0 0.1
-0.55 0 0.1
-0.54 0 0.1
-0.53 0 0.1
-0.52 0 0.1
-0.51 0 0.1
-0.5 0 0.1
-0.49 0 0.1
-0.48 0 0.1
-0.47 0 0.1
-0.46 0 0.1
-0.45 0 0.1
-0.44 0 0.1
-0.43 0 0.1
-0.42 0 0.1
-0.41 0 0.1
-0.4 0 0.1
-0.39 0 0.1
-0.38 0 0.1
-0.37 0 0.1
-0.36 0 0.1
-0.35 0 0.1
-0.34 0 0.1
-0.33 0 0.1
-0.32 0 0.1
-0.31 0 0.1
-0.3 0 0.1
-0.29 0 0.1
-0.28 0 0.1
-0.27 0 0.1
-0.26 0 0.1
-0.25 0 0.1
-0.24 0 0.1
-0.23 0 0.1
-0.22 0 0.1
-0.21 0 0.1
-0.2 0 0.1
-0.19 0 0.1
-0.18 0 0.1
-0.17 0 0.1
-0.16 0 0.1
-0.15 0 0.1
-0.14 0 0.1
-0.13 0 0.1
-0.12 0 0.1
-0.11 0 0.1
-0.1 0 0.1
-0.09 0 0.1
-0.08 0 0.1
-0.07 0 0.1
-0.06 0 0.1
-0.05 0 0.1
-0.04 0 0.1
-0.03 0 0.1
-0.02 0 0.1
-0.01 0 0.1
0.00921362 0.00379763 0.1
0.0184561 0.00752451 0.1
0.0277268 0.0111804 0.1
0.0370253 0.0147652 0.1
0.0463511 0.0182786 0.1
0.0557034 0.0217203 0.1
0.0650819 0.0250903 0.1
0.074486 0.0283883 0.1
0.083915 0.0316141 0.1
0.0933685 0.0347675 0.1
0.102846 0.0378484 0.1
0.112347 0.0408565 0.1
0.12187 0.0437917 0.1
0.131416 0.0466538 0.1
0.140983 0.0494427 0.1
0.150572 0.0521581 0.1
0.160181 0.0547999 0.1
0.16981 0.0573681 0.1
0.179458 0.0598623 0.1
0.189125 0.0622825 0.1
0.198811 0.0646285 0.1
0.208514 0.0669001 0.1
0.218234 0.0690974 0.1
0.227971 0.07122 0.1
0.237724 0.073268 0.1
0.247493 0.0752411 0.1
0.257276 0.0771393 0.1
0.267073 0.0789625 0.1
0.276884 0.0807105 0.1
0.286708 0.0823832 0.1
0.296545 0.0839806 0.1
0.306394 0.0855025 0.1
0.316254 0.0869488 0.1
0.326125 0.0883196 0.1
0.336006 0.0896146 0.1
0.345896 0.0908339 0.1
0.355796 0.0919773 0.1
0.365704 0.0930447 0.1
0.375621 0.0940362 0.1
0.385544 0.0949517 0.1
0.395474 0.095791 0.1
0.40541 0.0965542 0.1
0.415352 0.0972412 0.1
0.425299 0.097852 0.1
0.43525 0.0983865 0.1
0.445205 0.0988447 0.1
0.455164 0.0992266 0.1
0.465125 0.0995321 0.1
0.475088 0.0997613 0.1
0.485052 0.0999141 0.1
0.495017 0.0999904 0.1
0.504983 0.0999904 0.1
0.514948 0.0999141 0.1
0.524912 0.0997613 0.1
0.534875 0.0995321 0.1
0.544836 0.0992266 0.1
0.554795 0.0988447 0.1
0.56475 0.0983865 0.1
0.574701 0.097852 0.1
0.584648 0.0972412 0.1
0.59459 0.0965542 0.1
0.604526 0.095791 0.1
0.614456 0.0949517 0.1
0.624379 0.0940362 0.1
0.634296 0.0930447 0.1
0.644204 0.0919773 0.1
0.654104 0.0908339 0.1
0.663994 0.0896146 0.1
0.673875 0.0883196 0.1
0.683746 0.0869488 0.1
0.693606 0.0855025 0.1
0.703455 0.0839806 0.1
0.713292 0.0823832 0.1
0.723116 0.0807105 0.1
0.732927 0.0789625 0.1
0.742724 0.0771393 0.1
0.752508 0.0752411 0.1
0.762276 0.073268 0.1
0.772029 0.07122 0.1
0.781766 0.0690974 0.1
0.791486 0.0669001 0.1
0.801189 0.0646285 0.1
0.810875 0.0622825 0.1
0.820542 0.0598623 0.1
0.83019 0.0573681 0.1
0.839819 0.0547999 0.1
0.849428 0.0521581 0.1
0.859017 0.0494427 0.1
0.868584 0.0466538 0.1
0.87813 0.0437917 0.1
0.887653 0.0408565 0.1
0.897154 0.0378484 0.1
0.906631 0.0347675 0.1
0.916085 0.0316141 0.1
0.925514 0.0283883 0.1
0.934918 0.0250903 0.1
0.944297 0.0217203 0.1
0.953649 0.0182786 0.1
0.962975 0.0147652 0.1
0.972273 0.0111804 0.1
0.981544 0.00752451 0.1
0.990786 0.00379763 0.1
1.01 0 0.1
1.02 0 0.1
1.03 0 0.1
[...]
CELL_DATA 14313
SCALARS rho float
LOOKUP_TABLE default
0.783527
0.825494
0.80662
0.546406
0.769825
0.814485
0.814992
0.814902
0.811585
0.816076
0.814717
0.799467
0.799299
0.538909
0.815298
0.833587
0.809668
0.808345
0.812469
0.806087
0.81338
0.814824
0.814936
0.769586
0.814528
0.815575
0.744959
0.704315
0.824979
0.826138
0.814509
0.795155
0.80203
0.8145
0.805217
0.813048
0.685132
0.809792
0.814093
0.803216
0.755353
0.81304
0.550476
0.706725
0.819723
0.837026
0.813315
0.778839
0.806378
0.854293
0.680856
0.6574
0.603622
0.812961
0.821632
0.783993
0.819709
0.815621
0.811356
0.814793
0.814576
0.820487
0.795132
0.840467
0.812999
0.815678
0.856154
0.785179
0.842058
0.81529
0.798921
0.833158
0.507478
0.838705
0.732886
0.809184
0.826733
0.749598
0.69976
0.813997
0.597314
0.826488
0.83446
0.803801
0.807808
0.821322
0.814464
0.805002
0.827989
0.807654
0.781365
0.544434
0.808154
0.800241
0.732857
0.804096
0.816906
0.811486
0.803924
0.509109
0.809091
0.812144
0.814965
0.815873
0.751287
0.810031
0.803567
0.70277
0.836033
0.812382
0.814499
0.826723
0.814378
0.821354
0.804532
0.829157
0.82178
0.837735
0.780263
0.800897
0.814049
0.811553
0.860445
0.727635
0.846036
0.757075
0.791889
0.805006
0.816923
0.845584
0.811904
0.814537
0.861725
0.814778
0.825174
0.783955
0.809011
0.79315
0.81976
0.81945
0.814992
0.818789
0.803477
0.803638
0.797387
0.840565
0.806374
0.762729
0.797459
0.819475
0.799667
0.803801
0.814938
0.7134
0.823038
0.803992
0.725967
0.823076
0.814549
0.812636
0.820501
0.809447
0.669412
0.759796
0.825023
0.826457
0.718569
0.815043
0.829777
0.817439
0.693686
0.816925
0.716433
0.790293
0.811205
0.828248
0.81047
0.817087
0.822931
0.745887
0.813966
0.811971
0.775708
0.771663
0.791494
0.813212
0.815286
0.79783
0.509816
0.789297
0.760616
0.747003
0.771385
0.721875
0.814766
0.817102
0.808129
0.803702
0.808461
0.818971
0.762754
0.803722
0.830243
0.817125
0.835047
0.803564
0.817279
0.814894
0.814505
0.835912
0.805785
0.81314
0.797905
0.704129
0.816346
0.823229
0.812089
0.808978
0.836075
0.804295
0.803371
0.820044
0.808372
0.856558
0.811548
0.803819
0.820049
0.802906
0.814902
0.759912
0.658484
0.81585
0.700808
0.828656
0.802855
0.728151
0.814332
0.816313
0.817052
0.828401
0.792606
0.703704
0.751687
0.611199
0.817262
0.72667
0.801779
0.807756
0.839181
0.817109
0.582506
0.804473
0.732393
0.838903
0.802941
0.699522
0.813339
0.828802
0.816882
0.568503
0.813884
0.802892
0.801245
0.808154
0.790431
0.776088
0.81645
0.816242
0.546089
0.816919
0.81609
0.773752
0.802685
0.814705
0.781792
0.819301
0.785743
0.714533
0.803607
0.806247
0.575229
0.551827
0.759464
0.810325
0.822469
0.791078
0.814362
0.817101
0.777488
0.806684
0.803824
0.818868
0.831227
0.795414
0.808788
0.813612
0.64626
0.820416
0.710513
0.799713
0.794017
0.779043
0.837156
0.810015
0.799005
0.68312
0.675378
0.805585
0.807522
0.820494
0.804632
0.800879
0.65627
0.817363
0.823325
0.818923
0.814722
0.815225
0.801908
0.792813
0.81651
0.616251
0.810408
0.814801
0.816726
0.815013
0.768063
0.823377
0.80237
0.816544
0.815393
0.754133
0.755581
0.803513
0.803585
0.698299
0.814968
0.813847
0.808919
0.814204
0.804552
0.801363
0.731744
0.715436
0.8167
0.750856
0.761176
0.820984
0.839051
0.816509
0.80398
0.80897
0.814812
0.803889
0.819218
0.785296
0.819153
0.812502
0.813248
0.797081
0.812865
0.794443
0.81449
0.595097
0.801138
0.801925
0.813962
0.815075
0.770123
0.802249
0.814772
0.814963
0.820157
0.771455
0.819177
0.810326
0.756609
0.762353
0.813499
0.808075
0.830958
0.826622
0.824419
0.805976
0.610014
0.781606
0.609497
0.803843
0.803663
0.803154
0.81656
0.874971
0.536048
0.604144
0.839789
0.872946
0.814189
0.69354
0.804141
0.72434
0.809044
0.81752
0.710079
0.65563
0.754242
0.815285
0.692068
0.874505
0.826274
0.800846
0.809514
0.501821
0.745126
0.783919
0.819743
0.806462
0.802439
0.831977
0.814878
0.711027
0.690696
0.802396
0.806901
0.81197
0.814251
0.80951
0.814585
0.739524
0.792124
0.797865
0.803269
0.766827
0.819814
0.808606
0.815323
0.814281
0.759094
0.80598
0.804346
0.795617
0.814747
0.817714
0.809087
0.663687
0.788592
0.819363
0.813476
0.814476
0.808016
0.815088
0.806742
0.823005
0.82339
0.687207
0.856399
0.746572
0.822645
0.807069
0.745614
0.825963
0.801242
0.827326
0.556579
0.802031
0.685023
0.814654
0.809958
0.539309
0.801693
0.805181
0.798655
0.802885
0.80304
0.774662
0.814509
0.602993
0.80656
0.806769
0.801178
0.82038
0.767495
0.814647
0.811917
0.800317
0.818434
0.798889
0.803257
0.814893
0.638663
0.771713
0.738046
0.504609
0.826627
0.576588
0.803182
0.820916
0.857846
0.710986
0.745065
0.814743
0.806769
0.802672
0.796069
0.769103
0.813381
0.814947
0.79894
0.815547
0.817871
0.699411
0.814854
0.815666
0.806797
0.812778
0.613286
0.817369
0.823508
0.715099
0.789857
0.815597
0.801451
0.83101
0.832729
0.804372
0.742196
0.500235
0.816195
0.578078
0.801032
0.803478
0.774686
0.814707
0.753239
0.813916
0.807352
0.803516
0.500758
0.81656
0.829237
0.832322
0.816453
0.803766
0.803443
0.814899
0.75911
0.848685
0.839984
0.717889
0.800808
0.65763
0.779509
0.672503
0.81809
0.839264
0.801478
0.647845
0.76901
0.816047
0.826339
0.834101
0.815339
0.685916
0.547172
0.806417
0.818098
0.803055
0.817907
0.806683
0.773204
0.854365
0.81742
0.80431
0.818898
0.799565
0.743567
0.800512
0.813306
0.603619
0.692578
0.803803
0.813432
0.805212
0.58155
0.814082
0.609949
0.814948
0.769431
0.818768
0.818476
0.753712
0.808775
0.794574
0.805492
0.839361
0.840354
0.832682
0.805141
0.818353
0.58794
0.814965
0.858024
0.826554
0.83104
0.804575
0.82278
0.800997
0.841111
0.809587
0.815183
0.68193
0.645101
0.837372
0.815774
0.84194
0.722112
0.802986
0.765515
0.799521
0.810436
0.795314
0.809301
0.815528
0.824667
0.829875
0.831839
0.805887
0.750301
0.806343
0.736178
0.795705
0.823342
0.802254
0.815916
0.761058
0.805556
0.806165
0.84834
0.8114
0.803497
0.807722
0.835963
0.8329
0.803781
0.857548
0.79777
0.822094
0.675242
0.803378
0.80076
0.80129
0.833444
0.613809
0.806807
0.805935
0.665041
0.816892
0.831099
0.816211
0.803521
0.806893
0.803019
0.818263
0.801363
0.715374
0.524133
0.81581
0.807937
0.803023
0.805458
0.804408
0.80415
0.813223
0.800593
0.816107
0.589734
0.815195
0.809936
0.814456
0.843716
0.816095
0.83586
0.81408
0.800015
0.815277
0.685888
0.804172
0.853782
0.815305
0.793761
0.816517
0.638763
0.806373
0.595353
0.677478
0.682812
0.810071
0.817721
0.813055
0.510557
0.697866
0.803731
0.832525
0.74994
0.834358
0.805501
0.807248
0.799119
0.698579
0.754725
0.55882
0.803421
0.814388
0.806099
0.822516
0.67364
0.687714
0.857379
0.803251
0.816375
0.735874
0.815951
0.536347
0.822838
0.699463
0.816207
0.819599
0.802495
0.803226
0.82707
0.796729
0.804096
0.806153
0.636255
0.807335
0.661784
0.801074
0.800732
0.816114
0.81613
0.732096
0.817555
0.754956
0.803439
0.717131
0.806806
0.745977
0.675234
0.826446
0.814952
0.801632
0.730881
0.813084
0.662998
0.813273
0.803307
0.724502
0.827742
0.818534
0.651246
0.699415
0.827671
0.803861
0.730104
0.835229
0.836391
0.837752
0.814454
0.55642
0.753575
0.822528
0.822347
0.566311
0.644529
0.817369
0.815
0.729166
0.779842
0.814716
0.8092
0.761172
0.814702
0.815913
0.803734
0.734964
0.802753
0.799291
0.814314
0.585091
0.805977
0.823786
0.580685
0.82023
0.848696
0.814717
0.680177
0.814425
0.814135
0.814513
0.801498
0.820832
0.803956
0.807187
0.805216
0.803481
0.815877
0.673479
0.812107
0.811191
0.702246
0.613277
0.787289
0.800842
0.814737
0.753361
0.61243
0.814045
0.786009
0.814723
0.823483
0.815895
0.826997
0.750789
0.605128
0.814234
0.840965
0.814714
0.699575
0.805633
0.730566
0.815547
0.81344
0.814629
0.819523
0.801852
0.815527
0.809026
0.757517
0.818362
0.815146
0.754913
0.792822
0.717776
0.588655
0.738067
0.78409
0.817955
0.813949
0.812579
0.812958
0.803472
0.797639
0.808541
0.698224
0.75311
0.814246
0.803748
0.805241
0.819207
0.614429
0.815959
0.804184
0.844865
0.810325
0.646282
0.794571
0.804321
0.843716
0.701086
0.572554
0.583899
0.639765
0.819684
0.805269
0.572219
0.602316
0.822022
0.814796
0.89
0.805169
0.830869
0.814971
0.769599
0.813322
0.815075
0.814732
0.813169
0.814718
0.800147
0.814507
0.66509
0.817937
0.803845
0.811863
0.755855
0.819329
0.615526
0.85895
0.804187
0.828741
0.814725
0.808489
0.746789
0.824984
0.814307
0.83904
0.814487
0.814934
0.653069
0.828494
0.812857
0.814907
0.837935
0.824546
0.561773
0.798864
0.804663
0.813501
0.817769
0.804201
0.801511
0.817495
0.767557
0.806752
0.818099
0.864447
0.83289
0.600948
0.798295
0.756529
0.816387
0.764023
0.821448
0.80531
0.806884
0.814816
0.791027
0.807728
0.816241
0.823065
0.788393
0.684269
0.739351
0.709056
0.816397
0.838909
0.840362
0.739037
0.811199
0.753627
0.618322
0.814709
0.801112
0.814504
0.803794
0.642123
0.802823
0.778144
0.735922
0.813441
0.744118
0.809431
0.818566
0.860924
0.810405
0.807818
0.742556
0.815024
0.77795
0.840829
0.884528
0.799487
0.530471
0.801743
0.616172
0.771475
0.661463
0.799714
0.513576
0.817291
0.853322
0.806411
0.813316
0.821749
0.80539
0.803358
0.70153
0.825661
0.814504
0.804478
0.808885
0.79335
0.803801
0.808929
0.639701
0.818738
0.80384
0.848546
0.810397
0.805117
0.803199
0.815318
0.815436
0.809912
0.803724
0.789763
0.814773
0.797122
0.803899
0.81568
0.77456
0.574852
0.815168
0.820286
0.804752
0.72114
0.803717
0.809847
0.803607
0.707798
0.877789
0.814331
0.818805
0.814711
0.850715
0.780293
0.814741
0.789841
0.817972
0.824023
0.667465
0.814769
0.73182
0.81989
0.726716
0.801997
0.754612
0.804171
0.691326
0.811772
0.732366
0.494341
0.821817
0.666066
0.769257
0.819373
0.814879
0.778845
0.813858
0.727153
0.642623
0.827967
0.690548
0.818896
0.770295
0.802448
0.808392
0.81568
0.65648
0.804932
0.774793
0.812273
0.81443
0.831823
0.806607
0.692549
0.757825
0.659939
0.800681
0.805553
0.814642
0.817565
0.812621
0.81422
0.812059
0.668383
0.734253
0.66607
0.705441
0.81625
0.809946
0.834655
0.810106
0.816995
0.695876
0.878783
0.817441
0.828033
0.580405
0.824812
0.814771
0.842189
0.84682
0.82801
0.832294
0.822226
0.549979
0.806261
0.817019
0.708995
0.818902
0.803841
0.814726
0.808623
0.815059
0.815053
0.770542
0.715465
0.800331
0.801622
0.580643
0.816356
0.860191
0.817548
0.674612
0.824543
0.815529
0.821599
0.838182
0.69238
0.502198
0.805215
0.84128
0.80648
0.805097
0.816535
0.802164
0.813025
0.812064
0.801387
0.804588
0.805053
0.814982
0.805949
0.806838
0.80107
0.837892
0.832391
0.854481
0.815352
0.809751
0.816752
0.815429
0.814718
0.813528
0.817724
0.835307
0.809098
0.813602
0.619123
0.832244
0.696897
0.86918
0.803944
0.834616
0.801567
0.787236
0.788133
0.739005
0.823168
0.811714
0.814052
0.815779
0.777491
0.810315
0.590786
0.806587
0.815437
0.81553
0.79652
0.814641
0.615817
0.784799
0.565573
0.822662
0.799265
0.776624
0.80406
0.816007
0.814955
0.814974
0.735604
0.810638
0.81455
0.812296
0.803953
0.804212
0.747275
0.770639
0.810963
0.804018
0.707651
0.604997
0.503786
0.842419
0.806477
0.780704
0.78253
0.825273
0.803794
0.804212
0.820157
0.780687
0.756952
0.818365
0.809307
0.812845
0.838507
0.805559
0.814403
0.808745
0.498814
0.803732
0.814529
0.776055
0.821423
0.816531
0.827449
0.617427
0.705227
0.5822
0.829664
0.817758
0.746686
0.812612
0.681117
0.816319
0.812069
0.814565
0.804522
0.812615
0.583549
0.692186
0.808252
0.815711
0.794401
0.803667
0.8325
0.801184
0.803803
0.654931
0.809929
0.814627
0.804899
0.814811
0.80289
0.62487
0.816879
0.814916
0.579764
0.708512
0.795642
0.830365
0.706526
0.804395
0.794565
0.814739
0.756939
0.688856
0.81308
0.796645
0.801323
0.767754
0.551761
0.822153
0.677873
0.75134
0.728768
0.804222
0.799609
0.814109
0.668307
0.769457
0.804392
0.817271
0.598144
0.801434
0.826765
0.809393
0.55121
0.806077
0.784677
0.716909
0.715796
0.800925
0.821206
0.815446
0.811001
0.71056
0.742362
0.646217
0.83402
0.84411
0.81898
0.789176
0.866176
0.706419
0.815755
0.768918
0.791962
0.796383
0.814638
0.804306
0.814222
0.787686
0.758227
0.821809
0.799139
0.84358
0.722325
0.791966
0.805965
0.726112
0.804638
0.816777
0.582573
0.802363
0.801504
0.802938
0.823193
0.766633
0.801005
0.725907
0.814754
0.809329
0.728579
0.814753
0.818361
0.830438
0.806261
0.78906
0.799926
0.80653
0.722883
0.814984
0.803448
0.683995
0.807771
0.781742
0.833399
0.822487
0.821027
0.840851
0.851226
0.708906
0.816094
0.797433
0.788358
0.622193
0.818794
0.806031
0.814809
0.778837
0.854612
0.834246
0.783098
0.845263
0.781282
0.80095
0.773961
0.814798
0.725025
0.640562
0.845519
0.668144
0.793469
0.840992
0.81496
0.677106
0.809748
0.754368
0.804489
0.799544
0.784029
0.804496
0.80332
0.803315
0.802406
0.786796
0.814615
0.78353
0.818479
0.808225
0.719683
0.785841
0.815964
0.814984
0.80601
0.571153
0.826422
0.815118
0.814554
0.713843
0.805537
0.802114
0.80333
0.818134
0.746152
0.818209
0.802858
0.806504
0.758913
0.814084
0.813352
0.807403
0.771088
0.809762
0.815309
0.808527
0.817646
0.810491
0.806462
0.824874
0.804964
0.79075
0.808646
0.814775
0.819
0.781643
0.70706
0.816132
0.812916
0.803305
0.746
0.789817
0.658308
0.803527
0.549655
0.803421
0.816746
0.77626
0.836187
0.550549
0.811909
0.74119
0.813133
0.543662
0.805832
0.830029
0.815696
0.820841
0.738812
0.842455
0.565557
0.825167
0.702735
0.801995
0.690181
0.674068
0.81503
0.814708
0.745535
0.803544
0.822088
0.616842
0.82365
0.770788
0.835178
0.814718
0.815818
0.815559
0.804111
0.83956
0.81215
0.804179
0.614667
0.803389
0.844924
0.803139
0.803743
0.769509
0.807118
0.814596
0.814759
0.799061
0.737006
0.812802
0.817749
0.608077
0.804602
0.612631
0.817913
0.556254
0.814651
0.773033
0.687656
0.731076
0.783526
0.718094
0.844756
0.814662
0.798784
0.804417
0.70687
0.802943
0.791462
0.802919
0.816809
0.803986
0.728177
0.707804
0.802505
0.774181
0.528785
0.813816
0.67696
0.795026
0.695989
0.826711
0.812001
0.826953
0.811966
0.839109
0.809845
0.595653
0.830999
0.809608
0.803489
0.817704
0.814643
0.815029
0.815322
0.826974
0.818609
0.626032
0.805106
0.800976
0.815372
0.695645
0.802722
0.825322
0.758847
0.692363
0.809425
0.698718
0.734828
0.811737
0.815207
0.672784
0.842878
0.769299
0.805749
0.798854
0.812475
0.845905
0.801749
0.55545
0.817192
0.691778
0.698748
0.778317
0.762007
0.771979
0.8148
0.803637
0.818305
0.814724
0.591587
0.78809
0.833878
0.814721
0.598428
0.729285
0.64738
0.818865
0.812978
0.69437
0.804361
0.814694
0.80158
0.83664
0.617032
0.841877
0.739424
0.814475
0.815006
0.683167
0.814968
0.715827
0.793699
0.710984
0.813601
0.787177
0.640525
0.727563
0.719317
0.834635
0.81199
0.821416
0.82403
0.803494
0.809292
0.804739
0.819478
0.803801
0.697926
0.804222
0.608626
0.779376
0.807626
0.804013
0.814773
0.826184
0.803421
0.724505
0.693153
0.673173
0.792837
0.818184
0.747687
0.617255
0.754601
0.812953
0.802271
0.762669
0.805087
0.824649
0.755631
0.575495
0.701988
0.80061
0.814775
0.865377
0.816652
0.814448
0.853007
0.801667
0.802458
0.816744
0.814823
0.80767
0.722554
0.809684
0.702287
0.863377
0.781557
0.815851
0.620279
0.798977
0.538479
0.589054
0.618009
0.810296
0.803804
0.811605
0.762045
0.80372
0.543456
0.785076
0.805081
0.739508
0.816602
0.804077
0.818079
0.844255
0.691035
0.814217
0.802337
0.812229
0.817495
0.815351
0.814916
0.757575
0.799508
0.799578
0.803459
0.799771
0.813118
0.848179
0.820692
0.728487
0.805154
0.659873
0.815643
0.814722
0.594944
0.769119
0.769163
0.54799
0.787009
0.80393
0.879141
0.800804
0.81537
0.758938
0.795236
0.799452
0.810764
0.784001
0.551715
0.699432
0.684658
0.78249
0.81678
0.803469
0.822761
0.791231
0.804176
0.815283
0.800527
0.853404
0.714866
0.814521
0.782131
0.54202
0.606298
0.815389
0.80384
0.805943
0.568483
0.797513
0.804025
0.663309
0.816114
0.793156
0.809155
0.81709
0.64087
0.722517
0.726213
0.814959
0.834368
0.638263
0.790835
0.710285
0.815995
0.828966
0.780926
0.775954
0.549856
0.813995
0.802589
0.726548
0.855417
0.806203
0.730303
0.742694
0.766501
0.813496
0.570263
0.797357
0.738134
0.800714
0.823905
0.714251
0.801594
0.813943
0.719511
0.813772
0.70982
0.818245
0.800547
0.759109
0.701931
0.811133
0.800523
0.81581
0.673758
0.805746
0.807259
0.814273
0.703355
0.81477
0.810248
0.83325
0.694069
0.817768
0.743586
0.814574
0.8076
0.8437
0.803988
0.821044
0.75085
0.81748
0.840369
0.834275
0.8183
0.848466
0.752682
0.851201
0.828816
0.805529
0.827217
0.806448
0.65101
0.780578
0.816301
0.749816
0.702449
0.800982
0.805907
0.695664
0.799955
0.547559
0.851289
0.707631
0.710094
0.815969
0.776315
0.808822
0.799621
0.80884
0.804206
0.814544
0.838097
0.736116
0.774572
0.596725
0.81273
0.778089
0.812568
0.80547
0.577048
0.803162
0.802701
0.809976
0.800624
0.818942
0.808642
0.699164
0.82508
0.851331
0.688639
0.74704
0.814765
0.803502
0.720318
0.815882
0.757585
0.797618
0.803353
0.806031
0.838751
0.673745
0.721181
0.80115
0.706899
0.773704
0.833459
0.541427
0.697012
0.799981
0.804619
0.803529
0.741457
0.824344
0.809281
0.803911
0.808713
0.815754
0.699454
0.660516
0.810205
0.816211
0.801049
0.876151
0.803992
0.814948
0.799477
0.812282
0.813558
0.809056
0.662277
0.815444
0.818814
0.803737
0.804445
0.801398
0.622498
0.812047
0.813062
0.814995
0.866471
0.816737
0.802172
0.504799
0.837978
0.704969
0.828256
0.807493
0.814651
0.826793
0.811811
0.814636
0.737279
0.559961
0.540784
0.814882
0.811457
0.546557
0.796454
0.816802
0.835142
0.518489
0.810378
0.815816
0.803727
0.80988
0.547406
0.815568
0.808842
0.567935
0.814807
0.817563
0.549834
0.810731
0.815137
0.777032
0.807785
0.812844
0.812245
0.800828
0.827722
0.543503
0.832212
0.816563
0.804371
0.745847
0.788175
0.814004
0.810296
0.804551
0.818018
0.801075
0.671709
0.808607
0.692331
0.814705
0.664505
0.749688
0.797529
0.721742
0.803697
0.585836
0.851047
0.814834
0.814806
0.801547
0.803363
0.803288
0.814493
0.816734
0.674339
0.724919
0.731951
0.817118
0.728735
0.667938
0.819244
0.785919
0.829589
0.814074
0.810179
0.735638
0.550506
0.799452
0.792496
0.514933
0.816244
0.815495
0.738275
0.806683
0.770861
0.61819
0.812269
0.815512
0.790937
0.615379
0.802883
0.784289
0.828235
0.815469
0.813126
0.812537
0.815341
0.70878
0.801971
0.818025
0.706136
0.498417
0.73911
0.799348
0.735541
0.8155
0.800567
0.806165
0.783882
0.868376
0.80365
0.802183
0.827571
0.860535
0.80497
0.817775
0.796821
0.818167
0.790255
0.746427
0.812712
0.804613
0.818417
0.803469
0.793295
0.844296
0.767549
0.815253
0.775549
0.804972
0.646967
0.521818
0.80158
0.802906
0.812222
0.79875
0.801584
0.814671
0.77417
0.806108
0.814717
0.78433
0.818851
0.777452
0.601509
0.80559
0.761165
0.777939
0.753368
0.764106
0.794839
0.789599
0.823975
0.788543
0.809964
0.803474
0.767959
0.81782
0.552186
0.73466
0.813033
0.816302
0.814002
0.804622
0.815215
0.812274
0.806337
0.823202
0.810233
0.784294
0.818795
0.803426
0.792948
0.796753
0.805627
0.592946
0.804001
0.79314
0.583939
0.814885
0.807806
0.80645
0.811339
0.707301
0.75401
0.823167
0.775326
0.812131
0.818564
0.716778
0.804858
0.826025
0.724267
0.800267
0.812004
0.780111
0.806905
0.839232
0.802713
0.819534
0.774715
0.805693
0.801882
0.815511
0.804095
0.800079
0.597368
0.817537
0.789393
0.807072
0.827536
0.703113
0.83038
0.821617
0.519508
0.807911
0.804798
0.803936
0.814734
0.825953
0.82599
0.805317
0.80821
0.816558
0.814136
0.803726
0.814991
0.806227
0.751173
0.717521
0.783309
0.816096
0.814402
0.778075
0.760243
0.814657
0.826254
0.811243
0.814816
0.704191
0.514525
0.747913
0.819734
0.808406
0.81849
0.845502
0.801752
0.722675
0.663588
0.802076
0.806411
0.701494
0.815212
0.682605
0.838341
0.732589
0.815192
0.895918
0.816308
0.802596
0.78027
0.811872
0.690302
0.815001
0.810605
0.79253
0.807913
0.779831
0.802451
0.810567
0.783396
0.803782
0.853342
0.778105
0.802389
0.54543
0.804421
0.697356
0.804408
0.795147
0.789253
0.785831
0.725119
0.804461
0.790501
0.845937
0.815755
0.815016
0.814418
0.896167
0.74985
0.803275
0.736897
0.803302
0.800695
0.805475
0.722104
0.802716
0.806262
0.653055
0.810923
0.751491
0.606962
0.847947
0.848749
0.75354
0.81161
0.7956
0.77468
0.737691
0.777749
0.78709
0.739058
0.804241
0.805607
0.726923
0.817629
0.80539
0.569665
0.814705
0.82328
0.815358
0.803809
0.616361
0.723162
0.806862
0.860383
0.565541
0.729368
0.808169
0.816766
0.798613
0.709425
0.719957
0.809551
0.815709
0.817336
0.838701
0.744707
0.757658
0.876655
0.807769
0.811945
0.796074
0.656559
0.632642
0.594393
0.664829
0.603788
0.767795
0.803112
0.804627
0.814746
0.810932
0.812058
0.861342
0.724275
0.8258
0.816307
0.819287
0.818881
0.81624
0.81547
0.81407
0.814698