# vtk DataFile Version 1.0
unstructured grid
ascii
DATASET UNSTRUCTURED_GRID
points 14760 float
-1 0 0
-1 1 0
2 0 0
2 1 0
0 0 0
1 0 0
-1 1 0.1
-1 0 0.1
0 0 0.1
1 0 0.1
2 0 0.1
2 1 0.1
-0.99 0 0
-0.98 0 0
-0.97 0 0
-0.96 0 0
-0.95 0 0
-0.94 0 0
-0.93 0 0
-0.92 0 0
-0.91 0 0
-0.9 0 0
-0.89 0 0
-0.88 0 0
-0.87 0 0
-0.86 0 0
-0.85 0 0
-0.84 0 0
-0.83 0 0
-0.82 0 0
-0.81 0 0
-0.8 0 0
-0.79 0 0
-0.78 0 0
-0.77 0 0
-0.76 0 0
-0.75 0 0
-0.74 0 0
-0.73 0 0
-0.72 0 0
-0.71 0 0
-0.7 0 0
-0.69 0 0
-0.68 0 0
-0.67 0 0
-0.66 0 0
-0.65 0 0
-0.64 0 0
-0.63 0 0
-0.62 0 0
-0.61 0 0
-0.6 0 0
-0.59 0 0
-0.58 0 0
-0.57 0 0
-0.56 0 0
-0.55 0 0
-0.54 0 0
-0.53 0 0
-0.52 0 0
-0.51 0 0
-0.5 0 0
-0.49 0 0
-0.48 0 0
-0.47 0 0
-0.46 0 0
-0.45 0 0
-0.44 0 0
-0.43 0 0
-0.42 0 0
-0.41 0 0
-0.4 0 0
-0.39 0 0
-0.38 0 0
-0.37 0 0
-0.36 0 0
-0.35 0 0
-0.34 0 0
-0.33 0 0
-0.32 0 0
-0.31 0 0
-0.3 0 0
-0.29 0 0
-0.28 0 0
-0.27 0 0
-0.26 0 0
-0.25 0 0
-0.24 0 0
-0.23 0 0
-0.22 0 0
-0.21 0 0
-0.2 0 0
-0.19 0 0
-0.18 0 0
-0.17 0 0
-0.16 0 0
-0.15 0 0
-0.14 0 0
-0.13 0 0
-0.12 0 0
-0.11 0 0
-0.1 0 0
-0.09 0 0
-0.08 0 0
-0.07 0 0
-0.06 0 0
-0.05 0 0
-0.04 0 0
-0.03 0 0
-0.02 0 0
-0.01 0 0
1.01 0 0
1.02 0 0
1.03 0 0
1.04 0 0
1.05 0 0
1.06 0 0
1.07 0 0
1.08 0 0
1.09 0 0
1.1 0 0
1.11 0 0
1.12 0 0
1.13 0 0
1.14 0 0
1.15 0 0
1.16 0 0
1.17 0 0
1.18 0 0
1.19 0 0
1.2 0 0
1.21 0 0
1.22 0 0
1.23 0 0
1.24 0 0
1.25 0 0
1.26 0 0
1.27 0 0
1.28 0 0
1.29 0 0
1.3 0 0
1.31 0 0
1.32 0 0
1.33 0 0
1.34 0 0
1.35 0 0
1.36 0 0
1.37 0 0
1.38 0 0
1.39 0 0
1.4 0 0
1.41 0 0
1.42 0 0
1.43 0 0
1.44 0 0
1.45 0 0
1.46 0 0
1.47 0 0
1.48 0 0
1.49 0 0
1.5 0 0
1.51 0 0
1.52 0 0
1.53 0 0
1.54 0 0
1.55 0 0
1.56 0 0
1.57 0 0
1.58 0 0
1.59 0 0
1.6 0 0
1.61 0 0
1.62 0 0
1.63 0 0
1.64 0 0
1.65 0 0
1.66 0 0
1.67 0 0
1.68 0 0
1.69 0 0
1.7 0 0
1.71 0 0
1.72 0 0
1.73 0 0
1.74 0 0
1.75 0 0
1.76 0 0
1.77 0 0
1.78 0 0
1.79 0 0
1.8 0 0
1.81 0 0
1.82 0 0
1.83 0 0
1.84 0 0
1.85 0 0
1.86 0 0
1.87 0 0
1.88 0 0
1.89 0 0
1.9 0 0
1.91 0 0
1.92 0 0
1.93 0 0
1.94 0 0
1.95 0 0
1.96 0 0
1.97 0 0
1.98 0 0
1.99 0 0
2 0.0100088 0
2 0.0204183 0
2 0.0312446 0
2 0.0425043 0
2 0.0542147 0
2 0.066394 0
2 0.079061 0
2 0.092235 0
2 0.105936 0
2 0.120186 0
2 0.135007 0
2 0.150421 0
2 0.166452 0
2 0.183124 0
2 0.200465 0
2 0.218499 0
2 0.237256 0
2 0.256763 0
2 0.277051 0
2 0.298152 0
2 0.320097 0
2 0.342921 0
2 0.366659 0
2 0.391347 0
2 0.417024 0
2 0.443728 0
2 0.471502 0
2 0.500387 0
2 0.530429 0
2 0.561674 0
2 0.594169 0
2 0.627966 0
2 0.663115 0
2 0.699672 0
2 0.737692 0
2 0.777235 0
2 0.818361 0
2 0.861133 0
2 0.905617 0
2 0.951882 0
1.95 1 0
1.9 1 0
1.85 1 0
1.8 1 0
1.75 1 0
1.7 1 0
1.65 1 0
1.6 1 0
1.55 1 0
1.5 1 0
1.45 1 0
1.4 1 0
1.35 1 0
1.3 1 0
1.25 1 0
1.2 1 0
1.15 1 0
1.1 1 0
1.05 1 0
1 1 0
0.95 1 0
0.9 1 0
0.85 1 0
0.8 1 0
0.75 1 0
0.7 1 0
0.65 1 0
0.6 1 0
0.55 1 0
0.5 1 0
0.45 1 0
0.4 1 0
0.35 1 0
0.3 1 0
0.25 1 0
0.2 1 0
0.15 1 0
0.1 1 0
0.05 1 0
3.69793e-12 1 0
-0.05 1 0
-0.1 1 0
-0.15 1 0
-0.2 1 0
-0.25 1 0
-0.3 1 0
-0.35 1 0
-0.4 1 0
-0.45 1 0
-0.5 1 0
-0.55 1 0
-0.6 1 0
-0.65 1 0
-0.7 1 0
-0.75 1 0
-0.8 1 0
-0.85 1 0
-0.9 1 0
-0.95 1 0
-1 0.951882 0
-1 0.905617 0
-1 0.861133 0
-1 0.818361 0
-1 0.777235 0
-1 0.737692 0
-1 0.699672 0
-1 0.663115 0
-1 0.627966 0
-1 0.594169 0
-1 0.561674 0
-1 0.530429 0
-1 0.500387 0
-1 0.471502 0
-1 0.443728 0
-1 0.417024 0
-1 0.391347 0
-1 0.366659 0
-1 0.342921 0
-1 0.320097 0
-1 0.298152 0
-1 0.277051 0
-1 0.256763 0
-1 0.237256 0
-1 0.218499 0
-1 0.200465 0
-1 0.183124 0
-1 0.166452 0
-1 0.150421 0
-1 0.135007 0
-1 0.120186 0
-1 0.105936 0
-1 0.092235 0
-1 0.079061 0
-1 0.066394 0
-1 0.0542147 0
-1 0.0425043 0
-1 0.0312446 0
-1 0.0204183 0
-1 0.0100088 0
0.00921362 0.00379763 0
0.0184561 0.00752451 0
0.0277268 0.0111804 0
0.0370253 0.0147652 0
0.0463511 0.0182786 0
0.0557034 0.0217203 0
0.0650819 0.0250903 0
0.074486 0.0283883 0
0.083915 0.0316141 0
0.0933685 0.0347675 0
0.102846 0.0378484 0
0.112347 0.0408565 0
0.12187 0.0437917 0
0.131416 0.0466538 0
0.140983 0.0494427 0
0.150572 0.0521581 0
0.160181 0.0547999 0
0.16981 0.0573681 0
0.179458 0.0598623 0
0.189125 0.0622825 0
0.198811 0.0646285 0
0.208514 0.0669001 0
0.218234 0.0690974 0
0.227971 0.07122 0
0.237724 0.073268 0
0.247493 0.0752411 0
0.257276 0.0771393 0
0.267073 0.0789625 0
0.276884 0.0807105 0
0.286708 0.0823832 0
0.296545 0.0839806 0
0.306394 0.0855025 0
0.316254 0.0869488 0
0.326125 0.0883196 0
0.336006 0.0896146 0
0.345896 0.0908339 0
0.355796 0.0919773 0
0.365704 0.0930447 0
0.375621 0.0940362 0
0.385544 0.0949517 0
0.395474 0.095791 0
0.40541 0.0965542 0
0.415352 0.0972412 0
0.425299 0.097852 0
0.43525 0.0983865 0
0.445205 0.0988447 0
0.455164 0.0992266 0
0.465125 0.0995321 0
0.475088 0.0997613 0
0.485052 0.0999141 0
0.495017 0.0999904 0
0.504983 0.0999904 0
0.514948 0.0999141 0
0.524912 0.0997613 0
0.534875 0.0995321 0
0.544836 0.0992266 0
0.554795 0.0988447 0
0.56475 0.0983865 0
0.574701 0.097852 0
0.584648 0.0972412 0
0.59459 0.0965542 0
0.604526 0.095791 0
0.614456 0.0949517 0
0.624379 0.0940362 0
0.634296 0.0930447 0
0.644204 0.0919773 0
0.654104 0.0908339 0
0.663994 0.0896146 0
0.673875 0.0883196 0
0.683746 0.0869488 0
0.693606 0.0855025 0
0.703455 0.0839806 0
0.713292 0.0823832 0
0.723116 0.0807105 0
0.732927 0.0789625 0
0.742724 0.0771393 0
0.752508 0.0752411 0
0.762276 0.073268 0
0.772029 0.07122 0
0.781766 0.0690974 0
0.791486 0.0669001 0
0.801189 0.0646285 0
0.810875 0.0622825 0
0.820542 0.0598623 0
0.83019 0.0573681 0
0.839819 0.0547999 0
0.849428 0.0521581 0
0.859017 0.0494427 0
0.868584 0.0466538 0
0.87813 0.0437917 0
0.887653 0.0408565 0
0.897154 0.0378484 0
0.906631 0.0347675 0
0.916085 0.0316141 0
0.925514 0.0283883 0
0.934918 0.0250903 0
0.944297 0.0217203 0
0.953649 0.0182786 0
0.962975 0.0147652 0
0.972273 0.0111804 0
0.981544 0.00752451 0
0.990786 0.00379763 0
-1 0.951882 0.1
-1 0.905617 0.1
-1 0.861133 0.1
-1 0.818361 0.1
-1 0.777235 0.1
-1 0.737692 0.1
-1 0.699672 0.1
-1 0.663115 0.1
-1 0.627966 0.1
-1 0.594169 0.1
-1 0.561674 0.1
-1 0.530429 0.1
-1 0.500387 0.1
-1 0.471502 0.1
-1 0.443728 0.1
-1 0.417024 0.1
-1 0.391347 0.1
-1 0.366659 0.1
-1 0.342921 0.1
-1 0.320097 0.1
-1 0.298152 0.1
-1 0.277051 0.1
-1 0.256763 0.1
-1 0.237256 0.1
-1 0.218499 0.1
-1 0.200465 0.1
-1 0.183124 0.1
-1 0.166452 0.1
-1 0.150421 0.1
-1 0.135007 0.1
-1 0.120186 0.1
-1 0.105936 0.1
-1 0.092235 0.1
-1 0.079061 0.1
-1 0.066394 0.1
-1 0.0542147 0.1
-1 0.0425043 0.1
-1 0.0312446 0.1
-1 0.0204183 0.1
-1 0.0100088 0.1
-0.99 0 0.1
-0.98 0 0.1
-0.97 0 0.1
-0.96 0 0.1
-0.95 0 0.1
-0.94 0 0.1
-0.93 0 0.1
-0.92 0 0.1
-0.91 0 0.1
-0.9 0 0.1
-0.89 0 0.1
-0.88 0 0.1
-0.87 0 0.1
-0.86 0 0.1
-0.85 0 0.1
-0.84 0 0.1
-0.83 0 0.1
-0.82 0 0.1
-0.81 0 0.1
-0.8 0 0.1
-0.79 0 0.1
-0.78 0 0.1
-0.77 0 0.1
-0.76 0 0.1
-0.75 0 0.1
-0.74 0 0.1
-0.73 0 0.1
-0.72 0 0.1
-0.71 0 0.1
-0.7 0 0.1
-0.69 0 0.1
-0.68 0 0.1
-0.67 0 0.1
-0.66 0 0.1
-0.65 0 0.1
-0.64 0 0.1
-0.63 0 0.1
-0.62 0 0.1
-0.61 0 0.1
-0.6 0 0.1
-0.59 0 0.1
-0.58 0 0.1
-0.57 0 0.1
-0.56 0 0.1
-0.55 0 0.1
-0.54 0 0.1
-0.53 0 0.1
-0.52 0 0.1
-0.51 0 0.1
-0.5 0 0.1
-0.49 0 0.1
-0.48 0 0.1
-0.47 0 0.1
-0.46 0 0.1
-0.45 0 0.1
-0.44 0 0.1
-0.43 0 0.1
-0.42 0 0.1
-0.41 0 0.1
-0.4 0 0.1
-0.39 0 0.1
-0.38 0 0.1
-0.37 0 0.1
-0.36 0 0.1
-0.35 0 0.1
-0.34 0 0.1
-0.33 0 0.1
-0.32 0 0.1
-0.31 0 0.1
-0.3 0 0.1
-0.29 0 0.1
-0.28 0 0.1
-0.27 0 0.1
-0.26 0 0.1
-0.25 0 0.1
-0.24 0 0.1
-0.23 0 0.1
-0.22 0 0.1
-0.21 0 0.1
-0.2 0 0.1
-0.19 0 0.1
-0.18 0 0.1
-0.17 0 0.1
-0.16 0 0.1
-0.15 0 0.1
-0.14 0 0.1
-0.13 0 0.1
-0.12 0 0.1
-0.11 0 0.1
-0.1 0 0.1
-0.09 0 0.1
-0.08 0 0.1
-0.07 0 0.1
-0.06 0 0.1
-0.05 0 0.1
-0.04 0 0.1
-0.03 0 0.1
-0.02 0 0.1
-0.01 0 0.1
0.00921362 0.00379763 0.1
0.0184561 0.00752451 0.1
0.0277268 0.0111804 0.1
0.0370253 0.0147652 0.1
0.0463511 0.0182786 0.1
0.0557034 0.0217203 0.1
0.0650819 0.0250903 0.1
0.074486 0.0283883 0.1
0.083915 0.0316141 0.1
0.0933685 0.0347675 0.1
0.102846 0.0378484 0.1
0.112347 0.0408565 0.1
0.12187 0.0437917 0.1
0.131416 0.0466538 0.1
0.140983 0.0494427 0.1
0.150572 0.0521581 0.1
0.160181 0.0547999 0.1
0.16981 0.0573681 0.1
0.179458 0.0598623 0.1
0.189125 0.0622825 0.1
0.198811 0.0646285 0.1
0.208514 0.0669001 0.1
0.218234 0.0690974 0.1
0.227971 0.07122 0.1
0.237724 0.073268 0.1
0.247493 0.0752411 0.1
0.257276 0.0771393 0.1
0.267073 0.0789625 0.1
0.276884 0.0807105 0.1
0.286708 0.0823832 0.1
0.296545 0.0839806 0.1
0.306394 0.0855025 0.1
0.316254 0.0869488 0.1
0.326125 0.0883196 0.1
0.336006 0.0896146 0.1
0.345896 0.0908339 0.1
0.355796 0.0919773 0.1
0.365704 0.0930447 0.1
0.375621 0.0940362 0.1
0.385544 0.0949517 0.1
0.395474 0.095791 0.1
0.40541 0.0965542 0.1
0.415352 0.0972412 0.1
0.425299 0.097852 0.1
0.43525 0.0983865 0.1
0.445205 0.0988447 0.1
0.455164 0.0992266 0.1
0.465125 0.0995321 0.1
0.475088 0.0997613 0.1
0.485052 0.0999141 0.1
0.495017 0.0999904 0.1
0.504983 0.0999904 0.1
0.514948 0.0999141 0.1
0.524912 0.0997613 0.1
0.534875 0.0995321 0.1
0.544836 0.0992266 0.1
0.554795 0.0988447 0.1
0.56475 0.0983865 0.1
0.574701 0.097852 0.1
0.584648 0.0972412 0.1
0.59459 0.0965542 0.1
0.604526 0.095791 0.1
0.614456 0.0949517 0.1
0.624379 0.0940362 0.1
0.634296 0.0930447 0.1
0.644204 0.0919773 0.1
0.654104 0.0908339 0.1
0.663994 0.0896146 0.1
0.673875 0.0883196 0.1
0.683746 0.0869488 0.1
0.693606 0.0855025 0.1
0.703455 0.0839806 0.1
0.713292 0.0823832 0.1
0.723116 0.0807105 0.1
0.732927 0.0789625 0.1
0.742724 0.0771393 0.1
0.752508 0.0752411 0.1
0.762276 0.073268 0.1
0.772029 0.07122 0.1
0.781766 0.0690974 0.1
0.791486 0.0669001 0.1
0.801189 0.0646285 0.1
0.810875 0.0622825 0.1
0.820542 0.0598623 0.1
0.83019 0.0573681 0.1
0.839819 0.0547999 0.1
0.849428 0.0521581 0.1
0.859017 0.0494427 0.1
0.868584 0.0466538 0.1
0.87813 0.0437917 0.1
0.887653 0.0408565 0.1
0.897154 0.0378484 0.1
0.906631 0.0347675 0.1
0.916085 0.0316141 0.1
0.925514 0.0283883 0.1
0.934918 0.0250903 0.1
0.944297 0.0217203 0.1
0.953649 0.0182786 0.1
0.962975 0.0147652 0.1
0.972273 0.0111804 0.1
0.981544 0.00752451 0.1
0.990786 0.00379763 0.1
1.01 0 0.1
1.02 0 0.1
1.03 0 0.1
[...]
CELL_DATA 14313
SCALARS rho float
LOOKUP_TABLE default
0.788566
0.825444
0.806497
0.568203
0.777071
0.822842
0.822845
0.822843
0.811279
0.815924
0.823064
0.799601
0.800815
0.634391
0.822903
0.838
0.809646
0.808138
0.819844
0.805986
0.821711
0.814504
0.822832
0.776868
0.822285
0.815436
0.751062
0.697334
0.824902
0.830838
0.822666
0.795581
0.803385
0.822259
0.805228
0.820348
0.696957
0.809753
0.821882
0.803678
0.761772
0.821347
0.571873
0.716964
0.825794
0.840006
0.820923
0.78003
0.811038
0.855084
0.69286
0.667352
0.633819
0.820266
0.827074
0.785124
0.82578
0.815335
0.811049
0.8225
0.822893
0.826495
0.795561
0.843326
0.821307
0.822997
0.857017
0.786167
0.845829
0.822895
0.799087
0.837602
0.657712
0.842444
0.744028
0.815455
0.827183
0.755569
0.707728
0.822185
0.611099
0.831181
0.837489
0.803948
0.814057
0.827123
0.822814
0.805043
0.831261
0.807481
0.782701
0.634021
0.808159
0.801692
0.744034
0.804068
0.823753
0.819522
0.804203
0.658815
0.814367
0.820002
0.82284
0.819747
0.757851
0.809855
0.804019
0.71051
0.840063
0.819746
0.814166
0.831752
0.821254
0.827157
0.80458
0.833796
0.827218
0.841527
0.781692
0.802232
0.821822
0.819629
0.862671
0.739161
0.846581
0.764687
0.797285
0.805041
0.823809
0.846126
0.819591
0.822674
0.863894
0.822736
0.830485
0.785102
0.810509
0.79364
0.825836
0.825687
0.822844
0.824514
0.803531
0.803654
0.797622
0.844444
0.806227
0.764899
0.801947
0.8257
0.801199
0.803929
0.822835
0.722967
0.82795
0.803965
0.732861
0.828673
0.822418
0.812406
0.826498
0.80929
0.692676
0.762322
0.830353
0.826862
0.722424
0.82248
0.834474
0.817968
0.704758
0.816572
0.724486
0.79578
0.817929
0.8287
0.817491
0.820952
0.828549
0.750926
0.822168
0.819655
0.7809
0.771455
0.792072
0.814766
0.822907
0.798045
0.546622
0.794088
0.764093
0.751974
0.772416
0.732102
0.82247
0.823472
0.80815
0.803864
0.815447
0.825311
0.768836
0.804094
0.834906
0.823959
0.839151
0.803582
0.816926
0.814566
0.822395
0.839003
0.8065
0.818111
0.802423
0.711868
0.823237
0.824662
0.819942
0.809571
0.840016
0.804904
0.803756
0.819687
0.815355
0.859496
0.816388
0.804116
0.82616
0.803218
0.822842
0.766055
0.685488
0.815565
0.708763
0.833468
0.803185
0.739646
0.821535
0.823188
0.823404
0.828836
0.792928
0.695897
0.75986
0.643267
0.823931
0.733534
0.803147
0.80762
0.842819
0.817629
0.601024
0.804541
0.73635
0.842935
0.803869
0.710059
0.818377
0.833448
0.823749
0.595785
0.813552
0.803817
0.807234
0.81364
0.795176
0.781264
0.816121
0.815908
0.602993
0.823806
0.823071
0.775246
0.802663
0.823075
0.782769
0.824949
0.791921
0.725419
0.803597
0.80611
0.594279
0.572415
0.763063
0.81736
0.828157
0.791688
0.822754
0.823946
0.778696
0.806699
0.803966
0.825231
0.835882
0.800716
0.808518
0.814255
0.671206
0.823913
0.723332
0.801244
0.794518
0.779798
0.841032
0.809789
0.800563
0.697011
0.69033
0.810274
0.808175
0.820162
0.804505
0.802307
0.666272
0.823987
0.823266
0.818576
0.823079
0.822307
0.803272
0.79722
0.823556
0.666836
0.817912
0.822845
0.82364
0.822446
0.77425
0.828207
0.802946
0.823575
0.822373
0.754171
0.759108
0.803576
0.803647
0.662929
0.82281
0.814374
0.809509
0.821452
0.805034
0.801424
0.735612
0.723508
0.823632
0.756766
0.764709
0.822382
0.843068
0.823461
0.804833
0.808685
0.822745
0.803799
0.825503
0.79148
0.825453
0.812226
0.821031
0.801618
0.820242
0.799789
0.822746
0.608846
0.802203
0.802871
0.814593
0.818794
0.775876
0.802248
0.822754
0.822838
0.826245
0.772542
0.818917
0.815147
0.764655
0.762503
0.813171
0.814309
0.835642
0.831737
0.824324
0.806601
0.641708
0.787432
0.629821
0.803753
0.803519
0.80952
0.82334
0.877001
0.558875
0.628194
0.843419
0.875016
0.82114
0.701651
0.805189
0.73378
0.814967
0.817876
0.717451
0.666904
0.76112
0.822385
0.662436
0.876543
0.831391
0.806829
0.809351
0.655906
0.754745
0.78896
0.825916
0.807146
0.803485
0.836527
0.822839
0.722096
0.702871
0.802962
0.80696
0.820246
0.82253
0.809303
0.822902
0.747893
0.792479
0.798089
0.803675
0.772995
0.82597
0.808429
0.822902
0.822543
0.766985
0.805835
0.804345
0.801249
0.822866
0.823113
0.814674
0.677914
0.789355
0.824105
0.813164
0.820774
0.807868
0.822285
0.807948
0.827757
0.828302
0.68236
0.859338
0.752607
0.828306
0.812387
0.744907
0.829303
0.80134
0.832297
0.576911
0.803378
0.697594
0.822948
0.809782
0.599239
0.802106
0.805202
0.798832
0.802893
0.809404
0.78016
0.822786
0.626759
0.806652
0.806709
0.801704
0.826084
0.773297
0.822931
0.819891
0.801785
0.824883
0.800474
0.803507
0.822834
0.649408
0.777288
0.746613
0.551329
0.831738
0.597627
0.803128
0.826838
0.86073
0.717229
0.754694
0.82286
0.806696
0.803632
0.801677
0.775888
0.820987
0.822846
0.800191
0.822987
0.818015
0.660283
0.822533
0.822986
0.806581
0.821086
0.633367
0.82361
0.828863
0.725271
0.790533
0.823016
0.801505
0.832215
0.835932
0.804307
0.741875
0.654277
0.82315
0.59604
0.802385
0.803633
0.77457
0.823072
0.756388
0.822041
0.807171
0.803666
0.54934
0.823364
0.834001
0.836878
0.820383
0.803906
0.803622
0.82264
0.759192
0.851921
0.840926
0.727034
0.802149
0.667641
0.780743
0.683875
0.823476
0.840908
0.802857
0.667726
0.775809
0.823231
0.831425
0.837756
0.819298
0.704642
0.569566
0.807106
0.824401
0.80396
0.818444
0.811287
0.774666
0.8551
0.823689
0.80431
0.824979
0.799704
0.743182
0.80197
0.813845
0.620996
0.700786
0.803713
0.82175
0.805177
0.598197
0.821767
0.622916
0.82284
0.771266
0.823523
0.824662
0.754123
0.814728
0.799579
0.805368
0.839844
0.84192
0.83579
0.805024
0.824821
0.606484
0.82279
0.860907
0.829891
0.835602
0.804614
0.828247
0.802125
0.844035
0.809302
0.814891
0.698517
0.669934
0.841516
0.823093
0.844777
0.733482
0.803914
0.767629
0.801039
0.810191
0.800293
0.81549
0.823015
0.830045
0.834457
0.83644
0.805709
0.75019
0.812179
0.744458
0.801861
0.828012
0.803065
0.815704
0.764143
0.805398
0.806863
0.851576
0.818107
0.803553
0.808277
0.840216
0.836643
0.803869
0.860448
0.79899
0.827682
0.695377
0.803564
0.800829
0.802691
0.837902
0.626519
0.806594
0.80579
0.679297
0.823796
0.835673
0.823331
0.803663
0.806966
0.802968
0.82454
0.802763
0.711896
0.549786
0.823152
0.814276
0.803677
0.805688
0.805006
0.804042
0.820895
0.802046
0.823315
0.606239
0.822363
0.80965
0.822411
0.846925
0.823263
0.835831
0.822364
0.8015
0.822916
0.694196
0.804064
0.855165
0.822926
0.794278
0.823467
0.65054
0.806522
0.647995
0.697866
0.699442
0.809775
0.824124
0.812735
0.547661
0.705924
0.803869
0.837032
0.756034
0.835236
0.805372
0.808408
0.805081
0.68954
0.758626
0.585314
0.803755
0.822772
0.806801
0.826431
0.682653
0.683647
0.858204
0.804124
0.823366
0.744206
0.823226
0.559274
0.828319
0.689153
0.823314
0.825368
0.803039
0.803795
0.832152
0.801047
0.803992
0.812056
0.648239
0.807124
0.679067
0.802423
0.802172
0.823313
0.815817
0.73905
0.823642
0.754479
0.803635
0.714425
0.807476
0.74637
0.684137
0.83153
0.822828
0.803007
0.740134
0.813484
0.673769
0.820229
0.80355
0.722317
0.832746
0.824737
0.674565
0.707428
0.832688
0.803931
0.73933
0.835151
0.840613
0.841871
0.822779
0.576856
0.759489
0.825972
0.827908
0.661417
0.655394
0.817711
0.822833
0.737709
0.78104
0.822964
0.81468
0.764712
0.82244
0.823206
0.803813
0.742215
0.802714
0.805193
0.820618
0.603696
0.805859
0.829265
0.597209
0.825936
0.850102
0.823058
0.688712
0.822709
0.821844
0.822744
0.801582
0.826775
0.803777
0.806965
0.805096
0.803641
0.822948
0.665849
0.818227
0.811509
0.717627
0.635231
0.788125
0.802274
0.822925
0.753709
0.667417
0.822117
0.791655
0.822956
0.828861
0.823145
0.832089
0.756637
0.635871
0.822565
0.841005
0.823056
0.692685
0.810964
0.73801
0.822782
0.820432
0.822987
0.825685
0.801859
0.823014
0.808841
0.757693
0.824261
0.822867
0.761825
0.793331
0.730022
0.650664
0.743152
0.789763
0.823921
0.822073
0.813139
0.820002
0.803634
0.802944
0.808278
0.691256
0.752992
0.822456
0.803903
0.805199
0.818898
0.63667
0.823185
0.804141
0.847949
0.81782
0.666061
0.794808
0.804432
0.846506
0.716551
0.597722
0.601429
0.650472
0.825397
0.805195
0.599783
0.637891
0.82778
0.822855
0.89133
0.805116
0.834127
0.822796
0.769648
0.821052
0.822658
0.822932
0.820953
0.823062
0.80155
0.821379
0.689834
0.8243
0.803922
0.818021
0.755351
0.825525
0.626983
0.859892
0.8042
0.833158
0.823096
0.808238
0.746046
0.826149
0.821439
0.839076
0.822793
0.822232
0.674438
0.832888
0.821195
0.822662
0.840969
0.82994
0.581599
0.800449
0.805526
0.81466
0.817438
0.804216
0.802415
0.824214
0.770143
0.807421
0.824632
0.866558
0.837398
0.631317
0.803562
0.759206
0.823432
0.766719
0.827144
0.805282
0.806675
0.822777
0.795469
0.813025
0.815933
0.822997
0.78925
0.703297
0.749326
0.722908
0.822999
0.840106
0.840868
0.748994
0.818023
0.753566
0.637619
0.822974
0.802223
0.822853
0.803912
0.663795
0.802791
0.779622
0.735466
0.821707
0.743883
0.810018
0.824463
0.863661
0.810162
0.807657
0.748709
0.822817
0.782863
0.844313
0.886041
0.801039
0.55492
0.802956
0.635495
0.773714
0.67135
0.799842
0.646928
0.82407
0.854825
0.806216
0.821636
0.827407
0.806626
0.803414
0.712062
0.826832
0.822432
0.804387
0.815169
0.793817
0.803924
0.81429
0.661562
0.825129
0.804729
0.850002
0.817526
0.805048
0.804085
0.8223
0.82244
0.816784
0.803823
0.794854
0.822878
0.80141
0.804975
0.823013
0.780675
0.593726
0.82287
0.826348
0.804703
0.719054
0.805
0.815428
0.803678
0.722207
0.879568
0.822715
0.824585
0.822976
0.851338
0.785255
0.822883
0.794895
0.823988
0.829473
0.677398
0.822885
0.739216
0.819614
0.737713
0.803352
0.758493
0.804934
0.671861
0.819693
0.730895
0.654237
0.825755
0.676016
0.769253
0.825503
0.822841
0.784129
0.821944
0.738035
0.653507
0.832685
0.66328
0.825237
0.776721
0.803007
0.808124
0.823038
0.666529
0.805017
0.774577
0.820579
0.821533
0.83294
0.806407
0.703535
0.763451
0.677198
0.802125
0.806788
0.822968
0.823699
0.812341
0.82255
0.820378
0.679782
0.741188
0.667018
0.719861
0.823384
0.810515
0.839013
0.809881
0.823851
0.683648
0.880678
0.824179
0.832948
0.601514
0.830065
0.822842
0.845959
0.849802
0.831364
0.832733
0.827953
0.572422
0.806083
0.82284
0.703691
0.825007
0.805118
0.822865
0.808453
0.822635
0.822312
0.777575
0.711533
0.801776
0.802506
0.602019
0.823413
0.862946
0.824129
0.695765
0.824959
0.822891
0.827427
0.839467
0.664711
0.585545
0.805156
0.84477
0.806309
0.805513
0.823516
0.80216
0.812702
0.819979
0.80237
0.804617
0.804938
0.822783
0.805821
0.806692
0.802484
0.837899
0.836825
0.857514
0.822944
0.816635
0.823586
0.822977
0.822965
0.821317
0.823855
0.83833
0.808823
0.82135
0.652372
0.836703
0.685165
0.871414
0.804067
0.837673
0.802964
0.78815
0.793646
0.738407
0.823583
0.811476
0.815156
0.823105
0.778989
0.817755
0.607424
0.806392
0.822974
0.822797
0.796812
0.822695
0.627603
0.785813
0.584316
0.827666
0.800835
0.781556
0.805123
0.82304
0.822815
0.822775
0.734431
0.817685
0.822759
0.812875
0.804067
0.80411
0.747812
0.777642
0.811416
0.803975
0.721733
0.622482
0.542673
0.845758
0.80631
0.785633
0.783528
0.824906
0.803908
0.804241
0.826246
0.781884
0.757071
0.824848
0.809894
0.813256
0.841446
0.805471
0.822711
0.808488
0.575476
0.803881
0.822761
0.781408
0.826962
0.823527
0.832419
0.650556
0.698573
0.604625
0.832865
0.823922
0.75408
0.812366
0.691176
0.817457
0.812319
0.822898
0.805109
0.812392
0.600564
0.704362
0.813645
0.823101
0.794465
0.810098
0.835971
0.802592
0.804146
0.676305
0.815615
0.822961
0.804993
0.82277
0.802953
0.642872
0.818013
0.822836
0.598539
0.722002
0.801807
0.83079
0.72085
0.804283
0.794949
0.82288
0.757495
0.697956
0.821334
0.796936
0.802549
0.769107
0.577827
0.827245
0.687954
0.755526
0.727086
0.804253
0.801132
0.822393
0.684673
0.771333
0.804278
0.824063
0.612125
0.802821
0.826371
0.815315
0.580083
0.805897
0.785565
0.728292
0.727318
0.80098
0.827101
0.822966
0.817841
0.723676
0.748747
0.65762
0.838432
0.846833
0.824813
0.789667
0.868208
0.720979
0.82312
0.771133
0.793065
0.796675
0.822962
0.80423
0.822435
0.787797
0.761534
0.827603
0.800713
0.847147
0.729401
0.79196
0.805786
0.732907
0.805209
0.823611
0.599487
0.802351
0.802904
0.803
0.828757
0.769116
0.801091
0.733458
0.822901
0.80904
0.736221
0.822892
0.824504
0.835145
0.806131
0.793607
0.801395
0.806664
0.720612
0.822847
0.804581
0.697331
0.807811
0.782966
0.837026
0.826262
0.82661
0.844741
0.851858
0.723225
0.823295
0.801799
0.78922
0.633675
0.823451
0.812652
0.822863
0.784771
0.857207
0.837665
0.784045
0.846624
0.782092
0.801089
0.775937
0.822843
0.732645
0.652025
0.848618
0.683177
0.793501
0.843844
0.822803
0.689985
0.809452
0.760193
0.80458
0.799691
0.790016
0.80441
0.804441
0.80325
0.802387
0.787727
0.822691
0.788399
0.824935
0.808046
0.731814
0.790494
0.815688
0.822835
0.805835
0.589352
0.826372
0.821682
0.822326
0.726533
0.805448
0.802795
0.804367
0.824676
0.746012
0.824716
0.808593
0.810986
0.766482
0.822182
0.813017
0.807839
0.773177
0.810337
0.822241
0.808266
0.822102
0.816183
0.80628
0.830126
0.804849
0.795355
0.815706
0.822827
0.818684
0.788013
0.715218
0.823241
0.812649
0.804602
0.749991
0.790557
0.668285
0.803664
0.57178
0.80361
0.8237
0.776762
0.840178
0.659592
0.819299
0.74762
0.821386
0.566113
0.806342
0.830455
0.822853
0.826801
0.743926
0.846234
0.593131
0.829081
0.697277
0.803304
0.663693
0.68381
0.822617
0.822956
0.753486
0.804828
0.82203
0.628627
0.82761
0.770675
0.839497
0.822981
0.816134
0.82292
0.804069
0.84017
0.812426
0.804074
0.659497
0.803591
0.848414
0.80363
0.810174
0.771412
0.807693
0.822675
0.822863
0.800644
0.743391
0.81985
0.824335
0.620662
0.804655
0.67167
0.824514
0.606401
0.822894
0.778906
0.698905
0.729608
0.783493
0.728352
0.846143
0.814543
0.803135
0.804496
0.715033
0.802905
0.79608
0.803244
0.821296
0.809701
0.726407
0.716322
0.803542
0.775999
0.552479
0.821903
0.696891
0.79539
0.688633
0.830819
0.819912
0.832035
0.816049
0.839196
0.811023
0.630563
0.831103
0.810789
0.804461
0.824363
0.822887
0.822417
0.815016
0.831814
0.825032
0.644099
0.805061
0.801111
0.82295
0.70381
0.802696
0.825729
0.764597
0.701149
0.813912
0.71451
0.742
0.812153
0.822868
0.682611
0.846231
0.771733
0.805609
0.800439
0.820759
0.849311
0.801774
0.604214
0.823985
0.676479
0.66081
0.778151
0.769716
0.777538
0.822869
0.803711
0.823213
0.823099
0.606239
0.788185
0.834435
0.822859
0.616167
0.738632
0.67006
0.825227
0.820709
0.702504
0.804434
0.822469
0.802874
0.837107
0.640302
0.845696
0.738829
0.822201
0.822821
0.702273
0.822358
0.71251
0.798068
0.706124
0.813987
0.79335
0.655888
0.735234
0.73139
0.838185
0.819963
0.827276
0.829494
0.803643
0.809105
0.805593
0.824081
0.803713
0.713956
0.804171
0.621366
0.785249
0.807387
0.804792
0.822844
0.831343
0.803476
0.732887
0.678169
0.686213
0.798835
0.818333
0.74699
0.663454
0.761456
0.821293
0.802267
0.768384
0.805681
0.828075
0.7613
0.592755
0.696049
0.801891
0.822855
0.867803
0.81719
0.822731
0.855698
0.802887
0.802438
0.823703
0.822731
0.814022
0.732528
0.809407
0.715202
0.86599
0.787873
0.823173
0.66838
0.800564
0.560658
0.603794
0.661439
0.817211
0.803876
0.818322
0.76977
0.803794
0.569884
0.791463
0.806048
0.748936
0.823165
0.805264
0.824554
0.847481
0.669532
0.820192
0.802397
0.820371
0.817127
0.822901
0.822843
0.764821
0.801031
0.799712
0.803478
0.801216
0.820227
0.848755
0.826681
0.738105
0.80514
0.684893
0.823026
0.822954
0.614554
0.771448
0.771467
0.576154
0.793202
0.803891
0.880964
0.802222
0.821865
0.766535
0.795605
0.800992
0.811101
0.785166
0.574705
0.690121
0.694389
0.783685
0.822606
0.803756
0.822402
0.791843
0.810363
0.822862
0.801977
0.856308
0.727408
0.822706
0.783352
0.568393
0.671141
0.822938
0.803972
0.805767
0.588656
0.797828
0.804117
0.673144
0.823221
0.799128
0.810339
0.823685
0.67518
0.72204
0.738072
0.822582
0.83482
0.65629
0.79147
0.705559
0.823142
0.833233
0.782178
0.78208
0.590957
0.821454
0.802661
0.733404
0.856293
0.806041
0.739454
0.749268
0.769283
0.821757
0.587951
0.797292
0.738635
0.800835
0.824322
0.710245
0.802935
0.819924
0.726614
0.813508
0.718513
0.824759
0.80197
0.758756
0.717231
0.817152
0.800606
0.82315
0.683507
0.805618
0.814027
0.822497
0.71224
0.822821
0.810812
0.836779
0.682869
0.824353
0.750122
0.822673
0.80826
0.847369
0.804092
0.826968
0.752881
0.824153
0.844295
0.834146
0.822849
0.849061
0.75287
0.85253
0.830008
0.806181
0.830549
0.806544
0.661436
0.786178
0.823333
0.753182
0.715814
0.802403
0.806618
0.701818
0.801465
0.569983
0.851791
0.721658
0.718835
0.823116
0.778086
0.813348
0.79954
0.813223
0.804133
0.82219
0.838576
0.743236
0.78008
0.616043
0.821036
0.778863
0.816356
0.80535
0.594949
0.803389
0.80277
0.817378
0.801914
0.825218
0.808385
0.690814
0.830285
0.852515
0.698273
0.754445
0.82267
0.804793
0.732867
0.816152
0.761191
0.797849
0.803607
0.805908
0.842745
0.685169
0.720467
0.801258
0.717305
0.77457
0.833231
0.563614
0.708892
0.800155
0.804634
0.803681
0.741579
0.829581
0.816108
0.804017
0.808473
0.82312
0.707448
0.680643
0.809902
0.823376
0.802204
0.877791
0.804543
0.822841
0.799679
0.818894
0.814896
0.808862
0.680137
0.815115
0.82518
0.803701
0.805701
0.802604
0.635472
0.818709
0.820792
0.822828
0.868309
0.82343
0.802177
0.657211
0.837881
0.718052
0.833124
0.808055
0.814456
0.827966
0.820098
0.82244
0.747789
0.581045
0.662908
0.822625
0.818942
0.57757
0.796657
0.823494
0.835223
0.567125
0.810245
0.822842
0.804408
0.809756
0.606271
0.822896
0.808602
0.587882
0.822715
0.824216
0.575862
0.811329
0.822542
0.777339
0.808204
0.81664
0.820591
0.802034
0.832494
0.566508
0.832491
0.816243
0.80431
0.753754
0.792764
0.822077
0.81025
0.805722
0.82356
0.801176
0.692881
0.815662
0.673405
0.823048
0.675354
0.753488
0.797845
0.729601
0.803784
0.601461
0.854105
0.822853
0.822198
0.802837
0.803701
0.803345
0.81419
0.823698
0.684149
0.73278
0.738307
0.823939
0.737254
0.680986
0.823771
0.79092
0.833839
0.821029
0.809968
0.742768
0.592916
0.799588
0.798113
0.647938
0.823317
0.822968
0.744605
0.806708
0.776264
0.641753
0.818796
0.815295
0.796124
0.629443
0.802841
0.785263
0.833179
0.822967
0.821458
0.812239
0.822891
0.702764
0.80628
0.824596
0.716673
0.651559
0.749457
0.799505
0.740808
0.822974
0.802015
0.806024
0.784839
0.870671
0.803728
0.802171
0.832105
0.863293
0.804939
0.823303
0.802834
0.824608
0.790869
0.749112
0.812452
0.804636
0.824511
0.803484
0.79902
0.847935
0.768948
0.822859
0.780592
0.805411
0.657458
0.55366
0.801603
0.802811
0.820426
0.798936
0.805907
0.823026
0.775229
0.806602
0.82298
0.789206
0.823743
0.777428
0.620694
0.805437
0.761532
0.779557
0.75659
0.764583
0.795221
0.790353
0.823595
0.789058
0.809676
0.803528
0.774174
0.824447
0.575529
0.744421
0.820468
0.822901
0.821877
0.810417
0.82215
0.816248
0.806171
0.828705
0.80995
0.785318
0.824879
0.804273
0.798612
0.797029
0.805461
0.610086
0.804128
0.793493
0.606605
0.818743
0.807587
0.806267
0.811037
0.71776
0.753512
0.828729
0.775555
0.811888
0.824881
0.713384
0.804746
0.831034
0.733222
0.800368
0.819402
0.78063
0.812313
0.839552
0.802737
0.825734
0.779794
0.805546
0.802846
0.822716
0.805017
0.801486
0.617017
0.824232
0.795465
0.80687
0.832543
0.718217
0.835088
0.82542
0.569221
0.808326
0.804787
0.805132
0.822081
0.830083
0.831044
0.805175
0.814338
0.823575
0.813837
0.803749
0.822136
0.806715
0.753286
0.730566
0.788679
0.823294
0.820974
0.783152
0.765933
0.81436
0.826201
0.810995
0.822699
0.718111
0.556011
0.74804
0.825898
0.808915
0.824848
0.848475
0.802858
0.734958
0.681528
0.803387
0.807018
0.714848
0.822893
0.700671
0.842001
0.740105
0.821922
0.897106
0.815961
0.803565
0.78589
0.811657
0.705786
0.814737
0.817395
0.793011
0.814048
0.779943
0.80344
0.810262
0.789833
0.803875
0.856274
0.77891
0.802444
0.664245
0.804915
0.705467
0.804353
0.795567
0.789399
0.790833
0.731947
0.810636
0.795712
0.849497
0.823124
0.82281
0.822436
0.897323
0.753699
0.803213
0.743931
0.803355
0.802095
0.805729
0.732566
0.803668
0.806161
0.676351
0.817028
0.758038
0.670423
0.85137
0.852107
0.760935
0.811358
0.795921
0.780546
0.747982
0.779435
0.788127
0.745622
0.804329
0.805966
0.738727
0.824311
0.805336
0.598701
0.822954
0.823557
0.820916
0.803771
0.630557
0.7355
0.806679
0.863122
0.661667
0.739005
0.81207
0.816441
0.803577
0.70481
0.732565
0.809267
0.823099
0.824057
0.842702
0.744586
0.761279
0.878537
0.807819
0.820221
0.796296
0.682605
0.670707
0.613995
0.680863
0.639825
0.775073
0.809276
0.805101
0.822138
0.815051
0.811738
0.86401
0.735355
0.830858
0.823432
0.82542
0.825223
0.823386
0.822986
0.821529