# vtk DataFile Version 1.0
unstructured grid
ascii
DATASET UNSTRUCTURED_GRID
points 14760 float
-1 0 0
-1 1 0
2 0 0
2 1 0
0 0 0
1 0 0
-1 1 0.1
-1 0 0.1
0 0 0.1
1 0 0.1
2 0 0.1
2 1 0.1
-0.99 0 0
-0.98 0 0
-0.97 0 0
-0.96 0 0
-0.95 0 0
-0.94 0 0
-0.93 0 0
-0.92 0 0
-0.91 0 0
-0.9 0 0
-0.89 0 0
-0.88 0 0
-0.87 0 0
-0.86 0 0
-0.85 0 0
-0.84 0 0
-0.83 0 0
-0.82 0 0
-0.81 0 0
-0.8 0 0
-0.79 0 0
-0.78 0 0
-0.77 0 0
-0.76 0 0
-0.75 0 0
-0.74 0 0
-0.73 0 0
-0.72 0 0
-0.71 0 0
-0.7 0 0
-0.69 0 0
-0.68 0 0
-0.67 0 0
-0.66 0 0
-0.65 0 0
-0.64 0 0
-0.63 0 0
-0.62 0 0
-0.61 0 0
-0.6 0 0
-0.59 0 0
-0.58 0 0
-0.57 0 0
-0.56 0 0
-0.55 0 0
-0.54 0 0
-0.53 0 0
-0.52 0 0
-0.51 0 0
-0.5 0 0
-0.49 0 0
-0.48 0 0
-0.47 0 0
-0.46 0 0
-0.45 0 0
-0.44 0 0
-0.43 0 0
-0.42 0 0
-0.41 0 0
-0.4 0 0
-0.39 0 0
-0.38 0 0
-0.37 0 0
-0.36 0 0
-0.35 0 0
-0.34 0 0
-0.33 0 0
-0.32 0 0
-0.31 0 0
-0.3 0 0
-0.29 0 0
-0.28 0 0
-0.27 0 0
-0.26 0 0
-0.25 0 0
-0.24 0 0
-0.23 0 0
-0.22 0 0
-0.21 0 0
-0.2 0 0
-0.19 0 0
-0.18 0 0
-0.17 0 0
-0.16 0 0
-0.15 0 0
-0.14 0 0
-0.13 0 0
-0.12 0 0
-0.11 0 0
-0.1 0 0
-0.09 0 0
-0.08 0 0
-0.07 0 0
-0.06 0 0
-0.05 0 0
-0.04 0 0
-0.03 0 0
-0.02 0 0
-0.01 0 0
1.01 0 0
1.02 0 0
1.03 0 0
1.04 0 0
1.05 0 0
1.06 0 0
1.07 0 0
1.08 0 0
1.09 0 0
1.1 0 0
1.11 0 0
1.12 0 0
1.13 0 0
1.14 0 0
1.15 0 0
1.16 0 0
1.17 0 0
1.18 0 0
1.19 0 0
1.2 0 0
1.21 0 0
1.22 0 0
1.23 0 0
1.24 0 0
1.25 0 0
1.26 0 0
1.27 0 0
1.28 0 0
1.29 0 0
1.3 0 0
1.31 0 0
1.32 0 0
1.33 0 0
1.34 0 0
1.35 0 0
1.36 0 0
1.37 0 0
1.38 0 0
1.39 0 0
1.4 0 0
1.41 0 0
1.42 0 0
1.43 0 0
1.44 0 0
1.45 0 0
1.46 0 0
1.47 0 0
1.48 0 0
1.49 0 0
1.5 0 0
1.51 0 0
1.52 0 0
1.53 0 0
1.54 0 0
1.55 0 0
1.56 0 0
1.57 0 0
1.58 0 0
1.59 0 0
1.6 0 0
1.61 0 0
1.62 0 0
1.63 0 0
1.64 0 0
1.65 0 0
1.66 0 0
1.67 0 0
1.68 0 0
1.69 0 0
1.7 0 0
1.71 0 0
1.72 0 0
1.73 0 0
1.74 0 0
1.75 0 0
1.76 0 0
1.77 0 0
1.78 0 0
1.79 0 0
1.8 0 0
1.81 0 0
1.82 0 0
1.83 0 0
1.84 0 0
1.85 0 0
1.86 0 0
1.87 0 0
1.88 0 0
1.89 0 0
1.9 0 0
1.91 0 0
1.92 0 0
1.93 0 0
1.94 0 0
1.95 0 0
1.96 0 0
1.97 0 0
1.98 0 0
1.99 0 0
2 0.0100088 0
2 0.0204183 0
2 0.0312446 0
2 0.0425043 0
2 0.0542147 0
2 0.066394 0
2 0.079061 0
2 0.092235 0
2 0.105936 0
2 0.120186 0
2 0.135007 0
2 0.150421 0
2 0.166452 0
2 0.183124 0
2 0.200465 0
2 0.218499 0
2 0.237256 0
2 0.256763 0
2 0.277051 0
2 0.298152 0
2 0.320097 0
2 0.342921 0
2 0.366659 0
2 0.391347 0
2 0.417024 0
2 0.443728 0
2 0.471502 0
2 0.500387 0
2 0.530429 0
2 0.561674 0
2 0.594169 0
2 0.627966 0
2 0.663115 0
2 0.699672 0
2 0.737692 0
2 0.777235 0
2 0.818361 0
2 0.861133 0
2 0.905617 0
2 0.951882 0
1.95 1 0
1.9 1 0
1.85 1 0
1.8 1 0
1.75 1 0
1.7 1 0
1.65 1 0
1.6 1 0
1.55 1 0
1.5 1 0
1.45 1 0
1.4 1 0
1.35 1 0
1.3 1 0
1.25 1 0
1.2 1 0
1.15 1 0
1.1 1 0
1.05 1 0
1 1 0
0.95 1 0
0.9 1 0
0.85 1 0
0.8 1 0
0.75 1 0
0.7 1 0
0.65 1 0
0.6 1 0
0.55 1 0
0.5 1 0
0.45 1 0
0.4 1 0
0.35 1 0
0.3 1 0
0.25 1 0
0.2 1 0
0.15 1 0
0.1 1 0
0.05 1 0
3.69793e-12 1 0
-0.05 1 0
-0.1 1 0
-0.15 1 0
-0.2 1 0
-0.25 1 0
-0.3 1 0
-0.35 1 0
-0.4 1 0
-0.45 1 0
-0.5 1 0
-0.55 1 0
-0.6 1 0
-0.65 1 0
-0.7 1 0
-0.75 1 0
-0.8 1 0
-0.85 1 0
-0.9 1 0
-0.95 1 0
-1 0.951882 0
-1 0.905617 0
-1 0.861133 0
-1 0.818361 0
-1 0.777235 0
-1 0.737692 0
-1 0.699672 0
-1 0.663115 0
-1 0.627966 0
-1 0.594169 0
-1 0.561674 0
-1 0.530429 0
-1 0.500387 0
-1 0.471502 0
-1 0.443728 0
-1 0.417024 0
-1 0.391347 0
-1 0.366659 0
-1 0.342921 0
-1 0.320097 0
-1 0.298152 0
-1 0.277051 0
-1 0.256763 0
-1 0.237256 0
-1 0.218499 0
-1 0.200465 0
-1 0.183124 0
-1 0.166452 0
-1 0.150421 0
-1 0.135007 0
-1 0.120186 0
-1 0.105936 0
-1 0.092235 0
-1 0.079061 0
-1 0.066394 0
-1 0.0542147 0
-1 0.0425043 0
-1 0.0312446 0
-1 0.0204183 0
-1 0.0100088 0
0.00921362 0.00379763 0
0.0184561 0.00752451 0
0.0277268 0.0111804 0
0.0370253 0.0147652 0
0.0463511 0.0182786 0
0.0557034 0.0217203 0
0.0650819 0.0250903 0
0.074486 0.0283883 0
0.083915 0.0316141 0
0.0933685 0.0347675 0
0.102846 0.0378484 0
0.112347 0.0408565 0
0.12187 0.0437917 0
0.131416 0.0466538 0
0.140983 0.0494427 0
0.150572 0.0521581 0
0.160181 0.0547999 0
0.16981 0.0573681 0
0.179458 0.0598623 0
0.189125 0.0622825 0
0.198811 0.0646285 0
0.208514 0.0669001 0
0.218234 0.0690974 0
0.227971 0.07122 0
0.237724 0.073268 0
0.247493 0.0752411 0
0.257276 0.0771393 0
0.267073 0.0789625 0
0.276884 0.0807105 0
0.286708 0.0823832 0
0.296545 0.0839806 0
0.306394 0.0855025 0
0.316254 0.0869488 0
0.326125 0.0883196 0
0.336006 0.0896146 0
0.345896 0.0908339 0
0.355796 0.0919773 0
0.365704 0.0930447 0
0.375621 0.0940362 0
0.385544 0.0949517 0
0.395474 0.095791 0
0.40541 0.0965542 0
0.415352 0.0972412 0
0.425299 0.097852 0
0.43525 0.0983865 0
0.445205 0.0988447 0
0.455164 0.0992266 0
0.465125 0.0995321 0
0.475088 0.0997613 0
0.485052 0.0999141 0
0.495017 0.0999904 0
0.504983 0.0999904 0
0.514948 0.0999141 0
0.524912 0.0997613 0
0.534875 0.0995321 0
0.544836 0.0992266 0
0.554795 0.0988447 0
0.56475 0.0983865 0
0.574701 0.097852 0
0.584648 0.0972412 0
0.59459 0.0965542 0
0.604526 0.095791 0
0.614456 0.0949517 0
0.624379 0.0940362 0
0.634296 0.0930447 0
0.644204 0.0919773 0
0.654104 0.0908339 0
0.663994 0.0896146 0
0.673875 0.0883196 0
0.683746 0.0869488 0
0.693606 0.0855025 0
0.703455 0.0839806 0
0.713292 0.0823832 0
0.723116 0.0807105 0
0.732927 0.0789625 0
0.742724 0.0771393 0
0.752508 0.0752411 0
0.762276 0.073268 0
0.772029 0.07122 0
0.781766 0.0690974 0
0.791486 0.0669001 0
0.801189 0.0646285 0
0.810875 0.0622825 0
0.820542 0.0598623 0
0.83019 0.0573681 0
0.839819 0.0547999 0
0.849428 0.0521581 0
0.859017 0.0494427 0
0.868584 0.0466538 0
0.87813 0.0437917 0
0.887653 0.0408565 0
0.897154 0.0378484 0
0.906631 0.0347675 0
0.916085 0.0316141 0
0.925514 0.0283883 0
0.934918 0.0250903 0
0.944297 0.0217203 0
0.953649 0.0182786 0
0.962975 0.0147652 0
0.972273 0.0111804 0
0.981544 0.00752451 0
0.990786 0.00379763 0
-1 0.951882 0.1
-1 0.905617 0.1
-1 0.861133 0.1
-1 0.818361 0.1
-1 0.777235 0.1
-1 0.737692 0.1
-1 0.699672 0.1
-1 0.663115 0.1
-1 0.627966 0.1
-1 0.594169 0.1
-1 0.561674 0.1
-1 0.530429 0.1
-1 0.500387 0.1
-1 0.471502 0.1
-1 0.443728 0.1
-1 0.417024 0.1
-1 0.391347 0.1
-1 0.366659 0.1
-1 0.342921 0.1
-1 0.320097 0.1
-1 0.298152 0.1
-1 0.277051 0.1
-1 0.256763 0.1
-1 0.237256 0.1
-1 0.218499 0.1
-1 0.200465 0.1
-1 0.183124 0.1
-1 0.166452 0.1
-1 0.150421 0.1
-1 0.135007 0.1
-1 0.120186 0.1
-1 0.105936 0.1
-1 0.092235 0.1
-1 0.079061 0.1
-1 0.066394 0.1
-1 0.0542147 0.1
-1 0.0425043 0.1
-1 0.0312446 0.1
-1 0.0204183 0.1
-1 0.0100088 0.1
-0.99 0 0.1
-0.98 0 0.1
-0.97 0 0.1
-0.96 0 0.1
-0.95 0 0.1
-0.94 0 0.1
-0.93 0 0.1
-0.92 0 0.1
-0.91 0 0.1
-0.9 0 0.1
-0.89 0 0.1
-0.88 0 0.1
-0.87 0 0.1
-0.86 0 0.1
-0.85 0 0.1
-0.84 0 0.1
-0.83 0 0.1
-0.82 0 0.1
-0.81 0 0.1
-0.8 0 0.1
-0.79 0 0.1
-0.78 0 0.1
-0.77 0 0.1
-0.76 0 0.1
-0.75 0 0.1
-0.74 0 0.1
-0.73 0 0.1
-0.72 0 0.1
-0.71 0 0.1
-0.7 0 0.1
-0.69 0 0.1
-0.68 0 0.1
-0.67 0 0.1
-0.66 0 0.1
-0.65 0 0.1
-0.64 0 0.1
-0.63 0 0.1
-0.62 0 0.1
-0.61 0 0.1
-0.6 0 0.1
-0.59 0 0.1
-0.58 0 0.1
-0.57 0 0.1
-0.56 0 0.1
-0.55 0 0.1
-0.54 0 0.1
-0.53 0 0.1
-0.52 0 0.1
-0.51 0 0.1
-0.5 0 0.1
-0.49 0 0.1
-0.48 0 0.1
-0.47 0 0.1
-0.46 0 0.1
-0.45 0 0.1
-0.44 0 0.1
-0.43 0 0.1
-0.42 0 0.1
-0.41 0 0.1
-0.4 0 0.1
-0.39 0 0.1
-0.38 0 0.1
-0.37 0 0.1
-0.36 0 0.1
-0.35 0 0.1
-0.34 0 0.1
-0.33 0 0.1
-0.32 0 0.1
-0.31 0 0.1
-0.3 0 0.1
-0.29 0 0.1
-0.28 0 0.1
-0.27 0 0.1
-0.26 0 0.1
-0.25 0 0.1
-0.24 0 0.1
-0.23 0 0.1
-0.22 0 0.1
-0.21 0 0.1
-0.2 0 0.1
-0.19 0 0.1
-0.18 0 0.1
-0.17 0 0.1
-0.16 0 0.1
-0.15 0 0.1
-0.14 0 0.1
-0.13 0 0.1
-0.12 0 0.1
-0.11 0 0.1
-0.1 0 0.1
-0.09 0 0.1
-0.08 0 0.1
-0.07 0 0.1
-0.06 0 0.1
-0.05 0 0.1
-0.04 0 0.1
-0.03 0 0.1
-0.02 0 0.1
-0.01 0 0.1
0.00921362 0.00379763 0.1
0.0184561 0.00752451 0.1
0.0277268 0.0111804 0.1
0.0370253 0.0147652 0.1
0.0463511 0.0182786 0.1
0.0557034 0.0217203 0.1
0.0650819 0.0250903 0.1
0.074486 0.0283883 0.1
0.083915 0.0316141 0.1
0.0933685 0.0347675 0.1
0.102846 0.0378484 0.1
0.112347 0.0408565 0.1
0.12187 0.0437917 0.1
0.131416 0.0466538 0.1
0.140983 0.0494427 0.1
0.150572 0.0521581 0.1
0.160181 0.0547999 0.1
0.16981 0.0573681 0.1
0.179458 0.0598623 0.1
0.189125 0.0622825 0.1
0.198811 0.0646285 0.1
0.208514 0.0669001 0.1
0.218234 0.0690974 0.1
0.227971 0.07122 0.1
0.237724 0.073268 0.1
0.247493 0.0752411 0.1
0.257276 0.0771393 0.1
0.267073 0.0789625 0.1
0.276884 0.0807105 0.1
0.286708 0.0823832 0.1
0.296545 0.0839806 0.1
0.306394 0.0855025 0.1
0.316254 0.0869488 0.1
0.326125 0.0883196 0.1
0.336006 0.0896146 0.1
0.345896 0.0908339 0.1
0.355796 0.0919773 0.1
0.365704 0.0930447 0.1
0.375621 0.0940362 0.1
0.385544 0.0949517 0.1
0.395474 0.095791 0.1
0.40541 0.0965542 0.1
0.415352 0.0972412 0.1
0.425299 0.097852 0.1
0.43525 0.0983865 0.1
0.445205 0.0988447 0.1
0.455164 0.0992266 0.1
0.465125 0.0995321 0.1
0.475088 0.0997613 0.1
0.485052 0.0999141 0.1
0.495017 0.0999904 0.1
0.504983 0.0999904 0.1
0.514948 0.0999141 0.1
0.524912 0.0997613 0.1
0.534875 0.0995321 0.1
0.544836 0.0992266 0.1
0.554795 0.0988447 0.1
0.56475 0.0983865 0.1
0.574701 0.097852 0.1
0.584648 0.0972412 0.1
0.59459 0.0965542 0.1
0.604526 0.095791 0.1
0.614456 0.0949517 0.1
0.624379 0.0940362 0.1
0.634296 0.0930447 0.1
0.644204 0.0919773 0.1
0.654104 0.0908339 0.1
0.663994 0.0896146 0.1
0.673875 0.0883196 0.1
0.683746 0.0869488 0.1
0.693606 0.0855025 0.1
0.703455 0.0839806 0.1
0.713292 0.0823832 0.1
0.723116 0.0807105 0.1
0.732927 0.0789625 0.1
0.742724 0.0771393 0.1
0.752508 0.0752411 0.1
0.762276 0.073268 0.1
0.772029 0.07122 0.1
0.781766 0.0690974 0.1
0.791486 0.0669001 0.1
0.801189 0.0646285 0.1
0.810875 0.0622825 0.1
0.820542 0.0598623 0.1
0.83019 0.0573681 0.1
0.839819 0.0547999 0.1
0.849428 0.0521581 0.1
0.859017 0.0494427 0.1
0.868584 0.0466538 0.1
0.87813 0.0437917 0.1
0.887653 0.0408565 0.1
0.897154 0.0378484 0.1
0.906631 0.0347675 0.1
0.916085 0.0316141 0.1
0.925514 0.0283883 0.1
0.934918 0.0250903 0.1
0.944297 0.0217203 0.1
0.953649 0.0182786 0.1
0.962975 0.0147652 0.1
0.972273 0.0111804 0.1
0.981544 0.00752451 0.1
0.990786 0.00379763 0.1
1.01 0 0.1
1.02 0 0.1
1.03 0 0.1
[...]
CELL_DATA 14313
SCALARS rho float
LOOKUP_TABLE default
0.783228
0.825232
0.806395
0.544897
0.769267
0.814138
0.814679
0.814584
0.811413
0.815855
0.81437
0.799298
0.799051
0.533802
0.814995
0.833385
0.809477
0.808145
0.812175
0.805859
0.813036
0.814585
0.814621
0.769024
0.81422
0.815355
0.744612
0.705046
0.824719
0.825922
0.814179
0.794978
0.801556
0.814191
0.805118
0.812756
0.684228
0.8096
0.813785
0.803111
0.754948
0.812698
0.548993
0.705954
0.819468
0.836861
0.813014
0.778449
0.806122
0.853822
0.679947
0.656787
0.600855
0.812669
0.821394
0.783648
0.819453
0.815375
0.811185
0.814487
0.814232
0.820234
0.794956
0.840308
0.812658
0.815385
0.855661
0.784835
0.841879
0.814987
0.798747
0.832955
0.502238
0.838524
0.731632
0.808907
0.826481
0.749258
0.699288
0.813665
0.596454
0.826272
0.834292
0.803748
0.807528
0.821075
0.814117
0.804907
0.827808
0.807449
0.780984
0.539205
0.807979
0.79992
0.731597
0.804022
0.816627
0.811169
0.803823
0.503576
0.808831
0.811835
0.81465
0.815659
0.750873
0.809862
0.803446
0.702316
0.835843
0.812089
0.814301
0.8265
0.814098
0.821107
0.80446
0.828946
0.821542
0.837552
0.779867
0.800643
0.813741
0.811233
0.860321
0.726403
0.845703
0.756485
0.791568
0.804909
0.816643
0.845241
0.811602
0.814208
0.861604
0.81446
0.824943
0.783613
0.808479
0.792898
0.819504
0.81919
0.814678
0.818541
0.803455
0.803582
0.797136
0.840382
0.80626
0.762199
0.797199
0.819215
0.799277
0.803751
0.814623
0.712685
0.822813
0.803916
0.725565
0.822836
0.814235
0.812451
0.820249
0.809283
0.665264
0.759213
0.824791
0.826209
0.717531
0.814747
0.829565
0.817191
0.692851
0.816717
0.715912
0.789962
0.810924
0.827992
0.810182
0.816875
0.82269
0.744922
0.813632
0.811669
0.775407
0.771551
0.791218
0.812605
0.814982
0.79758
0.507332
0.789017
0.759892
0.746052
0.771027
0.720159
0.814459
0.816837
0.807953
0.803653
0.808171
0.818708
0.762374
0.80361
0.830032
0.816847
0.834854
0.803504
0.817067
0.814695
0.814191
0.835744
0.805596
0.812895
0.797644
0.703675
0.816066
0.822643
0.81178
0.808767
0.835887
0.804142
0.803277
0.819837
0.808083
0.856412
0.811302
0.803719
0.819793
0.802866
0.814584
0.759529
0.654231
0.815654
0.700336
0.82844
0.802811
0.726917
0.814043
0.816034
0.816787
0.828149
0.792324
0.704572
0.751032
0.608039
0.816989
0.726269
0.80132
0.807614
0.839004
0.81686
0.581261
0.804398
0.731509
0.838715
0.802784
0.698728
0.813094
0.828591
0.816603
0.566421
0.813696
0.802734
0.800945
0.807887
0.790155
0.775787
0.816234
0.816032
0.542534
0.81664
0.815807
0.77332
0.802489
0.814355
0.78143
0.819055
0.785355
0.713614
0.803365
0.806135
0.573929
0.550416
0.75872
0.810037
0.822226
0.790802
0.81401
0.816823
0.777095
0.806539
0.803769
0.818604
0.831018
0.795107
0.808632
0.813353
0.643466
0.820221
0.708407
0.79932
0.793827
0.77864
0.836971
0.809856
0.798737
0.681926
0.674096
0.805327
0.807316
0.820282
0.804509
0.800434
0.655657
0.817091
0.823069
0.81872
0.814374
0.81494
0.801449
0.792569
0.816226
0.60639
0.810112
0.814477
0.816446
0.814716
0.76766
0.823155
0.802287
0.81626
0.81511
0.75407
0.754847
0.803486
0.803561
0.704823
0.814655
0.813616
0.80871
0.813914
0.8044
0.801248
0.730872
0.714917
0.816419
0.750519
0.76044
0.82039
0.838864
0.816228
0.803807
0.808817
0.814495
0.803758
0.818957
0.784903
0.818891
0.812327
0.81294
0.796818
0.812571
0.794131
0.814152
0.594243
0.801015
0.8018
0.813705
0.814868
0.769768
0.802055
0.814452
0.814649
0.819901
0.771087
0.818958
0.810077
0.75594
0.762248
0.813312
0.807796
0.830747
0.826397
0.824162
0.805797
0.60693
0.781232
0.607918
0.803704
0.803428
0.802856
0.816283
0.874863
0.534316
0.602192
0.839612
0.872836
0.813906
0.693059
0.803885
0.722713
0.808773
0.817298
0.709649
0.654882
0.753774
0.814999
0.674925
0.874397
0.826049
0.800544
0.80935
0.494327
0.744175
0.783621
0.819485
0.806267
0.802262
0.831771
0.814559
0.710098
0.689717
0.802313
0.80674
0.811633
0.813911
0.809286
0.814241
0.738889
0.791837
0.797675
0.803173
0.766425
0.819556
0.80838
0.815021
0.813942
0.758447
0.805873
0.804277
0.795299
0.814419
0.817471
0.808821
0.662579
0.788285
0.819136
0.813279
0.814209
0.807873
0.814799
0.806198
0.822784
0.823166
0.682351
0.856253
0.746229
0.822402
0.806801
0.745647
0.825777
0.801149
0.827105
0.555206
0.801553
0.684021
0.814313
0.809792
0.535648
0.801471
0.805083
0.798471
0.802641
0.802741
0.774327
0.814169
0.601074
0.806402
0.806634
0.800887
0.820134
0.767137
0.814306
0.811603
0.799934
0.818168
0.798606
0.803211
0.814575
0.63799
0.771375
0.737383
0.501863
0.826402
0.575098
0.80301
0.820665
0.857702
0.709401
0.744115
0.814416
0.806635
0.802517
0.795753
0.768617
0.81308
0.814631
0.798436
0.81525
0.817643
0.691082
0.814549
0.815373
0.806653
0.812437
0.611722
0.817107
0.823274
0.713225
0.789562
0.815301
0.801335
0.83038
0.832555
0.804289
0.742179
0.488774
0.815914
0.576927
0.800734
0.803454
0.77455
0.814359
0.752557
0.813589
0.807115
0.80349
0.497933
0.816282
0.829023
0.832116
0.816238
0.803716
0.803409
0.814591
0.759026
0.848526
0.839493
0.71616
0.800555
0.657008
0.779114
0.671698
0.817848
0.838565
0.801017
0.646037
0.768521
0.815758
0.826115
0.833918
0.815122
0.683047
0.545558
0.806222
0.817835
0.802899
0.817652
0.80643
0.772775
0.853916
0.817158
0.804241
0.818641
0.799409
0.743639
0.800066
0.813075
0.602452
0.692093
0.803655
0.813089
0.805123
0.580506
0.813777
0.609146
0.814633
0.76895
0.818539
0.818216
0.753495
0.808502
0.79428
0.805393
0.839059
0.839678
0.83251
0.805037
0.818087
0.586576
0.814653
0.85788
0.826369
0.830833
0.804501
0.822543
0.800866
0.840954
0.809355
0.81495
0.680253
0.642347
0.83718
0.815481
0.841785
0.721019
0.802825
0.764993
0.799244
0.810199
0.795022
0.809026
0.81523
0.824434
0.829666
0.831631
0.805741
0.750261
0.806065
0.734827
0.795374
0.823123
0.802139
0.815707
0.760393
0.805404
0.805972
0.84818
0.81112
0.803476
0.807528
0.835767
0.832714
0.803739
0.857404
0.79727
0.821853
0.672734
0.803347
0.800612
0.800845
0.833241
0.613026
0.806659
0.805826
0.663923
0.816612
0.830891
0.815924
0.803498
0.806731
0.802865
0.818001
0.800916
0.71609
0.522287
0.815516
0.807655
0.802899
0.805306
0.804253
0.804008
0.81292
0.800151
0.815817
0.588687
0.814907
0.80977
0.814138
0.843553
0.815807
0.835552
0.81374
0.799686
0.814973
0.685394
0.804037
0.853078
0.815002
0.793569
0.816236
0.637997
0.80621
0.589065
0.674682
0.68112
0.809909
0.817455
0.81286
0.508083
0.697385
0.803684
0.83232
0.749584
0.833879
0.805401
0.806748
0.798809
0.698984
0.753936
0.556743
0.803338
0.814038
0.805906
0.822311
0.673098
0.683018
0.856905
0.803095
0.816092
0.734516
0.81566
0.534622
0.8226
0.700458
0.815921
0.819351
0.802412
0.803105
0.826847
0.796488
0.803945
0.805873
0.635481
0.807103
0.660259
0.800774
0.800289
0.815825
0.815897
0.731676
0.817297
0.754923
0.8034
0.717757
0.806608
0.745696
0.674697
0.826221
0.814638
0.801172
0.730139
0.81287
0.662281
0.812989
0.803262
0.724882
0.82752
0.818274
0.648675
0.698936
0.827449
0.803814
0.72937
0.834923
0.836196
0.837561
0.81411
0.555053
0.753232
0.822337
0.822107
0.553056
0.643831
0.817149
0.814688
0.727682
0.779452
0.814379
0.808937
0.760435
0.814394
0.815621
0.803697
0.733671
0.802599
0.798983
0.814047
0.583732
0.80587
0.823549
0.579648
0.819985
0.847996
0.814371
0.67967
0.814085
0.813829
0.814177
0.801408
0.820581
0.803726
0.80703
0.805112
0.803454
0.815592
0.636374
0.81184
0.810987
0.700375
0.611458
0.786967
0.800398
0.814404
0.753161
0.601638
0.813721
0.785658
0.814387
0.823249
0.815604
0.826773
0.750458
0.602279
0.813889
0.840615
0.814367
0.701126
0.805361
0.730089
0.815257
0.813156
0.814281
0.819265
0.801673
0.815229
0.808873
0.757345
0.818109
0.814839
0.754443
0.792569
0.716549
0.58171
0.737061
0.783733
0.8177
0.813622
0.812349
0.812673
0.803444
0.797339
0.808395
0.699535
0.752984
0.813912
0.803697
0.805149
0.818996
0.612577
0.81567
0.804103
0.844707
0.810029
0.644499
0.794298
0.804241
0.843563
0.699217
0.570647
0.582775
0.639091
0.819437
0.805034
0.570083
0.598919
0.821777
0.814471
0.889921
0.805079
0.830691
0.81466
0.76942
0.813016
0.814773
0.814399
0.812862
0.814372
0.799927
0.814227
0.660716
0.817673
0.803797
0.811594
0.755827
0.81907
0.614814
0.858431
0.804122
0.828535
0.814375
0.808346
0.746823
0.82437
0.81402
0.838693
0.814145
0.814642
0.650897
0.828288
0.812512
0.814599
0.837771
0.824312
0.56045
0.79858
0.804467
0.812923
0.817567
0.804135
0.801404
0.81722
0.766968
0.806555
0.81783
0.86433
0.832685
0.598244
0.797998
0.755921
0.816103
0.763416
0.821204
0.805217
0.806729
0.814497
0.790781
0.807463
0.816016
0.822813
0.788126
0.681365
0.738384
0.706979
0.816125
0.838297
0.840055
0.738076
0.810917
0.7535
0.616839
0.81437
0.800981
0.814157
0.803751
0.640071
0.802641
0.777722
0.735843
0.813103
0.744011
0.809216
0.818313
0.860787
0.81017
0.807591
0.742206
0.814713
0.777677
0.840657
0.88444
0.799105
0.528756
0.801515
0.61471
0.770944
0.660849
0.799558
0.509352
0.817015
0.852565
0.806261
0.812974
0.821506
0.804855
0.803332
0.700731
0.825052
0.814188
0.804382
0.808607
0.793097
0.803755
0.808666
0.637651
0.818474
0.80366
0.847819
0.810108
0.804889
0.803042
0.815035
0.815153
0.809626
0.803683
0.789457
0.814446
0.796882
0.803641
0.815386
0.774154
0.573555
0.814861
0.820031
0.804517
0.72164
0.8032
0.809583
0.803578
0.706079
0.87683
0.813981
0.818555
0.814372
0.850318
0.78001
0.814412
0.789538
0.817716
0.823788
0.666823
0.814441
0.731344
0.819673
0.725128
0.801528
0.753826
0.80401
0.691109
0.81146
0.732584
0.490515
0.82161
0.665425
0.769078
0.819116
0.814561
0.778528
0.813533
0.725576
0.641926
0.827752
0.696235
0.818633
0.76986
0.802365
0.808245
0.815386
0.655856
0.804827
0.774667
0.811933
0.814144
0.831245
0.806454
0.691726
0.757508
0.658428
0.800238
0.805019
0.814298
0.817305
0.812445
0.813875
0.811718
0.667583
0.733833
0.630582
0.703816
0.815963
0.809728
0.834456
0.809945
0.816717
0.698452
0.877774
0.817166
0.827814
0.578872
0.824581
0.814446
0.84201
0.846667
0.827827
0.832027
0.821982
0.548358
0.806096
0.816766
0.710071
0.818645
0.803327
0.814397
0.808472
0.814757
0.814762
0.77002
0.716177
0.800008
0.801517
0.579087
0.816071
0.860053
0.817278
0.671689
0.824298
0.815235
0.821352
0.837527
0.697451
0.499142
0.805124
0.841109
0.806361
0.804937
0.816252
0.801985
0.812842
0.811753
0.801272
0.804515
0.804946
0.814671
0.805843
0.80663
0.800626
0.837545
0.832188
0.854331
0.81505
0.809465
0.816474
0.815128
0.81438
0.81322
0.817465
0.835139
0.808944
0.813295
0.615514
0.83204
0.699142
0.869062
0.803887
0.834447
0.801068
0.786939
0.787796
0.738973
0.822929
0.811479
0.813518
0.815485
0.777063
0.81002
0.589731
0.806426
0.815136
0.815239
0.796279
0.814317
0.615077
0.784452
0.564372
0.822435
0.798957
0.776349
0.803801
0.815723
0.814641
0.814663
0.735759
0.810351
0.814215
0.812066
0.803897
0.804093
0.746958
0.770121
0.810754
0.803935
0.705548
0.603819
0.501164
0.842252
0.806361
0.780422
0.782166
0.825024
0.80375
0.804151
0.819901
0.780299
0.756786
0.818098
0.809094
0.812633
0.838345
0.805336
0.81406
0.8086
0.495852
0.803683
0.814193
0.775735
0.821182
0.816249
0.827228
0.613893
0.705919
0.580567
0.829487
0.817499
0.746171
0.812378
0.680438
0.815749
0.811865
0.81422
0.804366
0.812431
0.582472
0.6912
0.807987
0.815416
0.794157
0.80337
0.832319
0.80074
0.803692
0.652736
0.809663
0.814282
0.804795
0.814493
0.802851
0.623527
0.816304
0.8146
0.578559
0.706375
0.795311
0.830106
0.7049
0.804275
0.794301
0.81441
0.756693
0.688275
0.812744
0.796437
0.801123
0.767348
0.549771
0.821923
0.677195
0.750507
0.72912
0.804161
0.799323
0.813769
0.666858
0.76897
0.804264
0.816995
0.597272
0.800973
0.826519
0.809122
0.549034
0.805929
0.784329
0.715025
0.713883
0.800773
0.820957
0.815146
0.810718
0.708482
0.741986
0.645473
0.833819
0.843959
0.818729
0.788874
0.866062
0.704687
0.81546
0.768383
0.791466
0.796137
0.814293
0.804213
0.813888
0.787451
0.757528
0.821563
0.798835
0.843408
0.721909
0.791742
0.805829
0.72572
0.804483
0.816499
0.581503
0.802242
0.801006
0.8029
0.822954
0.766059
0.800753
0.72543
0.814424
0.80917
0.728079
0.814423
0.818103
0.830227
0.806054
0.788807
0.799656
0.806366
0.723332
0.81467
0.803148
0.682889
0.807596
0.78136
0.833216
0.822285
0.820785
0.840668
0.850839
0.707135
0.815805
0.797184
0.788091
0.62147
0.818567
0.80574
0.814485
0.778453
0.854476
0.834069
0.78274
0.844571
0.780855
0.80087
0.773471
0.814474
0.724539
0.63982
0.845361
0.666902
0.793232
0.840835
0.814647
0.676103
0.809584
0.754036
0.804406
0.799394
0.783647
0.804397
0.803029
0.803159
0.802255
0.786489
0.81429
0.78325
0.818213
0.807988
0.718446
0.785582
0.815765
0.814671
0.805848
0.569988
0.826158
0.814846
0.814246
0.711891
0.8053
0.802024
0.803107
0.817865
0.74611
0.817941
0.802569
0.806255
0.758329
0.813758
0.81317
0.807219
0.770573
0.809546
0.815028
0.808378
0.817421
0.810227
0.806345
0.824644
0.804857
0.790486
0.808356
0.814452
0.818793
0.781222
0.706551
0.815846
0.812689
0.802802
0.745181
0.789554
0.657693
0.803504
0.548053
0.803385
0.816464
0.775965
0.835998
0.540106
0.811615
0.740813
0.812797
0.542065
0.805663
0.829775
0.815408
0.820589
0.737805
0.842276
0.563435
0.824967
0.702927
0.801618
0.668703
0.673443
0.814728
0.81437
0.744938
0.803036
0.821836
0.616099
0.823446
0.770653
0.83498
0.814379
0.8156
0.815265
0.804032
0.839192
0.811942
0.804053
0.511765
0.803351
0.844755
0.803033
0.803446
0.769017
0.806928
0.814271
0.814432
0.798736
0.736643
0.812517
0.817479
0.607282
0.804525
0.594623
0.817642
0.552805
0.814313
0.772657
0.686818
0.731368
0.783322
0.717254
0.844063
0.814444
0.798536
0.804343
0.706356
0.802831
0.791197
0.802874
0.816581
0.803702
0.72846
0.705877
0.802328
0.773707
0.527082
0.813491
0.674461
0.794763
0.697254
0.826509
0.811689
0.826729
0.811739
0.838759
0.809278
0.592547
0.830671
0.809038
0.803288
0.817431
0.814305
0.814734
0.815098
0.826756
0.818344
0.624681
0.805019
0.800894
0.81507
0.695154
0.802604
0.825078
0.758513
0.691807
0.809181
0.696856
0.734376
0.811527
0.814902
0.672147
0.842711
0.768735
0.805646
0.798574
0.812137
0.845739
0.801544
0.552057
0.816916
0.694573
0.707147
0.778163
0.761384
0.771641
0.814476
0.803609
0.818072
0.814374
0.590673
0.787859
0.833527
0.814391
0.597239
0.727766
0.645077
0.818602
0.812673
0.693888
0.804293
0.814384
0.801288
0.836352
0.615027
0.841697
0.739547
0.814168
0.814695
0.680621
0.814673
0.716489
0.793456
0.711637
0.813387
0.786795
0.63941
0.727064
0.718092
0.834455
0.811676
0.821168
0.823795
0.80347
0.809054
0.804542
0.819254
0.803635
0.695965
0.803979
0.607821
0.778995
0.807486
0.803852
0.814448
0.825958
0.803398
0.722968
0.696262
0.672169
0.792494
0.817955
0.747725
0.609641
0.75414
0.812609
0.802151
0.762333
0.804922
0.82446
0.755311
0.574409
0.702248
0.800439
0.81445
0.865252
0.816408
0.814107
0.852866
0.80144
0.802275
0.816462
0.814507
0.807387
0.721737
0.809532
0.701099
0.863245
0.781138
0.815558
0.610869
0.798654
0.536909
0.588136
0.611404
0.810011
0.803764
0.811325
0.761418
0.803681
0.541482
0.784671
0.80483
0.738673
0.816331
0.803689
0.817811
0.844093
0.688851
0.813956
0.802269
0.811904
0.817299
0.81505
0.814599
0.757045
0.799224
0.799346
0.803398
0.799553
0.812831
0.84781
0.82044
0.727695
0.805063
0.651423
0.815348
0.814386
0.593538
0.768568
0.768616
0.545901
0.786625
0.803849
0.879042
0.800425
0.8151
0.758346
0.795009
0.799141
0.810559
0.783668
0.55003
0.701157
0.684009
0.782117
0.816526
0.803396
0.822532
0.790961
0.803884
0.814981
0.800148
0.853258
0.712939
0.814189
0.781755
0.540072
0.57729
0.815088
0.803788
0.805788
0.56713
0.797379
0.803968
0.662696
0.815827
0.792815
0.808583
0.816819
0.617986
0.722426
0.72489
0.814656
0.834092
0.636827
0.790565
0.711196
0.815708
0.828763
0.780537
0.775548
0.546994
0.813698
0.802542
0.72615
0.854919
0.806091
0.728811
0.742297
0.765882
0.813158
0.569151
0.797127
0.737886
0.800611
0.823665
0.71494
0.801229
0.813681
0.719098
0.813544
0.709237
0.817977
0.800229
0.759043
0.699718
0.810865
0.800376
0.815517
0.673138
0.805641
0.806969
0.813937
0.702769
0.814446
0.810031
0.833069
0.692943
0.817498
0.74319
0.814247
0.807392
0.843525
0.80393
0.820793
0.75034
0.817207
0.840185
0.833965
0.818074
0.848104
0.752496
0.850529
0.828186
0.805354
0.827033
0.806292
0.650341
0.780228
0.816017
0.749097
0.70117
0.800536
0.805716
0.693244
0.799541
0.545943
0.85092
0.705491
0.709507
0.815682
0.77586
0.808576
0.799388
0.808599
0.804114
0.81424
0.837806
0.734849
0.774237
0.595296
0.812389
0.77776
0.812356
0.805369
0.575902
0.803134
0.802657
0.809682
0.80045
0.818681
0.808495
0.701019
0.824851
0.850729
0.687995
0.746521
0.81445
0.802985
0.718891
0.815665
0.756841
0.797377
0.803302
0.805827
0.838564
0.672932
0.721123
0.801058
0.706098
0.77337
0.833163
0.539824
0.696042
0.799878
0.804545
0.803502
0.741298
0.824114
0.808995
0.803862
0.808529
0.81546
0.698983
0.65846
0.810035
0.815923
0.800908
0.875261
0.803848
0.814633
0.799367
0.812005
0.813018
0.808903
0.660636
0.815239
0.818551
0.803653
0.803925
0.801204
0.621666
0.811769
0.812757
0.814683
0.865575
0.816463
0.801966
0.495993
0.837641
0.70264
0.828039
0.807301
0.814447
0.826178
0.811474
0.814326
0.736163
0.558506
0.516217
0.814574
0.811161
0.544274
0.796184
0.816528
0.834802
0.515732
0.810199
0.815533
0.803581
0.809704
0.543737
0.815275
0.808654
0.566599
0.814491
0.81729
0.547867
0.810501
0.814842
0.776862
0.807599
0.812632
0.811901
0.80068
0.827506
0.541823
0.831968
0.816343
0.804286
0.74526
0.787918
0.81368
0.810101
0.804162
0.817772
0.800977
0.669029
0.808317
0.692619
0.814358
0.66378
0.748906
0.797396
0.721234
0.803663
0.58486
0.850895
0.814512
0.814511
0.801253
0.803282
0.803261
0.814255
0.816452
0.673701
0.723438
0.730732
0.816841
0.727252
0.6556
0.819021
0.785623
0.829387
0.813791
0.809941
0.735187
0.547637
0.79924
0.792165
0.510714
0.815959
0.815197
0.737913
0.806533
0.770545
0.616148
0.811994
0.815307
0.790627
0.614478
0.802711
0.783934
0.828016
0.81517
0.812782
0.812338
0.81504
0.709654
0.801725
0.817755
0.703961
0.494644
0.738027
0.799199
0.734494
0.815202
0.800185
0.805969
0.783527
0.868257
0.80363
0.802033
0.82736
0.860396
0.804885
0.81753
0.796499
0.817901
0.78995
0.745805
0.812477
0.804538
0.818159
0.803409
0.792963
0.844122
0.767136
0.81495
0.775264
0.804814
0.646295
0.519563
0.801406
0.802668
0.811891
0.798585
0.801337
0.814323
0.773802
0.805937
0.814378
0.784049
0.81862
0.777265
0.600139
0.805423
0.760947
0.777509
0.752676
0.763864
0.79458
0.789336
0.823747
0.788238
0.809792
0.803448
0.767551
0.817548
0.550477
0.733795
0.812738
0.81603
0.81369
0.804338
0.814933
0.812051
0.806157
0.822964
0.810069
0.78394
0.818539
0.803269
0.792617
0.796506
0.805487
0.591842
0.80394
0.792853
0.582266
0.81467
0.807628
0.806331
0.811157
0.706493
0.753977
0.822928
0.775106
0.811905
0.818301
0.717402
0.804748
0.825802
0.723601
0.800015
0.81171
0.779805
0.806636
0.838957
0.802471
0.819275
0.774429
0.805588
0.801756
0.815222
0.803892
0.79986
0.595915
0.817264
0.789028
0.806945
0.827314
0.700919
0.830169
0.821413
0.516794
0.807723
0.804718
0.803548
0.814441
0.825749
0.825766
0.805196
0.807932
0.816275
0.81395
0.803672
0.814704
0.806054
0.750649
0.715845
0.782979
0.815807
0.814129
0.777782
0.759914
0.814439
0.825986
0.811073
0.814501
0.70183
0.511921
0.747738
0.819477
0.808211
0.818226
0.845347
0.801591
0.721289
0.661929
0.801703
0.806227
0.700222
0.814907
0.680544
0.838163
0.732096
0.814916
0.895848
0.816104
0.802442
0.779916
0.811692
0.688736
0.814805
0.810322
0.792243
0.807635
0.77962
0.802297
0.810399
0.782978
0.803737
0.853194
0.777772
0.80232
0.519197
0.80427
0.696868
0.804322
0.794967
0.789008
0.785534
0.724725
0.804171
0.790187
0.845766
0.81546
0.814706
0.814096
0.896097
0.749061
0.803113
0.735644
0.803264
0.800389
0.805318
0.721207
0.80256
0.806029
0.650465
0.810653
0.751078
0.588162
0.847782
0.848586
0.753003
0.81137
0.795332
0.774305
0.736659
0.777321
0.786615
0.738669
0.804173
0.805441
0.725602
0.817355
0.805297
0.567309
0.814367
0.823055
0.815108
0.803724
0.61545
0.721703
0.80668
0.860245
0.50888
0.72857
0.807954
0.816568
0.798329
0.709857
0.71828
0.809384
0.815414
0.817061
0.838513
0.744589
0.756911
0.876553
0.807594
0.811609
0.795802
0.653006
0.626023
0.592989
0.663472
0.600272
0.767235
0.802817
0.804473
0.814452
0.810703
0.811875
0.861207
0.722619
0.825576
0.816021
0.81903
0.818618
0.815953
0.81517
0.813774