# vtk DataFile Version 1.0
unstructured grid
ascii
DATASET UNSTRUCTURED_GRID
points 14760 float
-1 0 0
-1 1 0
2 0 0
2 1 0
0 0 0
1 0 0
-1 1 0.1
-1 0 0.1
0 0 0.1
1 0 0.1
2 0 0.1
2 1 0.1
-0.99 0 0
-0.98 0 0
-0.97 0 0
-0.96 0 0
-0.95 0 0
-0.94 0 0
-0.93 0 0
-0.92 0 0
-0.91 0 0
-0.9 0 0
-0.89 0 0
-0.88 0 0
-0.87 0 0
-0.86 0 0
-0.85 0 0
-0.84 0 0
-0.83 0 0
-0.82 0 0
-0.81 0 0
-0.8 0 0
-0.79 0 0
-0.78 0 0
-0.77 0 0
-0.76 0 0
-0.75 0 0
-0.74 0 0
-0.73 0 0
-0.72 0 0
-0.71 0 0
-0.7 0 0
-0.69 0 0
-0.68 0 0
-0.67 0 0
-0.66 0 0
-0.65 0 0
-0.64 0 0
-0.63 0 0
-0.62 0 0
-0.61 0 0
-0.6 0 0
-0.59 0 0
-0.58 0 0
-0.57 0 0
-0.56 0 0
-0.55 0 0
-0.54 0 0
-0.53 0 0
-0.52 0 0
-0.51 0 0
-0.5 0 0
-0.49 0 0
-0.48 0 0
-0.47 0 0
-0.46 0 0
-0.45 0 0
-0.44 0 0
-0.43 0 0
-0.42 0 0
-0.41 0 0
-0.4 0 0
-0.39 0 0
-0.38 0 0
-0.37 0 0
-0.36 0 0
-0.35 0 0
-0.34 0 0
-0.33 0 0
-0.32 0 0
-0.31 0 0
-0.3 0 0
-0.29 0 0
-0.28 0 0
-0.27 0 0
-0.26 0 0
-0.25 0 0
-0.24 0 0
-0.23 0 0
-0.22 0 0
-0.21 0 0
-0.2 0 0
-0.19 0 0
-0.18 0 0
-0.17 0 0
-0.16 0 0
-0.15 0 0
-0.14 0 0
-0.13 0 0
-0.12 0 0
-0.11 0 0
-0.1 0 0
-0.09 0 0
-0.08 0 0
-0.07 0 0
-0.06 0 0
-0.05 0 0
-0.04 0 0
-0.03 0 0
-0.02 0 0
-0.01 0 0
1.01 0 0
1.02 0 0
1.03 0 0
1.04 0 0
1.05 0 0
1.06 0 0
1.07 0 0
1.08 0 0
1.09 0 0
1.1 0 0
1.11 0 0
1.12 0 0
1.13 0 0
1.14 0 0
1.15 0 0
1.16 0 0
1.17 0 0
1.18 0 0
1.19 0 0
1.2 0 0
1.21 0 0
1.22 0 0
1.23 0 0
1.24 0 0
1.25 0 0
1.26 0 0
1.27 0 0
1.28 0 0
1.29 0 0
1.3 0 0
1.31 0 0
1.32 0 0
1.33 0 0
1.34 0 0
1.35 0 0
1.36 0 0
1.37 0 0
1.38 0 0
1.39 0 0
1.4 0 0
1.41 0 0
1.42 0 0
1.43 0 0
1.44 0 0
1.45 0 0
1.46 0 0
1.47 0 0
1.48 0 0
1.49 0 0
1.5 0 0
1.51 0 0
1.52 0 0
1.53 0 0
1.54 0 0
1.55 0 0
1.56 0 0
1.57 0 0
1.58 0 0
1.59 0 0
1.6 0 0
1.61 0 0
1.62 0 0
1.63 0 0
1.64 0 0
1.65 0 0
1.66 0 0
1.67 0 0
1.68 0 0
1.69 0 0
1.7 0 0
1.71 0 0
1.72 0 0
1.73 0 0
1.74 0 0
1.75 0 0
1.76 0 0
1.77 0 0
1.78 0 0
1.79 0 0
1.8 0 0
1.81 0 0
1.82 0 0
1.83 0 0
1.84 0 0
1.85 0 0
1.86 0 0
1.87 0 0
1.88 0 0
1.89 0 0
1.9 0 0
1.91 0 0
1.92 0 0
1.93 0 0
1.94 0 0
1.95 0 0
1.96 0 0
1.97 0 0
1.98 0 0
1.99 0 0
2 0.0100088 0
2 0.0204183 0
2 0.0312446 0
2 0.0425043 0
2 0.0542147 0
2 0.066394 0
2 0.079061 0
2 0.092235 0
2 0.105936 0
2 0.120186 0
2 0.135007 0
2 0.150421 0
2 0.166452 0
2 0.183124 0
2 0.200465 0
2 0.218499 0
2 0.237256 0
2 0.256763 0
2 0.277051 0
2 0.298152 0
2 0.320097 0
2 0.342921 0
2 0.366659 0
2 0.391347 0
2 0.417024 0
2 0.443728 0
2 0.471502 0
2 0.500387 0
2 0.530429 0
2 0.561674 0
2 0.594169 0
2 0.627966 0
2 0.663115 0
2 0.699672 0
2 0.737692 0
2 0.777235 0
2 0.818361 0
2 0.861133 0
2 0.905617 0
2 0.951882 0
1.95 1 0
1.9 1 0
1.85 1 0
1.8 1 0
1.75 1 0
1.7 1 0
1.65 1 0
1.6 1 0
1.55 1 0
1.5 1 0
1.45 1 0
1.4 1 0
1.35 1 0
1.3 1 0
1.25 1 0
1.2 1 0
1.15 1 0
1.1 1 0
1.05 1 0
1 1 0
0.95 1 0
0.9 1 0
0.85 1 0
0.8 1 0
0.75 1 0
0.7 1 0
0.65 1 0
0.6 1 0
0.55 1 0
0.5 1 0
0.45 1 0
0.4 1 0
0.35 1 0
0.3 1 0
0.25 1 0
0.2 1 0
0.15 1 0
0.1 1 0
0.05 1 0
3.69793e-12 1 0
-0.05 1 0
-0.1 1 0
-0.15 1 0
-0.2 1 0
-0.25 1 0
-0.3 1 0
-0.35 1 0
-0.4 1 0
-0.45 1 0
-0.5 1 0
-0.55 1 0
-0.6 1 0
-0.65 1 0
-0.7 1 0
-0.75 1 0
-0.8 1 0
-0.85 1 0
-0.9 1 0
-0.95 1 0
-1 0.951882 0
-1 0.905617 0
-1 0.861133 0
-1 0.818361 0
-1 0.777235 0
-1 0.737692 0
-1 0.699672 0
-1 0.663115 0
-1 0.627966 0
-1 0.594169 0
-1 0.561674 0
-1 0.530429 0
-1 0.500387 0
-1 0.471502 0
-1 0.443728 0
-1 0.417024 0
-1 0.391347 0
-1 0.366659 0
-1 0.342921 0
-1 0.320097 0
-1 0.298152 0
-1 0.277051 0
-1 0.256763 0
-1 0.237256 0
-1 0.218499 0
-1 0.200465 0
-1 0.183124 0
-1 0.166452 0
-1 0.150421 0
-1 0.135007 0
-1 0.120186 0
-1 0.105936 0
-1 0.092235 0
-1 0.079061 0
-1 0.066394 0
-1 0.0542147 0
-1 0.0425043 0
-1 0.0312446 0
-1 0.0204183 0
-1 0.0100088 0
0.00921362 0.00379763 0
0.0184561 0.00752451 0
0.0277268 0.0111804 0
0.0370253 0.0147652 0
0.0463511 0.0182786 0
0.0557034 0.0217203 0
0.0650819 0.0250903 0
0.074486 0.0283883 0
0.083915 0.0316141 0
0.0933685 0.0347675 0
0.102846 0.0378484 0
0.112347 0.0408565 0
0.12187 0.0437917 0
0.131416 0.0466538 0
0.140983 0.0494427 0
0.150572 0.0521581 0
0.160181 0.0547999 0
0.16981 0.0573681 0
0.179458 0.0598623 0
0.189125 0.0622825 0
0.198811 0.0646285 0
0.208514 0.0669001 0
0.218234 0.0690974 0
0.227971 0.07122 0
0.237724 0.073268 0
0.247493 0.0752411 0
0.257276 0.0771393 0
0.267073 0.0789625 0
0.276884 0.0807105 0
0.286708 0.0823832 0
0.296545 0.0839806 0
0.306394 0.0855025 0
0.316254 0.0869488 0
0.326125 0.0883196 0
0.336006 0.0896146 0
0.345896 0.0908339 0
0.355796 0.0919773 0
0.365704 0.0930447 0
0.375621 0.0940362 0
0.385544 0.0949517 0
0.395474 0.095791 0
0.40541 0.0965542 0
0.415352 0.0972412 0
0.425299 0.097852 0
0.43525 0.0983865 0
0.445205 0.0988447 0
0.455164 0.0992266 0
0.465125 0.0995321 0
0.475088 0.0997613 0
0.485052 0.0999141 0
0.495017 0.0999904 0
0.504983 0.0999904 0
0.514948 0.0999141 0
0.524912 0.0997613 0
0.534875 0.0995321 0
0.544836 0.0992266 0
0.554795 0.0988447 0
0.56475 0.0983865 0
0.574701 0.097852 0
0.584648 0.0972412 0
0.59459 0.0965542 0
0.604526 0.095791 0
0.614456 0.0949517 0
0.624379 0.0940362 0
0.634296 0.0930447 0
0.644204 0.0919773 0
0.654104 0.0908339 0
0.663994 0.0896146 0
0.673875 0.0883196 0
0.683746 0.0869488 0
0.693606 0.0855025 0
0.703455 0.0839806 0
0.713292 0.0823832 0
0.723116 0.0807105 0
0.732927 0.0789625 0
0.742724 0.0771393 0
0.752508 0.0752411 0
0.762276 0.073268 0
0.772029 0.07122 0
0.781766 0.0690974 0
0.791486 0.0669001 0
0.801189 0.0646285 0
0.810875 0.0622825 0
0.820542 0.0598623 0
0.83019 0.0573681 0
0.839819 0.0547999 0
0.849428 0.0521581 0
0.859017 0.0494427 0
0.868584 0.0466538 0
0.87813 0.0437917 0
0.887653 0.0408565 0
0.897154 0.0378484 0
0.906631 0.0347675 0
0.916085 0.0316141 0
0.925514 0.0283883 0
0.934918 0.0250903 0
0.944297 0.0217203 0
0.953649 0.0182786 0
0.962975 0.0147652 0
0.972273 0.0111804 0
0.981544 0.00752451 0
0.990786 0.00379763 0
-1 0.951882 0.1
-1 0.905617 0.1
-1 0.861133 0.1
-1 0.818361 0.1
-1 0.777235 0.1
-1 0.737692 0.1
-1 0.699672 0.1
-1 0.663115 0.1
-1 0.627966 0.1
-1 0.594169 0.1
-1 0.561674 0.1
-1 0.530429 0.1
-1 0.500387 0.1
-1 0.471502 0.1
-1 0.443728 0.1
-1 0.417024 0.1
-1 0.391347 0.1
-1 0.366659 0.1
-1 0.342921 0.1
-1 0.320097 0.1
-1 0.298152 0.1
-1 0.277051 0.1
-1 0.256763 0.1
-1 0.237256 0.1
-1 0.218499 0.1
-1 0.200465 0.1
-1 0.183124 0.1
-1 0.166452 0.1
-1 0.150421 0.1
-1 0.135007 0.1
-1 0.120186 0.1
-1 0.105936 0.1
-1 0.092235 0.1
-1 0.079061 0.1
-1 0.066394 0.1
-1 0.0542147 0.1
-1 0.0425043 0.1
-1 0.0312446 0.1
-1 0.0204183 0.1
-1 0.0100088 0.1
-0.99 0 0.1
-0.98 0 0.1
-0.97 0 0.1
-0.96 0 0.1
-0.95 0 0.1
-0.94 0 0.1
-0.93 0 0.1
-0.92 0 0.1
-0.91 0 0.1
-0.9 0 0.1
-0.89 0 0.1
-0.88 0 0.1
-0.87 0 0.1
-0.86 0 0.1
-0.85 0 0.1
-0.84 0 0.1
-0.83 0 0.1
-0.82 0 0.1
-0.81 0 0.1
-0.8 0 0.1
-0.79 0 0.1
-0.78 0 0.1
-0.77 0 0.1
-0.76 0 0.1
-0.75 0 0.1
-0.74 0 0.1
-0.73 0 0.1
-0.72 0 0.1
-0.71 0 0.1
-0.7 0 0.1
-0.69 0 0.1
-0.68 0 0.1
-0.67 0 0.1
-0.66 0 0.1
-0.65 0 0.1
-0.64 0 0.1
-0.63 0 0.1
-0.62 0 0.1
-0.61 0 0.1
-0.6 0 0.1
-0.59 0 0.1
-0.58 0 0.1
-0.57 0 0.1
-0.56 0 0.1
-0.55 0 0.1
-0.54 0 0.1
-0.53 0 0.1
-0.52 0 0.1
-0.51 0 0.1
-0.5 0 0.1
-0.49 0 0.1
-0.48 0 0.1
-0.47 0 0.1
-0.46 0 0.1
-0.45 0 0.1
-0.44 0 0.1
-0.43 0 0.1
-0.42 0 0.1
-0.41 0 0.1
-0.4 0 0.1
-0.39 0 0.1
-0.38 0 0.1
-0.37 0 0.1
-0.36 0 0.1
-0.35 0 0.1
-0.34 0 0.1
-0.33 0 0.1
-0.32 0 0.1
-0.31 0 0.1
-0.3 0 0.1
-0.29 0 0.1
-0.28 0 0.1
-0.27 0 0.1
-0.26 0 0.1
-0.25 0 0.1
-0.24 0 0.1
-0.23 0 0.1
-0.22 0 0.1
-0.21 0 0.1
-0.2 0 0.1
-0.19 0 0.1
-0.18 0 0.1
-0.17 0 0.1
-0.16 0 0.1
-0.15 0 0.1
-0.14 0 0.1
-0.13 0 0.1
-0.12 0 0.1
-0.11 0 0.1
-0.1 0 0.1
-0.09 0 0.1
-0.08 0 0.1
-0.07 0 0.1
-0.06 0 0.1
-0.05 0 0.1
-0.04 0 0.1
-0.03 0 0.1
-0.02 0 0.1
-0.01 0 0.1
0.00921362 0.00379763 0.1
0.0184561 0.00752451 0.1
0.0277268 0.0111804 0.1
0.0370253 0.0147652 0.1
0.0463511 0.0182786 0.1
0.0557034 0.0217203 0.1
0.0650819 0.0250903 0.1
0.074486 0.0283883 0.1
0.083915 0.0316141 0.1
0.0933685 0.0347675 0.1
0.102846 0.0378484 0.1
0.112347 0.0408565 0.1
0.12187 0.0437917 0.1
0.131416 0.0466538 0.1
0.140983 0.0494427 0.1
0.150572 0.0521581 0.1
0.160181 0.0547999 0.1
0.16981 0.0573681 0.1
0.179458 0.0598623 0.1
0.189125 0.0622825 0.1
0.198811 0.0646285 0.1
0.208514 0.0669001 0.1
0.218234 0.0690974 0.1
0.227971 0.07122 0.1
0.237724 0.073268 0.1
0.247493 0.0752411 0.1
0.257276 0.0771393 0.1
0.267073 0.0789625 0.1
0.276884 0.0807105 0.1
0.286708 0.0823832 0.1
0.296545 0.0839806 0.1
0.306394 0.0855025 0.1
0.316254 0.0869488 0.1
0.326125 0.0883196 0.1
0.336006 0.0896146 0.1
0.345896 0.0908339 0.1
0.355796 0.0919773 0.1
0.365704 0.0930447 0.1
0.375621 0.0940362 0.1
0.385544 0.0949517 0.1
0.395474 0.095791 0.1
0.40541 0.0965542 0.1
0.415352 0.0972412 0.1
0.425299 0.097852 0.1
0.43525 0.0983865 0.1
0.445205 0.0988447 0.1
0.455164 0.0992266 0.1
0.465125 0.0995321 0.1
0.475088 0.0997613 0.1
0.485052 0.0999141 0.1
0.495017 0.0999904 0.1
0.504983 0.0999904 0.1
0.514948 0.0999141 0.1
0.524912 0.0997613 0.1
0.534875 0.0995321 0.1
0.544836 0.0992266 0.1
0.554795 0.0988447 0.1
0.56475 0.0983865 0.1
0.574701 0.097852 0.1
0.584648 0.0972412 0.1
0.59459 0.0965542 0.1
0.604526 0.095791 0.1
0.614456 0.0949517 0.1
0.624379 0.0940362 0.1
0.634296 0.0930447 0.1
0.644204 0.0919773 0.1
0.654104 0.0908339 0.1
0.663994 0.0896146 0.1
0.673875 0.0883196 0.1
0.683746 0.0869488 0.1
0.693606 0.0855025 0.1
0.703455 0.0839806 0.1
0.713292 0.0823832 0.1
0.723116 0.0807105 0.1
0.732927 0.0789625 0.1
0.742724 0.0771393 0.1
0.752508 0.0752411 0.1
0.762276 0.073268 0.1
0.772029 0.07122 0.1
0.781766 0.0690974 0.1
0.791486 0.0669001 0.1
0.801189 0.0646285 0.1
0.810875 0.0622825 0.1
0.820542 0.0598623 0.1
0.83019 0.0573681 0.1
0.839819 0.0547999 0.1
0.849428 0.0521581 0.1
0.859017 0.0494427 0.1
0.868584 0.0466538 0.1
0.87813 0.0437917 0.1
0.887653 0.0408565 0.1
0.897154 0.0378484 0.1
0.906631 0.0347675 0.1
0.916085 0.0316141 0.1
0.925514 0.0283883 0.1
0.934918 0.0250903 0.1
0.944297 0.0217203 0.1
0.953649 0.0182786 0.1
0.962975 0.0147652 0.1
0.972273 0.0111804 0.1
0.981544 0.00752451 0.1
0.990786 0.00379763 0.1
1.01 0 0.1
1.02 0 0.1
1.03 0 0.1
[...]
CELL_DATA 14313
SCALARS rho float
LOOKUP_TABLE default
0.789436
0.82588
0.80687
0.571006
0.778213
0.823279
0.823426
0.823402
0.811606
0.816301
0.823503
0.799707
0.800817
0.64148
0.823541
0.838766
0.809893
0.808477
0.820538
0.806355
0.822159
0.81495
0.823403
0.778014
0.82289
0.815808
0.752036
0.697
0.825336
0.83163
0.823166
0.795565
0.803465
0.822863
0.805257
0.821054
0.698662
0.810006
0.82248
0.803639
0.762794
0.821804
0.574626
0.718457
0.82661
0.840656
0.821564
0.780435
0.811864
0.855534
0.694592
0.66875
0.63778
0.820971
0.827896
0.785247
0.826596
0.815784
0.811372
0.823116
0.823342
0.827311
0.795538
0.843964
0.821764
0.82369
0.857468
0.786411
0.846544
0.823533
0.799188
0.838369
0.653313
0.843159
0.745774
0.816319
0.827636
0.75653
0.708904
0.822675
0.613051
0.831972
0.838145
0.803913
0.814933
0.827943
0.823253
0.805057
0.831942
0.807822
0.782858
0.641084
0.808352
0.801654
0.745785
0.804075
0.824514
0.820061
0.804173
0.654539
0.815232
0.820586
0.823416
0.820492
0.758889
0.810116
0.803987
0.71166
0.840802
0.820443
0.814554
0.832555
0.822022
0.827977
0.804563
0.83458
0.82804
0.842247
0.781851
0.802195
0.822423
0.820157
0.863245
0.740913
0.847035
0.765869
0.798197
0.805058
0.824565
0.846582
0.820219
0.823179
0.864462
0.823291
0.831296
0.785211
0.811022
0.793805
0.826651
0.826495
0.823426
0.825344
0.803549
0.803647
0.797921
0.845168
0.806335
0.765387
0.802757
0.826508
0.801162
0.803895
0.823405
0.72438
0.828757
0.803976
0.733922
0.82949
0.822995
0.812734
0.827314
0.809528
0.694839
0.762831
0.831165
0.827312
0.722869
0.823153
0.835259
0.81838
0.706362
0.816981
0.725692
0.796702
0.818737
0.829154
0.818262
0.821695
0.829367
0.751667
0.822654
0.820284
0.781783
0.771913
0.792271
0.815276
0.823542
0.798352
0.554472
0.794931
0.764592
0.752705
0.772877
0.733486
0.823087
0.82428
0.808339
0.803831
0.816241
0.826114
0.769821
0.804062
0.835689
0.824721
0.839896
0.803578
0.817339
0.814958
0.822967
0.839664
0.806641
0.818948
0.803237
0.713018
0.823994
0.825161
0.820527
0.809836
0.840749
0.804935
0.803717
0.820101
0.81615
0.860136
0.817221
0.804083
0.826972
0.803219
0.823401
0.767047
0.688149
0.815941
0.709938
0.83426
0.803185
0.741398
0.822252
0.823948
0.824213
0.829291
0.793349
0.695526
0.761109
0.647284
0.824711
0.734591
0.803204
0.807794
0.843526
0.818037
0.603495
0.804524
0.736912
0.843671
0.803857
0.711596
0.819217
0.834232
0.824507
0.599453
0.813923
0.803803
0.808162
0.814517
0.796013
0.782145
0.816536
0.816316
0.612967
0.824562
0.823817
0.775676
0.802911
0.823506
0.783167
0.825778
0.792922
0.727011
0.80398
0.806212
0.596781
0.575066
0.763594
0.81813
0.828975
0.791875
0.823179
0.824707
0.779113
0.806815
0.80393
0.826033
0.836662
0.801615
0.808781
0.814626
0.674329
0.824616
0.724958
0.801207
0.794492
0.780317
0.841759
0.810048
0.800565
0.698992
0.692441
0.811104
0.808393
0.820579
0.804623
0.802317
0.667676
0.824771
0.823696
0.818983
0.823515
0.823042
0.803333
0.798016
0.824292
0.669522
0.81859
0.823377
0.824393
0.82312
0.775251
0.82901
0.802941
0.824313
0.823122
0.754667
0.759679
0.803583
0.803653
0.661275
0.823394
0.814743
0.80977
0.822163
0.805064
0.801466
0.736164
0.724715
0.824383
0.757721
0.765191
0.822883
0.843803
0.824209
0.804877
0.808942
0.823306
0.803922
0.826309
0.792484
0.826257
0.812551
0.821632
0.802434
0.820934
0.800694
0.823215
0.610794
0.802208
0.802837
0.814968
0.81952
0.776825
0.802484
0.823302
0.823414
0.827058
0.773001
0.819324
0.815981
0.765899
0.763006
0.813538
0.815184
0.836424
0.832542
0.824756
0.806741
0.645724
0.788395
0.632566
0.803893
0.803967
0.810431
0.824111
0.877554
0.562021
0.631585
0.844125
0.875573
0.821898
0.702842
0.805281
0.735037
0.815845
0.818283
0.718562
0.668519
0.762202
0.823116
0.659806
0.877097
0.832197
0.807759
0.809594
0.650941
0.756231
0.78983
0.826727
0.807321
0.803463
0.837302
0.823393
0.723713
0.704623
0.802955
0.807094
0.820716
0.822993
0.809701
0.823351
0.74916
0.792895
0.798204
0.803636
0.773995
0.826781
0.808823
0.823546
0.82301
0.768208
0.805923
0.804334
0.802179
0.823376
0.823949
0.81555
0.679938
0.789571
0.824914
0.813544
0.821601
0.808051
0.823001
0.808229
0.828558
0.829109
0.681114
0.859979
0.753574
0.829124
0.813261
0.745301
0.829991
0.801352
0.833097
0.579544
0.803463
0.699401
0.823405
0.810037
0.612044
0.802602
0.805225
0.798951
0.803269
0.810315
0.781082
0.823248
0.630112
0.806768
0.806831
0.802206
0.826909
0.774251
0.823391
0.820445
0.801754
0.82568
0.800479
0.803485
0.823393
0.650906
0.778216
0.747905
0.567051
0.832543
0.600475
0.80333
0.827656
0.861365
0.717798
0.756178
0.823371
0.806821
0.803609
0.802604
0.776967
0.821629
0.823416
0.800709
0.823659
0.818416
0.657714
0.823155
0.823679
0.806786
0.821544
0.636115
0.824426
0.82968
0.726429
0.790752
0.823691
0.801551
0.832687
0.836606
0.804331
0.742347
0.649539
0.8239
0.598482
0.802355
0.80363
0.775031
0.823506
0.756942
0.82255
0.807616
0.803659
0.567046
0.824131
0.834789
0.837652
0.821132
0.803872
0.803604
0.823248
0.759691
0.852589
0.841398
0.728072
0.802111
0.669048
0.781119
0.685517
0.824311
0.841396
0.802905
0.670434
0.77689
0.823947
0.83223
0.838468
0.820051
0.70682
0.572445
0.807276
0.82521
0.803954
0.818859
0.812108
0.775103
0.855549
0.824502
0.804299
0.825797
0.79978
0.74365
0.801965
0.814207
0.623361
0.701986
0.803872
0.822202
0.805198
0.600504
0.822389
0.624714
0.823412
0.771716
0.824334
0.825476
0.754552
0.815607
0.800448
0.805432
0.840303
0.842406
0.836454
0.805098
0.825616
0.60908
0.823379
0.861542
0.830578
0.836379
0.804601
0.829066
0.80213
0.844679
0.809754
0.815322
0.700822
0.67306
0.842261
0.823787
0.845413
0.73517
0.803906
0.768104
0.801025
0.810645
0.801159
0.816357
0.823677
0.830858
0.835236
0.837217
0.805902
0.750679
0.813073
0.745864
0.802828
0.828808
0.803031
0.816081
0.764649
0.805597
0.807024
0.852245
0.818915
0.80357
0.808494
0.840969
0.837364
0.803845
0.861085
0.799506
0.828503
0.697952
0.803551
0.800919
0.802715
0.83867
0.628293
0.806807
0.805884
0.681324
0.82455
0.83645
0.824056
0.80366
0.807097
0.803126
0.82535
0.802791
0.712063
0.553526
0.823841
0.815146
0.803641
0.805747
0.805042
0.804194
0.821522
0.802042
0.824027
0.608525
0.823084
0.809948
0.822966
0.847593
0.823981
0.836274
0.822825
0.801463
0.823547
0.695408
0.804199
0.855629
0.823561
0.794248
0.824216
0.65223
0.806629
0.652693
0.700348
0.701752
0.810068
0.824927
0.813109
0.555719
0.707111
0.803837
0.837804
0.757012
0.835715
0.805436
0.808689
0.80602
0.68883
0.759228
0.589176
0.803716
0.8232
0.806957
0.827175
0.683945
0.682496
0.858651
0.804125
0.82411
0.745613
0.823927
0.562457
0.829138
0.688443
0.824042
0.826194
0.803026
0.803758
0.832956
0.801836
0.804162
0.812952
0.649948
0.807569
0.681456
0.802394
0.802175
0.824026
0.816248
0.740123
0.824465
0.754909
0.803611
0.714691
0.807665
0.746869
0.685418
0.832335
0.823404
0.803059
0.741516
0.813837
0.675319
0.820992
0.803526
0.722582
0.833546
0.82555
0.677547
0.708611
0.833489
0.803906
0.740707
0.835593
0.841363
0.842614
0.823226
0.579484
0.760447
0.82667
0.828728
0.662389
0.656957
0.818114
0.823419
0.738882
0.781425
0.823435
0.815553
0.765191
0.823049
0.823904
0.803796
0.743239
0.802864
0.806129
0.821445
0.606261
0.805942
0.830081
0.5995
0.826761
0.85057
0.823499
0.68995
0.82317
0.82246
0.823221
0.801596
0.827592
0.804224
0.807203
0.805172
0.803632
0.823682
0.663126
0.819078
0.811819
0.719821
0.638333
0.788365
0.802281
0.823415
0.754138
0.669838
0.822641
0.792596
0.823432
0.829677
0.82385
0.832892
0.757584
0.639866
0.823011
0.841443
0.823497
0.69265
0.811844
0.739145
0.823491
0.821188
0.823423
0.826497
0.802047
0.823677
0.809066
0.758127
0.825089
0.82348
0.762911
0.793484
0.731821
0.655221
0.743853
0.790709
0.824749
0.822582
0.813489
0.820753
0.803624
0.803841
0.808511
0.691208
0.753412
0.82294
0.803868
0.805226
0.819307
0.639802
0.823894
0.80416
0.848606
0.8185
0.668759
0.795228
0.804411
0.847137
0.71875
0.601168
0.60382
0.651966
0.826224
0.805577
0.603523
0.642395
0.828599
0.823382
0.891814
0.805144
0.834806
0.823384
0.770102
0.821665
0.823301
0.823419
0.821553
0.823502
0.801536
0.822147
0.6921
0.825105
0.803897
0.818872
0.755779
0.826336
0.628631
0.860342
0.804186
0.83393
0.823527
0.808462
0.746444
0.826613
0.822169
0.839514
0.823246
0.822931
0.677278
0.83366
0.821643
0.823267
0.841625
0.830754
0.584179
0.800452
0.805617
0.815062
0.817839
0.804202
0.802424
0.824988
0.770522
0.807604
0.825422
0.86712
0.838169
0.635311
0.804455
0.759729
0.824169
0.767188
0.827965
0.805311
0.806902
0.823331
0.796269
0.813896
0.816357
0.823425
0.78924
0.705496
0.750846
0.724813
0.82379
0.840577
0.841327
0.750509
0.818818
0.753988
0.640198
0.82344
0.802223
0.823292
0.803882
0.666721
0.80301
0.779935
0.735795
0.822175
0.744263
0.810298
0.82529
0.864283
0.810603
0.808044
0.749688
0.823413
0.783712
0.845006
0.886544
0.801002
0.558497
0.802926
0.638086
0.774001
0.672745
0.799926
0.648977
0.824838
0.855291
0.806424
0.822088
0.828228
0.806866
0.803434
0.713598
0.827298
0.822994
0.80444
0.816034
0.793995
0.803891
0.81516
0.664514
0.825929
0.804768
0.850471
0.81828
0.805406
0.804084
0.823049
0.823185
0.817583
0.803801
0.795732
0.823392
0.802195
0.805055
0.823704
0.781672
0.596201
0.823487
0.827162
0.805076
0.719359
0.805173
0.8163
0.803673
0.724312
0.880018
0.823143
0.825414
0.823442
0.851789
0.786113
0.823387
0.795769
0.824813
0.830289
0.678825
0.823396
0.740348
0.820025
0.739543
0.803427
0.759094
0.804976
0.670212
0.820262
0.731228
0.648066
0.826502
0.677444
0.769707
0.826317
0.823395
0.785025
0.822464
0.73985
0.655071
0.833474
0.662054
0.82604
0.777753
0.802997
0.80836
0.823725
0.66794
0.805031
0.775038
0.821039
0.822267
0.833411
0.806627
0.705128
0.764374
0.679583
0.802126
0.807033
0.823415
0.82452
0.812672
0.822996
0.820835
0.681433
0.74226
0.664186
0.721952
0.824107
0.810807
0.839774
0.810147
0.824611
0.683239
0.881128
0.824951
0.833745
0.604396
0.830876
0.823366
0.846674
0.850449
0.832053
0.833192
0.828772
0.57538
0.806321
0.823676
0.703715
0.825824
0.805294
0.82337
0.808665
0.82328
0.823018
0.778687
0.711615
0.801739
0.802512
0.604929
0.824147
0.863568
0.824917
0.698288
0.825405
0.823578
0.828245
0.83994
0.663432
0.609577
0.805187
0.845463
0.806435
0.805572
0.824261
0.802356
0.81306
0.820549
0.802374
0.804604
0.805019
0.823377
0.805903
0.807028
0.802501
0.838339
0.837593
0.858163
0.823585
0.817432
0.824349
0.823627
0.823437
0.821916
0.824676
0.838985
0.809083
0.821958
0.656287
0.837472
0.684762
0.871987
0.804033
0.838331
0.80303
0.788223
0.794572
0.738753
0.824025
0.81191
0.815558
0.823797
0.779319
0.818447
0.609725
0.806626
0.823626
0.8235
0.797045
0.823224
0.629289
0.786045
0.586858
0.828477
0.800821
0.782406
0.805211
0.823779
0.823395
0.823369
0.734779
0.818452
0.823242
0.813221
0.804032
0.804211
0.74832
0.77875
0.811729
0.803998
0.723654
0.624862
0.551088
0.846438
0.806429
0.786487
0.783906
0.825344
0.803877
0.804219
0.827059
0.782244
0.757507
0.825642
0.810168
0.813603
0.842093
0.805822
0.823164
0.808723
0.601885
0.803847
0.823237
0.782312
0.827785
0.82427
0.833218
0.654507
0.698276
0.607786
0.833538
0.824741
0.755222
0.812798
0.692634
0.817883
0.812641
0.823342
0.805152
0.812717
0.602913
0.706117
0.814519
0.823782
0.794914
0.811001
0.836669
0.802612
0.804115
0.679136
0.816488
0.823405
0.805004
0.823325
0.802981
0.645306
0.818443
0.823401
0.601076
0.723754
0.802775
0.831247
0.722934
0.804388
0.795215
0.823384
0.757937
0.699277
0.821806
0.797065
0.802511
0.769575
0.581465
0.828061
0.689415
0.756165
0.727421
0.80423
0.801117
0.822854
0.686951
0.771779
0.804401
0.82483
0.6141
0.802865
0.826807
0.816191
0.584309
0.806095
0.785927
0.729795
0.728817
0.801081
0.827919
0.823622
0.818634
0.725412
0.749756
0.659247
0.839197
0.847458
0.82564
0.790086
0.868762
0.723096
0.823805
0.771547
0.793583
0.796925
0.823409
0.804274
0.822917
0.788252
0.762077
0.828421
0.800701
0.847846
0.730482
0.792416
0.805956
0.733956
0.805256
0.824374
0.601824
0.802423
0.802965
0.803028
0.829574
0.76955
0.801468
0.734603
0.823403
0.809316
0.737383
0.823396
0.825321
0.83593
0.806459
0.794419
0.80137
0.806778
0.720886
0.823426
0.804658
0.699239
0.807989
0.783242
0.837737
0.826993
0.827434
0.845466
0.852309
0.725327
0.824008
0.802595
0.789206
0.635323
0.824256
0.813517
0.823391
0.785747
0.857816
0.838358
0.784429
0.847095
0.782612
0.801097
0.776194
0.823374
0.733799
0.653661
0.849276
0.685297
0.793951
0.844481
0.823387
0.691828
0.809744
0.761139
0.804567
0.799752
0.790998
0.804466
0.804508
0.803418
0.802523
0.787818
0.823213
0.789248
0.825731
0.808477
0.73361
0.791316
0.816068
0.823417
0.806066
0.59182
0.826809
0.822483
0.822927
0.728307
0.805847
0.802796
0.8044
0.825465
0.746496
0.825508
0.809504
0.811794
0.767658
0.822699
0.813376
0.80803
0.773555
0.810624
0.822997
0.808505
0.822896
0.817053
0.806402
0.830938
0.804928
0.796176
0.816487
0.823356
0.81909
0.78904
0.716428
0.823968
0.813066
0.804751
0.750608
0.790607
0.669686
0.80366
0.574698
0.803589
0.824448
0.777276
0.840913
0.660561
0.819993
0.748634
0.821859
0.568978
0.80646
0.830911
0.823574
0.827618
0.744636
0.846949
0.596735
0.829823
0.696911
0.803339
0.661151
0.685203
0.823259
0.823428
0.754702
0.80499
0.822455
0.630315
0.828357
0.771133
0.840255
0.823448
0.816519
0.823606
0.804087
0.840632
0.812755
0.804192
0.655732
0.80357
0.849106
0.80359
0.811076
0.771853
0.807886
0.823197
0.823378
0.800624
0.744395
0.820601
0.825122
0.622472
0.804642
0.671781
0.825299
0.614258
0.823367
0.779872
0.700534
0.729955
0.783953
0.729863
0.846613
0.814904
0.80393
0.804475
0.716246
0.80297
0.796903
0.803238
0.822094
0.810606
0.726698
0.717102
0.803522
0.776342
0.555777
0.822423
0.699445
0.795668
0.688554
0.831574
0.820483
0.832839
0.816815
0.839636
0.811376
0.635203
0.831552
0.811137
0.804492
0.825142
0.823359
0.8231
0.815436
0.83261
0.82583
0.646545
0.805081
0.801117
0.823594
0.705011
0.80277
0.826176
0.765538
0.702433
0.814719
0.716739
0.743103
0.812479
0.823494
0.684023
0.846912
0.772075
0.805684
0.800448
0.821224
0.849995
0.802028
0.612131
0.824751
0.675854
0.659081
0.778618
0.770915
0.778465
0.823393
0.803706
0.824033
0.823529
0.608309
0.788643
0.834904
0.823364
0.618568
0.740079
0.673049
0.826029
0.821323
0.703697
0.804409
0.823069
0.802856
0.837567
0.643552
0.846415
0.739282
0.822813
0.823412
0.704701
0.82304
0.712708
0.798861
0.706054
0.814345
0.794349
0.658047
0.736398
0.733178
0.838889
0.820518
0.828094
0.830309
0.80364
0.80954
0.805689
0.824882
0.803913
0.716203
0.804575
0.623194
0.786217
0.807593
0.804829
0.823368
0.83215
0.803497
0.733921
0.677579
0.68808
0.799804
0.818737
0.747397
0.666825
0.762533
0.82174
0.802335
0.769323
0.805765
0.828772
0.762228
0.595142
0.695658
0.801876
0.823377
0.868395
0.817594
0.823191
0.856317
0.802856
0.802649
0.82445
0.823298
0.814893
0.734001
0.809669
0.717066
0.8666
0.788895
0.823866
0.67102
0.800546
0.563503
0.605871
0.665119
0.818
0.803855
0.819127
0.770973
0.803778
0.57371
0.792488
0.806184
0.75036
0.823958
0.8054
0.82535
0.84815
0.667654
0.821038
0.80241
0.820879
0.817525
0.823551
0.823405
0.765953
0.801013
0.799999
0.803477
0.801218
0.820966
0.849209
0.827497
0.739535
0.805162
0.685624
0.823708
0.82343
0.617114
0.771833
0.77186
0.580265
0.794204
0.803913
0.881496
0.802203
0.822671
0.767717
0.795749
0.800968
0.811403
0.785209
0.577727
0.689854
0.6958
0.783925
0.823443
0.803718
0.822833
0.791997
0.81127
0.823506
0.80195
0.856946
0.72918
0.823197
0.783581
0.572225
0.669686
0.823588
0.803937
0.805981
0.591308
0.7978
0.804084
0.674534
0.823949
0.800094
0.810681
0.824474
0.673886
0.722469
0.739888
0.823217
0.835279
0.658752
0.791611
0.705644
0.823864
0.833996
0.782475
0.783078
0.59831
0.822125
0.802688
0.73446
0.856747
0.806145
0.740878
0.7503
0.769657
0.822227
0.590395
0.797744
0.739007
0.800847
0.824766
0.710329
0.802944
0.82077
0.727696
0.813929
0.719798
0.825551
0.801934
0.759195
0.719285
0.818013
0.800688
0.82384
0.684898
0.805696
0.814864
0.822976
0.713543
0.823351
0.811111
0.837482
0.681677
0.82514
0.751152
0.823189
0.808483
0.848075
0.804059
0.827785
0.753369
0.824932
0.845023
0.834587
0.823649
0.849515
0.753369
0.852997
0.830478
0.8063
0.831236
0.806651
0.662932
0.787114
0.824071
0.753752
0.717741
0.802417
0.806765
0.702013
0.801433
0.572871
0.852236
0.723532
0.720127
0.823838
0.778297
0.814159
0.799989
0.814021
0.804176
0.82282
0.839035
0.744249
0.781002
0.618606
0.821494
0.779313
0.81709
0.805417
0.597382
0.803387
0.802797
0.818081
0.801902
0.826025
0.808622
0.690676
0.831095
0.852979
0.699671
0.755589
0.823239
0.804958
0.734773
0.816538
0.761751
0.798114
0.803576
0.806226
0.843479
0.686819
0.720876
0.801268
0.718824
0.775027
0.833669
0.566508
0.710606
0.80015
0.804624
0.803671
0.741955
0.830394
0.816918
0.803983
0.808789
0.823805
0.708625
0.683339
0.81021
0.824094
0.802189
0.878239
0.804545
0.823413
0.799672
0.819707
0.815403
0.809092
0.682594
0.815515
0.825981
0.803727
0.805902
0.802567
0.637338
0.819518
0.821406
0.823415
0.868768
0.82421
0.80244
0.652291
0.838319
0.719505
0.833918
0.808263
0.814816
0.828433
0.820566
0.823033
0.749422
0.583752
0.658871
0.823233
0.819618
0.582725
0.797067
0.824273
0.835667
0.581548
0.810513
0.823583
0.804411
0.810008
0.615814
0.823589
0.808926
0.59051
0.823283
0.824996
0.579536
0.811644
0.823221
0.777848
0.80841
0.817376
0.82104
0.802034
0.833286
0.569538
0.832945
0.816662
0.804337
0.754962
0.79358
0.822601
0.81052
0.805877
0.824395
0.80119
0.695524
0.816444
0.671808
0.823489
0.676914
0.754093
0.797814
0.730785
0.803769
0.603647
0.854758
0.823391
0.82288
0.802821
0.803663
0.803369
0.81463
0.824444
0.68556
0.733727
0.739124
0.824702
0.738418
0.680002
0.824566
0.791786
0.834601
0.821787
0.810409
0.743867
0.600423
0.799811
0.799047
0.650116
0.824049
0.823633
0.745602
0.806829
0.77717
0.645029
0.819618
0.815666
0.797013
0.631455
0.803035
0.785595
0.833976
0.823627
0.821907
0.812616
0.823541
0.702612
0.807071
0.825384
0.717683
0.647562
0.751059
0.799559
0.741516
0.823639
0.801989
0.806327
0.785186
0.87125
0.80373
0.802299
0.832886
0.863916
0.804955
0.82414
0.803788
0.825406
0.791183
0.74963
0.81289
0.804626
0.825331
0.803482
0.799964
0.848639
0.769415
0.823497
0.781456
0.805466
0.658964
0.558849
0.801775
0.803255
0.820916
0.79901
0.8067
0.823462
0.775684
0.806733
0.823446
0.790056
0.824561
0.777888
0.623239
0.805672
0.761977
0.779756
0.757148
0.765036
0.79547
0.790392
0.824027
0.789472
0.809988
0.80354
0.77518
0.82523
0.578596
0.745885
0.821148
0.823693
0.822454
0.811321
0.822905
0.817002
0.806444
0.829523
0.810248
0.785585
0.825698
0.804282
0.79955
0.79729
0.805633
0.612435
0.804094
0.793902
0.609784
0.819486
0.807879
0.806397
0.811378
0.719287
0.753941
0.829547
0.776015
0.812301
0.825687
0.71354
0.804831
0.831838
0.734558
0.800738
0.820094
0.781145
0.813192
0.840005
0.803103
0.826543
0.780662
0.805628
0.802812
0.82343
0.805084
0.801474
0.619618
0.825009
0.796449
0.807033
0.833344
0.720256
0.835872
0.826155
0.583921
0.80854
0.804791
0.805262
0.822772
0.83084
0.831849
0.805293
0.815217
0.824314
0.814196
0.803738
0.822861
0.806854
0.753779
0.732573
0.789589
0.824007
0.821778
0.784023
0.766868
0.81477
0.826638
0.811294
0.823273
0.719737
0.567204
0.748535
0.826709
0.809154
0.825651
0.849122
0.80282
0.736828
0.683994
0.803418
0.807181
0.716772
0.823515
0.703116
0.84271
0.741253
0.822705
0.897576
0.816365
0.803541
0.786829
0.811967
0.707969
0.815105
0.818199
0.793321
0.814928
0.780402
0.803412
0.810571
0.790867
0.80385
0.856915
0.779356
0.802457
0.660318
0.804939
0.706663
0.804379
0.795555
0.789853
0.7917
0.732999
0.811541
0.796604
0.850194
0.823809
0.823406
0.822975
0.89779
0.754308
0.803393
0.744946
0.803365
0.802059
0.805794
0.734109
0.803649
0.806548
0.67932
0.817889
0.759073
0.670503
0.852054
0.852786
0.762082
0.811801
0.796244
0.781512
0.749555
0.779548
0.788648
0.746651
0.804302
0.806047
0.740541
0.825088
0.805369
0.602936
0.823425
0.823995
0.821763
0.803799
0.632585
0.737409
0.806964
0.863743
0.657554
0.74044
0.812815
0.816833
0.80444
0.704678
0.734544
0.809563
0.82378
0.824831
0.843436
0.744972
0.761838
0.879075
0.807993
0.820691
0.7967
0.685496
0.673687
0.616544
0.6831
0.644304
0.776216
0.810192
0.805137
0.822821
0.815822
0.812089
0.864624
0.737119
0.831663
0.824157
0.826234
0.826026
0.824107
0.823643