# vtk DataFile Version 1.0
unstructured grid
ascii
DATASET UNSTRUCTURED_GRID
points 14760 float
-1 0 0
-1 1 0
2 0 0
2 1 0
0 0 0
1 0 0
-1 1 0.1
-1 0 0.1
0 0 0.1
1 0 0.1
2 0 0.1
2 1 0.1
-0.99 0 0
-0.98 0 0
-0.97 0 0
-0.96 0 0
-0.95 0 0
-0.94 0 0
-0.93 0 0
-0.92 0 0
-0.91 0 0
-0.9 0 0
-0.89 0 0
-0.88 0 0
-0.87 0 0
-0.86 0 0
-0.85 0 0
-0.84 0 0
-0.83 0 0
-0.82 0 0
-0.81 0 0
-0.8 0 0
-0.79 0 0
-0.78 0 0
-0.77 0 0
-0.76 0 0
-0.75 0 0
-0.74 0 0
-0.73 0 0
-0.72 0 0
-0.71 0 0
-0.7 0 0
-0.69 0 0
-0.68 0 0
-0.67 0 0
-0.66 0 0
-0.65 0 0
-0.64 0 0
-0.63 0 0
-0.62 0 0
-0.61 0 0
-0.6 0 0
-0.59 0 0
-0.58 0 0
-0.57 0 0
-0.56 0 0
-0.55 0 0
-0.54 0 0
-0.53 0 0
-0.52 0 0
-0.51 0 0
-0.5 0 0
-0.49 0 0
-0.48 0 0
-0.47 0 0
-0.46 0 0
-0.45 0 0
-0.44 0 0
-0.43 0 0
-0.42 0 0
-0.41 0 0
-0.4 0 0
-0.39 0 0
-0.38 0 0
-0.37 0 0
-0.36 0 0
-0.35 0 0
-0.34 0 0
-0.33 0 0
-0.32 0 0
-0.31 0 0
-0.3 0 0
-0.29 0 0
-0.28 0 0
-0.27 0 0
-0.26 0 0
-0.25 0 0
-0.24 0 0
-0.23 0 0
-0.22 0 0
-0.21 0 0
-0.2 0 0
-0.19 0 0
-0.18 0 0
-0.17 0 0
-0.16 0 0
-0.15 0 0
-0.14 0 0
-0.13 0 0
-0.12 0 0
-0.11 0 0
-0.1 0 0
-0.09 0 0
-0.08 0 0
-0.07 0 0
-0.06 0 0
-0.05 0 0
-0.04 0 0
-0.03 0 0
-0.02 0 0
-0.01 0 0
1.01 0 0
1.02 0 0
1.03 0 0
1.04 0 0
1.05 0 0
1.06 0 0
1.07 0 0
1.08 0 0
1.09 0 0
1.1 0 0
1.11 0 0
1.12 0 0
1.13 0 0
1.14 0 0
1.15 0 0
1.16 0 0
1.17 0 0
1.18 0 0
1.19 0 0
1.2 0 0
1.21 0 0
1.22 0 0
1.23 0 0
1.24 0 0
1.25 0 0
1.26 0 0
1.27 0 0
1.28 0 0
1.29 0 0
1.3 0 0
1.31 0 0
1.32 0 0
1.33 0 0
1.34 0 0
1.35 0 0
1.36 0 0
1.37 0 0
1.38 0 0
1.39 0 0
1.4 0 0
1.41 0 0
1.42 0 0
1.43 0 0
1.44 0 0
1.45 0 0
1.46 0 0
1.47 0 0
1.48 0 0
1.49 0 0
1.5 0 0
1.51 0 0
1.52 0 0
1.53 0 0
1.54 0 0
1.55 0 0
1.56 0 0
1.57 0 0
1.58 0 0
1.59 0 0
1.6 0 0
1.61 0 0
1.62 0 0
1.63 0 0
1.64 0 0
1.65 0 0
1.66 0 0
1.67 0 0
1.68 0 0
1.69 0 0
1.7 0 0
1.71 0 0
1.72 0 0
1.73 0 0
1.74 0 0
1.75 0 0
1.76 0 0
1.77 0 0
1.78 0 0
1.79 0 0
1.8 0 0
1.81 0 0
1.82 0 0
1.83 0 0
1.84 0 0
1.85 0 0
1.86 0 0
1.87 0 0
1.88 0 0
1.89 0 0
1.9 0 0
1.91 0 0
1.92 0 0
1.93 0 0
1.94 0 0
1.95 0 0
1.96 0 0
1.97 0 0
1.98 0 0
1.99 0 0
2 0.0100088 0
2 0.0204183 0
2 0.0312446 0
2 0.0425043 0
2 0.0542147 0
2 0.066394 0
2 0.079061 0
2 0.092235 0
2 0.105936 0
2 0.120186 0
2 0.135007 0
2 0.150421 0
2 0.166452 0
2 0.183124 0
2 0.200465 0
2 0.218499 0
2 0.237256 0
2 0.256763 0
2 0.277051 0
2 0.298152 0
2 0.320097 0
2 0.342921 0
2 0.366659 0
2 0.391347 0
2 0.417024 0
2 0.443728 0
2 0.471502 0
2 0.500387 0
2 0.530429 0
2 0.561674 0
2 0.594169 0
2 0.627966 0
2 0.663115 0
2 0.699672 0
2 0.737692 0
2 0.777235 0
2 0.818361 0
2 0.861133 0
2 0.905617 0
2 0.951882 0
1.95 1 0
1.9 1 0
1.85 1 0
1.8 1 0
1.75 1 0
1.7 1 0
1.65 1 0
1.6 1 0
1.55 1 0
1.5 1 0
1.45 1 0
1.4 1 0
1.35 1 0
1.3 1 0
1.25 1 0
1.2 1 0
1.15 1 0
1.1 1 0
1.05 1 0
1 1 0
0.95 1 0
0.9 1 0
0.85 1 0
0.8 1 0
0.75 1 0
0.7 1 0
0.65 1 0
0.6 1 0
0.55 1 0
0.5 1 0
0.45 1 0
0.4 1 0
0.35 1 0
0.3 1 0
0.25 1 0
0.2 1 0
0.15 1 0
0.1 1 0
0.05 1 0
3.69793e-12 1 0
-0.05 1 0
-0.1 1 0
-0.15 1 0
-0.2 1 0
-0.25 1 0
-0.3 1 0
-0.35 1 0
-0.4 1 0
-0.45 1 0
-0.5 1 0
-0.55 1 0
-0.6 1 0
-0.65 1 0
-0.7 1 0
-0.75 1 0
-0.8 1 0
-0.85 1 0
-0.9 1 0
-0.95 1 0
-1 0.951882 0
-1 0.905617 0
-1 0.861133 0
-1 0.818361 0
-1 0.777235 0
-1 0.737692 0
-1 0.699672 0
-1 0.663115 0
-1 0.627966 0
-1 0.594169 0
-1 0.561674 0
-1 0.530429 0
-1 0.500387 0
-1 0.471502 0
-1 0.443728 0
-1 0.417024 0
-1 0.391347 0
-1 0.366659 0
-1 0.342921 0
-1 0.320097 0
-1 0.298152 0
-1 0.277051 0
-1 0.256763 0
-1 0.237256 0
-1 0.218499 0
-1 0.200465 0
-1 0.183124 0
-1 0.166452 0
-1 0.150421 0
-1 0.135007 0
-1 0.120186 0
-1 0.105936 0
-1 0.092235 0
-1 0.079061 0
-1 0.066394 0
-1 0.0542147 0
-1 0.0425043 0
-1 0.0312446 0
-1 0.0204183 0
-1 0.0100088 0
0.00921362 0.00379763 0
0.0184561 0.00752451 0
0.0277268 0.0111804 0
0.0370253 0.0147652 0
0.0463511 0.0182786 0
0.0557034 0.0217203 0
0.0650819 0.0250903 0
0.074486 0.0283883 0
0.083915 0.0316141 0
0.0933685 0.0347675 0
0.102846 0.0378484 0
0.112347 0.0408565 0
0.12187 0.0437917 0
0.131416 0.0466538 0
0.140983 0.0494427 0
0.150572 0.0521581 0
0.160181 0.0547999 0
0.16981 0.0573681 0
0.179458 0.0598623 0
0.189125 0.0622825 0
0.198811 0.0646285 0
0.208514 0.0669001 0
0.218234 0.0690974 0
0.227971 0.07122 0
0.237724 0.073268 0
0.247493 0.0752411 0
0.257276 0.0771393 0
0.267073 0.0789625 0
0.276884 0.0807105 0
0.286708 0.0823832 0
0.296545 0.0839806 0
0.306394 0.0855025 0
0.316254 0.0869488 0
0.326125 0.0883196 0
0.336006 0.0896146 0
0.345896 0.0908339 0
0.355796 0.0919773 0
0.365704 0.0930447 0
0.375621 0.0940362 0
0.385544 0.0949517 0
0.395474 0.095791 0
0.40541 0.0965542 0
0.415352 0.0972412 0
0.425299 0.097852 0
0.43525 0.0983865 0
0.445205 0.0988447 0
0.455164 0.0992266 0
0.465125 0.0995321 0
0.475088 0.0997613 0
0.485052 0.0999141 0
0.495017 0.0999904 0
0.504983 0.0999904 0
0.514948 0.0999141 0
0.524912 0.0997613 0
0.534875 0.0995321 0
0.544836 0.0992266 0
0.554795 0.0988447 0
0.56475 0.0983865 0
0.574701 0.097852 0
0.584648 0.0972412 0
0.59459 0.0965542 0
0.604526 0.095791 0
0.614456 0.0949517 0
0.624379 0.0940362 0
0.634296 0.0930447 0
0.644204 0.0919773 0
0.654104 0.0908339 0
0.663994 0.0896146 0
0.673875 0.0883196 0
0.683746 0.0869488 0
0.693606 0.0855025 0
0.703455 0.0839806 0
0.713292 0.0823832 0
0.723116 0.0807105 0
0.732927 0.0789625 0
0.742724 0.0771393 0
0.752508 0.0752411 0
0.762276 0.073268 0
0.772029 0.07122 0
0.781766 0.0690974 0
0.791486 0.0669001 0
0.801189 0.0646285 0
0.810875 0.0622825 0
0.820542 0.0598623 0
0.83019 0.0573681 0
0.839819 0.0547999 0
0.849428 0.0521581 0
0.859017 0.0494427 0
0.868584 0.0466538 0
0.87813 0.0437917 0
0.887653 0.0408565 0
0.897154 0.0378484 0
0.906631 0.0347675 0
0.916085 0.0316141 0
0.925514 0.0283883 0
0.934918 0.0250903 0
0.944297 0.0217203 0
0.953649 0.0182786 0
0.962975 0.0147652 0
0.972273 0.0111804 0
0.981544 0.00752451 0
0.990786 0.00379763 0
-1 0.951882 0.1
-1 0.905617 0.1
-1 0.861133 0.1
-1 0.818361 0.1
-1 0.777235 0.1
-1 0.737692 0.1
-1 0.699672 0.1
-1 0.663115 0.1
-1 0.627966 0.1
-1 0.594169 0.1
-1 0.561674 0.1
-1 0.530429 0.1
-1 0.500387 0.1
-1 0.471502 0.1
-1 0.443728 0.1
-1 0.417024 0.1
-1 0.391347 0.1
-1 0.366659 0.1
-1 0.342921 0.1
-1 0.320097 0.1
-1 0.298152 0.1
-1 0.277051 0.1
-1 0.256763 0.1
-1 0.237256 0.1
-1 0.218499 0.1
-1 0.200465 0.1
-1 0.183124 0.1
-1 0.166452 0.1
-1 0.150421 0.1
-1 0.135007 0.1
-1 0.120186 0.1
-1 0.105936 0.1
-1 0.092235 0.1
-1 0.079061 0.1
-1 0.066394 0.1
-1 0.0542147 0.1
-1 0.0425043 0.1
-1 0.0312446 0.1
-1 0.0204183 0.1
-1 0.0100088 0.1
-0.99 0 0.1
-0.98 0 0.1
-0.97 0 0.1
-0.96 0 0.1
-0.95 0 0.1
-0.94 0 0.1
-0.93 0 0.1
-0.92 0 0.1
-0.91 0 0.1
-0.9 0 0.1
-0.89 0 0.1
-0.88 0 0.1
-0.87 0 0.1
-0.86 0 0.1
-0.85 0 0.1
-0.84 0 0.1
-0.83 0 0.1
-0.82 0 0.1
-0.81 0 0.1
-0.8 0 0.1
-0.79 0 0.1
-0.78 0 0.1
-0.77 0 0.1
-0.76 0 0.1
-0.75 0 0.1
-0.74 0 0.1
-0.73 0 0.1
-0.72 0 0.1
-0.71 0 0.1
-0.7 0 0.1
-0.69 0 0.1
-0.68 0 0.1
-0.67 0 0.1
-0.66 0 0.1
-0.65 0 0.1
-0.64 0 0.1
-0.63 0 0.1
-0.62 0 0.1
-0.61 0 0.1
-0.6 0 0.1
-0.59 0 0.1
-0.58 0 0.1
-0.57 0 0.1
-0.56 0 0.1
-0.55 0 0.1
-0.54 0 0.1
-0.53 0 0.1
-0.52 0 0.1
-0.51 0 0.1
-0.5 0 0.1
-0.49 0 0.1
-0.48 0 0.1
-0.47 0 0.1
-0.46 0 0.1
-0.45 0 0.1
-0.44 0 0.1
-0.43 0 0.1
-0.42 0 0.1
-0.41 0 0.1
-0.4 0 0.1
-0.39 0 0.1
-0.38 0 0.1
-0.37 0 0.1
-0.36 0 0.1
-0.35 0 0.1
-0.34 0 0.1
-0.33 0 0.1
-0.32 0 0.1
-0.31 0 0.1
-0.3 0 0.1
-0.29 0 0.1
-0.28 0 0.1
-0.27 0 0.1
-0.26 0 0.1
-0.25 0 0.1
-0.24 0 0.1
-0.23 0 0.1
-0.22 0 0.1
-0.21 0 0.1
-0.2 0 0.1
-0.19 0 0.1
-0.18 0 0.1
-0.17 0 0.1
-0.16 0 0.1
-0.15 0 0.1
-0.14 0 0.1
-0.13 0 0.1
-0.12 0 0.1
-0.11 0 0.1
-0.1 0 0.1
-0.09 0 0.1
-0.08 0 0.1
-0.07 0 0.1
-0.06 0 0.1
-0.05 0 0.1
-0.04 0 0.1
-0.03 0 0.1
-0.02 0 0.1
-0.01 0 0.1
0.00921362 0.00379763 0.1
0.0184561 0.00752451 0.1
0.0277268 0.0111804 0.1
0.0370253 0.0147652 0.1
0.0463511 0.0182786 0.1
0.0557034 0.0217203 0.1
0.0650819 0.0250903 0.1
0.074486 0.0283883 0.1
0.083915 0.0316141 0.1
0.0933685 0.0347675 0.1
0.102846 0.0378484 0.1
0.112347 0.0408565 0.1
0.12187 0.0437917 0.1
0.131416 0.0466538 0.1
0.140983 0.0494427 0.1
0.150572 0.0521581 0.1
0.160181 0.0547999 0.1
0.16981 0.0573681 0.1
0.179458 0.0598623 0.1
0.189125 0.0622825 0.1
0.198811 0.0646285 0.1
0.208514 0.0669001 0.1
0.218234 0.0690974 0.1
0.227971 0.07122 0.1
0.237724 0.073268 0.1
0.247493 0.0752411 0.1
0.257276 0.0771393 0.1
0.267073 0.0789625 0.1
0.276884 0.0807105 0.1
0.286708 0.0823832 0.1
0.296545 0.0839806 0.1
0.306394 0.0855025 0.1
0.316254 0.0869488 0.1
0.326125 0.0883196 0.1
0.336006 0.0896146 0.1
0.345896 0.0908339 0.1
0.355796 0.0919773 0.1
0.365704 0.0930447 0.1
0.375621 0.0940362 0.1
0.385544 0.0949517 0.1
0.395474 0.095791 0.1
0.40541 0.0965542 0.1
0.415352 0.0972412 0.1
0.425299 0.097852 0.1
0.43525 0.0983865 0.1
0.445205 0.0988447 0.1
0.455164 0.0992266 0.1
0.465125 0.0995321 0.1
0.475088 0.0997613 0.1
0.485052 0.0999141 0.1
0.495017 0.0999904 0.1
0.504983 0.0999904 0.1
0.514948 0.0999141 0.1
0.524912 0.0997613 0.1
0.534875 0.0995321 0.1
0.544836 0.0992266 0.1
0.554795 0.0988447 0.1
0.56475 0.0983865 0.1
0.574701 0.097852 0.1
0.584648 0.0972412 0.1
0.59459 0.0965542 0.1
0.604526 0.095791 0.1
0.614456 0.0949517 0.1
0.624379 0.0940362 0.1
0.634296 0.0930447 0.1
0.644204 0.0919773 0.1
0.654104 0.0908339 0.1
0.663994 0.0896146 0.1
0.673875 0.0883196 0.1
0.683746 0.0869488 0.1
0.693606 0.0855025 0.1
0.703455 0.0839806 0.1
0.713292 0.0823832 0.1
0.723116 0.0807105 0.1
0.732927 0.0789625 0.1
0.742724 0.0771393 0.1
0.752508 0.0752411 0.1
0.762276 0.073268 0.1
0.772029 0.07122 0.1
0.781766 0.0690974 0.1
0.791486 0.0669001 0.1
0.801189 0.0646285 0.1
0.810875 0.0622825 0.1
0.820542 0.0598623 0.1
0.83019 0.0573681 0.1
0.839819 0.0547999 0.1
0.849428 0.0521581 0.1
0.859017 0.0494427 0.1
0.868584 0.0466538 0.1
0.87813 0.0437917 0.1
0.887653 0.0408565 0.1
0.897154 0.0378484 0.1
0.906631 0.0347675 0.1
0.916085 0.0316141 0.1
0.925514 0.0283883 0.1
0.934918 0.0250903 0.1
0.944297 0.0217203 0.1
0.953649 0.0182786 0.1
0.962975 0.0147652 0.1
0.972273 0.0111804 0.1
0.981544 0.00752451 0.1
0.990786 0.00379763 0.1
1.01 0 0.1
1.02 0 0.1
1.03 0 0.1
[...]
CELL_DATA 14313
SCALARS rho float
LOOKUP_TABLE default
0.781296
0.824168
0.80588
0.537427
0.76623
0.811724
0.812395
0.81228
0.810997
0.815111
0.81196
0.798864
0.796956
0.517116
0.812765
0.831836
0.80875
0.807702
0.809981
0.805336
0.810627
0.813912
0.812327
0.76597
0.811957
0.814614
0.742355
0.709793
0.82369
0.824285
0.811821
0.794466
0.799457
0.811927
0.804661
0.810578
0.679634
0.808888
0.811513
0.80234
0.752484
0.810295
0.541632
0.701914
0.817535
0.835672
0.810779
0.777385
0.804369
0.850919
0.675332
0.653141
0.589032
0.81049
0.819586
0.782632
0.817521
0.814668
0.81079
0.812235
0.81183
0.818316
0.794443
0.83916
0.810255
0.813213
0.85266
0.783866
0.840505
0.812757
0.798298
0.831399
0.486933
0.837151
0.725797
0.806868
0.824544
0.747041
0.69636
0.811298
0.591793
0.824638
0.833086
0.803466
0.805479
0.819199
0.811705
0.804445
0.82652
0.806985
0.779843
0.522383
0.807288
0.797851
0.725733
0.803828
0.814545
0.808835
0.80321
0.488551
0.806963
0.809543
0.812362
0.814169
0.748361
0.809281
0.802612
0.699479
0.834391
0.809896
0.813844
0.824795
0.812
0.81923
0.804156
0.827333
0.819736
0.836163
0.778672
0.798686
0.811473
0.808889
0.859386
0.720621
0.843307
0.753318
0.789502
0.804444
0.814554
0.842819
0.809345
0.811856
0.860687
0.812152
0.823176
0.782598
0.806898
0.792222
0.817571
0.817226
0.812395
0.816667
0.803385
0.803429
0.796522
0.838977
0.80594
0.760644
0.795474
0.817253
0.797148
0.803529
0.81233
0.708904
0.821117
0.803715
0.723019
0.821005
0.811947
0.811848
0.818333
0.808701
0.646163
0.757433
0.823019
0.82433
0.713837
0.812549
0.827942
0.815362
0.68854
0.81621
0.712873
0.787853
0.808833
0.826013
0.808037
0.815391
0.820855
0.741461
0.811261
0.809413
0.773439
0.77185
0.790478
0.810962
0.812749
0.796972
0.496259
0.787179
0.757432
0.742641
0.770203
0.713015
0.812208
0.81484
0.807243
0.803379
0.806015
0.816724
0.760038
0.80288
0.828417
0.814768
0.833382
0.80334
0.81655
0.814213
0.811898
0.834528
0.803947
0.811124
0.795909
0.700837
0.813974
0.820597
0.809489
0.807119
0.834457
0.802854
0.802609
0.819196
0.805927
0.85528
0.809545
0.803102
0.817854
0.802464
0.812281
0.757175
0.635264
0.815041
0.697411
0.826788
0.802374
0.721132
0.811887
0.813945
0.814792
0.826186
0.79167
0.710511
0.747585
0.594837
0.81494
0.723733
0.799235
0.807086
0.837656
0.815021
0.574938
0.804031
0.728585
0.83727
0.801163
0.6946
0.811309
0.826976
0.814517
0.556755
0.813248
0.801107
0.798848
0.805968
0.788338
0.773823
0.815708
0.815524
0.529118
0.814551
0.813698
0.77211
0.802033
0.811938
0.780474
0.817198
0.782961
0.709032
0.802802
0.805815
0.567333
0.543291
0.756181
0.807889
0.820375
0.790052
0.811585
0.814742
0.776035
0.80593
0.803487
0.816616
0.829408
0.793096
0.808291
0.811481
0.631305
0.818857
0.699264
0.797201
0.793269
0.77756
0.835559
0.809318
0.796581
0.676187
0.667963
0.803562
0.805639
0.819614
0.804224
0.798332
0.652004
0.81505
0.82206
0.81809
0.811961
0.812809
0.799376
0.7909
0.814106
0.569688
0.807884
0.812149
0.814351
0.81252
0.765243
0.821478
0.801499
0.814144
0.812999
0.753868
0.752394
0.803401
0.803483
0.524866
0.812374
0.81188
0.807071
0.811749
0.803304
0.800943
0.728011
0.711873
0.814321
0.748322
0.757926
0.818403
0.837422
0.814126
0.802148
0.808484
0.812193
0.803448
0.816984
0.782498
0.816915
0.811769
0.810668
0.795074
0.810378
0.792097
0.811768
0.589598
0.79952
0.800366
0.811858
0.813429
0.767556
0.801597
0.812139
0.81236
0.817967
0.770213
0.818266
0.808315
0.752472
0.761691
0.812868
0.805751
0.82913
0.824675
0.823152
0.804272
0.594027
0.778953
0.600199
0.803377
0.802917
0.800728
0.814212
0.874006
0.52593
0.59333
0.838269
0.871967
0.811795
0.690086
0.80194
0.716063
0.806788
0.815692
0.706943
0.650801
0.751073
0.812866
0.47586
0.873537
0.824325
0.798443
0.808771
0.478692
0.739594
0.781689
0.817534
0.804614
0.800524
0.830187
0.81225
0.705474
0.684837
0.801541
0.806055
0.809236
0.811519
0.808786
0.81184
0.735489
0.791166
0.79718
0.802498
0.764017
0.817608
0.807872
0.812797
0.811556
0.755062
0.805599
0.804073
0.793197
0.812072
0.81565
0.806894
0.657146
0.787442
0.817455
0.812824
0.812209
0.807347
0.812647
0.804149
0.82112
0.821472
0.613466
0.85512
0.743992
0.820557
0.804905
0.746996
0.824466
0.80089
0.825415
0.548309
0.799431
0.679042
0.811918
0.809214
0.521738
0.799907
0.804625
0.798001
0.802075
0.800612
0.772214
0.811779
0.592345
0.805707
0.806086
0.799187
0.818272
0.76491
0.811914
0.809284
0.797836
0.816162
0.796456
0.802848
0.812271
0.634069
0.769242
0.733873
0.490052
0.82468
0.568068
0.802608
0.818765
0.856586
0.702893
0.739537
0.812069
0.806094
0.800886
0.793662
0.765867
0.810845
0.812337
0.797078
0.813054
0.816383
0.47172
0.812302
0.8132
0.806332
0.810033
0.604122
0.815133
0.821491
0.705453
0.788764
0.813109
0.801031
0.828129
0.831299
0.804078
0.742448
0.472943
0.81381
0.570958
0.79871
0.803323
0.774704
0.811943
0.750383
0.811238
0.806573
0.803356
0.485799
0.814207
0.827383
0.830531
0.814733
0.803474
0.803219
0.812331
0.758509
0.847303
0.8368
0.70914
0.798587
0.653327
0.778011
0.667467
0.816032
0.836053
0.7989
0.637656
0.76576
0.813612
0.824397
0.832552
0.813606
0.670136
0.5375
0.804565
0.815855
0.801291
0.815773
0.804695
0.771595
0.851084
0.81518
0.80404
0.816703
0.799001
0.744026
0.797952
0.811335
0.596475
0.689086
0.80331
0.810684
0.804802
0.575001
0.811528
0.604738
0.812341
0.767553
0.816851
0.816257
0.753535
0.80651
0.79236
0.805146
0.836825
0.837119
0.83128
0.804779
0.816078
0.579386
0.812376
0.856764
0.825058
0.829243
0.804196
0.820735
0.79929
0.839796
0.808748
0.814377
0.672484
0.630375
0.835704
0.813309
0.84065
0.715785
0.801186
0.763447
0.797168
0.809567
0.793113
0.807002
0.813024
0.822651
0.828068
0.830035
0.80541
0.750127
0.804065
0.729285
0.793154
0.821479
0.800901
0.81503
0.758208
0.805057
0.804321
0.846955
0.809032
0.803408
0.805987
0.834262
0.831322
0.803585
0.856283
0.795922
0.82002
0.661424
0.803161
0.800238
0.798778
0.831681
0.608725
0.806329
0.80555
0.658455
0.81452
0.829299
0.81379
0.803381
0.80603
0.802498
0.816026
0.798851
0.72055
0.513445
0.813339
0.805592
0.801779
0.804502
0.802964
0.803679
0.81067
0.798042
0.813667
0.583195
0.812761
0.809402
0.81183
0.842327
0.813664
0.834193
0.811347
0.79761
0.812735
0.682358
0.803725
0.850172
0.812768
0.793005
0.814134
0.633847
0.805454
0.566162
0.662102
0.673284
0.809549
0.815455
0.81243
0.497065
0.694423
0.803466
0.830747
0.747305
0.831311
0.805157
0.804687
0.796684
0.69414
0.75123
0.547173
0.802757
0.811615
0.80425
0.820835
0.66981
0.620635
0.853941
0.801502
0.813982
0.728944
0.813496
0.526267
0.820791
0.703181
0.813789
0.817473
0.801662
0.802112
0.825132
0.794843
0.803599
0.803858
0.631258
0.806583
0.653059
0.79875
0.798181
0.813676
0.815323
0.729074
0.815352
0.7558
0.803154
0.721504
0.804953
0.745962
0.671445
0.824505
0.812349
0.799073
0.726308
0.811342
0.658349
0.810872
0.802914
0.728409
0.825824
0.816313
0.637334
0.695988
0.825751
0.803655
0.725563
0.833641
0.834699
0.836091
0.811705
0.548105
0.75102
0.820991
0.820279
0.520878
0.639958
0.815565
0.812409
0.721736
0.77837
0.811997
0.807032
0.757917
0.812135
0.813454
0.803571
0.728668
0.802231
0.796873
0.812046
0.576827
0.805557
0.821744
0.574185
0.818121
0.845294
0.811962
0.676559
0.811692
0.811575
0.811799
0.801159
0.818676
0.803241
0.806682
0.804853
0.80331
0.813466
0.484924
0.809852
0.809662
0.691773
0.603067
0.786078
0.798296
0.812039
0.753271
0.563874
0.811384
0.783467
0.81201
0.821462
0.813445
0.825056
0.748288
0.590183
0.811482
0.839037
0.811958
0.709503
0.803445
0.727262
0.8131
0.811034
0.811867
0.817315
0.801247
0.813023
0.808331
0.757548
0.816201
0.812584
0.751725
0.791887
0.710728
0.55827
0.733492
0.781525
0.815778
0.811272
0.810611
0.810539
0.803295
0.795346
0.808062
0.707442
0.753411
0.811539
0.803422
0.804824
0.818333
0.604049
0.813515
0.803892
0.843517
0.807802
0.63621
0.793675
0.803805
0.842444
0.69063
0.561739
0.576928
0.63517
0.81757
0.804493
0.560245
0.585251
0.819911
0.812139
0.889276
0.804801
0.829416
0.812382
0.769436
0.810755
0.812547
0.81203
0.810589
0.811963
0.797968
0.81213
0.640661
0.815681
0.803628
0.809598
0.756679
0.817114
0.610875
0.855387
0.803927
0.82697
0.811957
0.807995
0.748094
0.822216
0.811878
0.837184
0.811746
0.812471
0.641101
0.826727
0.810099
0.812336
0.836574
0.822526
0.553708
0.796415
0.802725
0.810884
0.81694
0.803936
0.800166
0.815163
0.765064
0.80491
0.815808
0.863435
0.831113
0.586659
0.79602
0.754062
0.813983
0.761471
0.819348
0.804831
0.806383
0.812189
0.789099
0.805575
0.815458
0.821813
0.78733
0.668317
0.733717
0.697746
0.814084
0.835845
0.83778
0.733432
0.808809
0.753937
0.609561
0.811984
0.799418
0.811745
0.803573
0.630733
0.802213
0.776479
0.736712
0.810713
0.744639
0.80755
0.816407
0.859715
0.809623
0.807082
0.739932
0.812443
0.775834
0.839353
0.883735
0.796972
0.520414
0.79963
0.607527
0.769253
0.657212
0.799152
0.494493
0.814946
0.849716
0.805925
0.810568
0.819657
0.802794
0.803252
0.696587
0.822895
0.811886
0.804147
0.806564
0.792425
0.803557
0.806778
0.628304
0.81648
0.801966
0.845141
0.807944
0.804362
0.80144
0.812924
0.813038
0.807501
0.803531
0.787496
0.812102
0.795247
0.80169
0.813211
0.771739
0.566979
0.812611
0.818103
0.803972
0.724652
0.801129
0.807666
0.803481
0.698167
0.872995
0.811558
0.816671
0.811986
0.847671
0.778133
0.812058
0.78759
0.815786
0.821989
0.663164
0.812095
0.728531
0.818987
0.71811
0.799425
0.751137
0.802469
0.571021
0.809153
0.735104
0.476197
0.820126
0.661762
0.769067
0.817171
0.812252
0.776504
0.811192
0.718621
0.638055
0.826118
0.698128
0.816648
0.767311
0.801593
0.807924
0.813206
0.652162
0.804307
0.774855
0.809528
0.812007
0.828943
0.806109
0.687463
0.755418
0.651277
0.798128
0.802966
0.811893
0.815352
0.811888
0.811468
0.809309
0.663382
0.731234
0.487482
0.696301
0.813826
0.808061
0.832923
0.809401
0.814633
0.710207
0.873938
0.815105
0.826138
0.571377
0.822824
0.81211
0.840636
0.845508
0.826517
0.829975
0.820123
0.540353
0.805725
0.814864
0.716093
0.816704
0.80126
0.812045
0.807931
0.812533
0.812599
0.767119
0.721322
0.797949
0.800292
0.571598
0.813949
0.858976
0.815245
0.65859
0.822435
0.813053
0.819471
0.83513
0.686902
0.486333
0.804842
0.839805
0.806059
0.803876
0.814145
0.801559
0.812411
0.809448
0.799907
0.80424
0.80468
0.812399
0.805551
0.806157
0.798534
0.836058
0.830631
0.853171
0.812822
0.807337
0.814394
0.81291
0.811998
0.810947
0.815513
0.833936
0.808597
0.811032
0.600587
0.830477
0.71105
0.868141
0.803616
0.833233
0.798998
0.786068
0.785667
0.740039
0.821109
0.810927
0.811456
0.813311
0.775809
0.807803
0.584193
0.806067
0.81292
0.813076
0.79567
0.811986
0.611005
0.78347
0.558184
0.820719
0.796856
0.7745
0.801852
0.813604
0.812356
0.81239
0.737941
0.808202
0.811844
0.810315
0.803645
0.803812
0.747302
0.767237
0.809235
0.803723
0.69619
0.597803
0.489631
0.840988
0.80606
0.778554
0.781188
0.824229
0.803571
0.80396
0.817967
0.779211
0.756999
0.816086
0.807437
0.811104
0.837172
0.804823
0.81166
0.808247
0.483348
0.803439
0.811815
0.773687
0.819355
0.814139
0.825538
0.599305
0.710363
0.572896
0.828225
0.815541
0.743253
0.811821
0.676689
0.813681
0.810603
0.811813
0.803077
0.811823
0.576828
0.686299
0.806088
0.813229
0.793689
0.80124
0.830994
0.798659
0.802995
0.642838
0.807727
0.811875
0.804271
0.812185
0.802738
0.616874
0.814219
0.812301
0.572361
0.697005
0.793088
0.828114
0.69739
0.803995
0.79363
0.812057
0.756554
0.684889
0.810356
0.795893
0.799278
0.766329
0.540516
0.820186
0.673454
0.747623
0.731332
0.803968
0.797274
0.811376
0.659997
0.767542
0.803967
0.814924
0.592541
0.798869
0.82573
0.80714
0.539033
0.805593
0.7834
0.707016
0.705741
0.800393
0.819062
0.812933
0.808607
0.699391
0.739604
0.641385
0.832271
0.842856
0.816837
0.788151
0.865192
0.696715
0.813279
0.766723
0.790205
0.795519
0.81189
0.803983
0.811515
0.787078
0.755212
0.819689
0.796705
0.842088
0.719296
0.791383
0.805515
0.723215
0.803206
0.814419
0.575895
0.801942
0.798937
0.802792
0.82113
0.764238
0.800158
0.722582
0.812069
0.808825
0.725163
0.812071
0.816152
0.828603
0.805581
0.787087
0.797617
0.805611
0.726563
0.812384
0.80114
0.677492
0.806882
0.780259
0.831855
0.820844
0.818948
0.839262
0.848198
0.699006
0.813656
0.795509
0.787294
0.617477
0.816901
0.803613
0.812154
0.776124
0.853436
0.832764
0.78179
0.841977
0.77977
0.800633
0.77194
0.812146
0.721658
0.635742
0.844169
0.660916
0.792806
0.839693
0.812366
0.6711
0.809231
0.751867
0.803965
0.798999
0.781308
0.804154
0.801038
0.802792
0.80189
0.785599
0.811953
0.781397
0.816206
0.807461
0.712601
0.783826
0.815137
0.812388
0.805484
0.56397
0.825079
0.812806
0.811979
0.703337
0.804764
0.801087
0.801286
0.815841
0.746208
0.815924
0.80054
0.804553
0.755179
0.811415
0.812735
0.805893
0.768981
0.807884
0.812924
0.80804
0.815791
0.808297
0.806062
0.822887
0.804597
0.788727
0.80619
0.812121
0.818143
0.778708
0.703512
0.813714
0.812171
0.800729
0.742426
0.788796
0.654038
0.803389
0.540131
0.803167
0.814362
0.77488
0.834556
0.515086
0.809416
0.738417
0.81041
0.534173
0.804341
0.827798
0.813266
0.818682
0.734228
0.8409
0.553507
0.823504
0.702417
0.799537
0.477283
0.669828
0.812501
0.811988
0.741705
0.80096
0.820844
0.612002
0.821964
0.770914
0.833457
0.811993
0.814109
0.813084
0.803825
0.836779
0.810647
0.803757
0.475907
0.803108
0.843458
0.802224
0.801316
0.767568
0.805396
0.811934
0.812089
0.796574
0.734287
0.810382
0.815446
0.602961
0.804161
0.536448
0.815608
0.53944
0.811933
0.770369
0.68249
0.733489
0.783086
0.713008
0.841489
0.813699
0.796866
0.80397
0.703309
0.802555
0.789433
0.802442
0.814941
0.801693
0.731449
0.697852
0.80059
0.772269
0.518856
0.81115
0.663165
0.794097
0.705656
0.825006
0.809385
0.825014
0.810175
0.837149
0.80723
0.579857
0.829203
0.806987
0.801528
0.815385
0.811925
0.812547
0.814565
0.825092
0.816344
0.618004
0.804746
0.800655
0.812845
0.692153
0.802311
0.823222
0.756356
0.688545
0.807493
0.688278
0.731658
0.810026
0.81266
0.668511
0.841446
0.766924
0.80539
0.796422
0.809739
0.844466
0.801058
0.538705
0.814844
0.708302
0.518824
0.77818
0.758094
0.769512
0.812141
0.803516
0.81635
0.811955
0.585761
0.787493
0.831212
0.812039
0.591141
0.721461
0.634795
0.816613
0.810411
0.690905
0.803981
0.812117
0.799307
0.834187
0.606006
0.84031
0.740161
0.811911
0.81242
0.669097
0.812485
0.720992
0.791797
0.716522
0.811862
0.784422
0.633867
0.724142
0.712304
0.833117
0.809357
0.819281
0.821993
0.803343
0.808508
0.802797
0.817603
0.803252
0.686993
0.803431
0.603447
0.776691
0.807174
0.802294
0.812113
0.824225
0.803327
0.716865
0.710528
0.667159
0.790259
0.816698
0.749073
0.579188
0.751458
0.810196
0.801852
0.760175
0.803571
0.823121
0.753206
0.568737
0.701962
0.798597
0.812112
0.864273
0.814578
0.811715
0.851797
0.799552
0.801846
0.814359
0.812211
0.80532
0.717586
0.809142
0.695412
0.862211
0.778641
0.813385
0.573766
0.796478
0.529096
0.58318
0.584762
0.807882
0.80363
0.809237
0.758115
0.803553
0.532156
0.782194
0.802897
0.734515
0.814298
0.801614
0.8158
0.842864
0.510331
0.812009
0.80208
0.809544
0.816718
0.812831
0.812298
0.75411
0.797136
0.798786
0.803231
0.797553
0.810687
0.845277
0.818526
0.723662
0.804675
0.606897
0.813162
0.812009
0.586493
0.766828
0.766895
0.53621
0.784243
0.803638
0.878248
0.798349
0.813073
0.755171
0.794411
0.797029
0.80922
0.782665
0.541878
0.711286
0.680375
0.781036
0.814623
0.802884
0.821808
0.790223
0.801799
0.812757
0.798066
0.852131
0.704496
0.811824
0.780662
0.530847
0.515596
0.812869
0.803541
0.805439
0.560308
0.79698
0.80374
0.659077
0.813695
0.790591
0.806533
0.814782
0.532719
0.724568
0.718727
0.812421
0.831987
0.629866
0.789819
0.717113
0.813568
0.827233
0.779418
0.77313
0.53505
0.811494
0.802406
0.723622
0.851987
0.805813
0.722644
0.739827
0.763852
0.810769
0.563356
0.796694
0.737953
0.800323
0.821827
0.720256
0.799161
0.811732
0.716483
0.813002
0.705932
0.815959
0.798191
0.759666
0.689783
0.808886
0.799999
0.81334
0.669529
0.805369
0.804835
0.811561
0.699416
0.812116
0.80837
0.831732
0.648218
0.815466
0.74073
0.811905
0.805702
0.84218
0.803682
0.818893
0.749016
0.815158
0.838769
0.832795
0.816427
0.845566
0.752307
0.84772
0.825975
0.803825
0.825727
0.805601
0.646569
0.778052
0.813899
0.746782
0.69511
0.798442
0.804064
0.67973
0.797423
0.537876
0.84843
0.695999
0.706183
0.813542
0.774456
0.806875
0.798928
0.806937
0.803886
0.812
0.835609
0.729959
0.772123
0.588141
0.809985
0.777013
0.810889
0.805112
0.569965
0.802904
0.802529
0.80747
0.798622
0.816708
0.80815
0.709899
0.823105
0.847888
0.684382
0.743595
0.812154
0.800914
0.712276
0.814267
0.754322
0.796781
0.802899
0.80536
0.837126
0.668672
0.723315
0.800799
0.701952
0.772637
0.83213
0.531913
0.69121
0.79958
0.804286
0.803363
0.741751
0.822358
0.806871
0.803661
0.808126
0.813278
0.696049
0.649116
0.809672
0.813781
0.799231
0.871437
0.80272
0.81234
0.799045
0.809939
0.811253
0.808362
0.652967
0.814741
0.816562
0.803437
0.801861
0.79937
0.617241
0.809693
0.810496
0.812403
0.86228
0.814408
0.801485
0.48052
0.836323
0.69251
0.826374
0.805762
0.813777
0.823997
0.809073
0.812052
0.730913
0.551281
0.491576
0.812314
0.808942
0.534001
0.795557
0.814473
0.83326
0.503937
0.809572
0.813415
0.802257
0.809077
0.530151
0.8131
0.808244
0.559874
0.812195
0.815245
0.538686
0.808754
0.812651
0.775824
0.806271
0.811163
0.809484
0.798988
0.82586
0.533746
0.830162
0.8158
0.804067
0.742063
0.786179
0.811343
0.809384
0.802104
0.815927
0.800703
0.657005
0.806152
0.57947
0.811949
0.659814
0.746288
0.796997
0.718256
0.803542
0.579665
0.849722
0.81219
0.812322
0.799256
0.802705
0.803181
0.813637
0.814349
0.670067
0.717641
0.726189
0.814764
0.721319
0.573449
0.817386
0.783704
0.827863
0.811679
0.809377
0.73248
0.535797
0.798718
0.79003
0.496074
0.813834
0.812994
0.735575
0.805908
0.768498
0.606971
0.809941
0.814643
0.78863
0.609749
0.802308
0.78296
0.826334
0.812962
0.810371
0.811892
0.812822
0.715758
0.800068
0.815726
0.694644
0.480421
0.732903
0.798803
0.730759
0.812999
0.798111
0.805523
0.782563
0.867318
0.803554
0.80167
0.825764
0.859319
0.804614
0.815685
0.794326
0.815896
0.789154
0.74399
0.811909
0.80426
0.816217
0.803248
0.790805
0.842785
0.766088
0.812719
0.773367
0.803721
0.642511
0.509326
0.800985
0.802163
0.809515
0.798149
0.799674
0.81191
0.772903
0.804616
0.811992
0.782194
0.816905
0.777164
0.593293
0.805044
0.760902
0.776197
0.750449
0.763665
0.793918
0.788573
0.823029
0.787511
0.809419
0.803367
0.765116
0.815508
0.542204
0.729502
0.810535
0.81399
0.811399
0.802322
0.812829
0.81052
0.805751
0.821151
0.809685
0.782946
0.8166
0.801688
0.790472
0.79589
0.805166
0.586087
0.803622
0.792169
0.574436
0.813182
0.807233
0.806045
0.810758
0.702319
0.754892
0.821103
0.774895
0.811386
0.81632
0.72225
0.80448
0.824099
0.720039
0.799425
0.809509
0.778567
0.804718
0.83696
0.801903
0.817318
0.772521
0.805337
0.800296
0.813071
0.802107
0.797891
0.588655
0.815211
0.786719
0.806633
0.825617
0.69107
0.828545
0.819963
0.505242
0.806385
0.804452
0.80147
0.81226
0.824238
0.824053
0.804908
0.805905
0.814161
0.813369
0.803521
0.812561
0.804729
0.74925
0.708192
0.7809
0.813658
0.812083
0.775858
0.757781
0.813923
0.824933
0.810519
0.812211
0.691461
0.500682
0.747779
0.817527
0.806716
0.816237
0.844187
0.799874
0.714849
0.654188
0.799658
0.804692
0.694195
0.81266
0.671122
0.836808
0.729219
0.812847
0.895252
0.815607
0.800807
0.77773
0.811098
0.681451
0.814185
0.808215
0.791511
0.805604
0.779414
0.800651
0.810029
0.780458
0.803575
0.85206
0.776998
0.802132
0.492825
0.803173
0.693883
0.804097
0.794448
0.788575
0.783613
0.72221
0.802091
0.788179
0.844452
0.813278
0.812435
0.811773
0.89551
0.746408
0.802734
0.730814
0.803157
0.798362
0.8045
0.71674
0.800925
0.805498
0.639014
0.808657
0.748572
0.533943
0.846507
0.847329
0.750021
0.810758
0.79467
0.772018
0.731727
0.775989
0.785479
0.736218
0.80385
0.804418
0.719449
0.815305
0.804976
0.556776
0.811985
0.821439
0.813242
0.803506
0.610671
0.714967
0.806271
0.859172
0.483676
0.724513
0.806457
0.815954
0.796442
0.713234
0.710662
0.809021
0.813227
0.815003
0.837075
0.745183
0.754378
0.875741
0.806864
0.809212
0.795167
0.637418
0.597395
0.585958
0.656978
0.586138
0.764193
0.800719
0.803381
0.812262
0.809125
0.811474
0.860156
0.715382
0.823862
0.813886
0.817084
0.816634
0.813814
0.812958
0.81157
0.811934
0.656784
0.802374