# vtk DataFile Version 1.0
unstructured grid
ascii
DATASET UNSTRUCTURED_GRID
points 14760 float
-1 0 0
-1 1 0
2 0 0
2 1 0
0 0 0
1 0 0
-1 1 0.1
-1 0 0.1
0 0 0.1
1 0 0.1
2 0 0.1
2 1 0.1
-0.99 0 0
-0.98 0 0
-0.97 0 0
-0.96 0 0
-0.95 0 0
-0.94 0 0
-0.93 0 0
-0.92 0 0
-0.91 0 0
-0.9 0 0
-0.89 0 0
-0.88 0 0
-0.87 0 0
-0.86 0 0
-0.85 0 0
-0.84 0 0
-0.83 0 0
-0.82 0 0
-0.81 0 0
-0.8 0 0
-0.79 0 0
-0.78 0 0
-0.77 0 0
-0.76 0 0
-0.75 0 0
-0.74 0 0
-0.73 0 0
-0.72 0 0
-0.71 0 0
-0.7 0 0
-0.69 0 0
-0.68 0 0
-0.67 0 0
-0.66 0 0
-0.65 0 0
-0.64 0 0
-0.63 0 0
-0.62 0 0
-0.61 0 0
-0.6 0 0
-0.59 0 0
-0.58 0 0
-0.57 0 0
-0.56 0 0
-0.55 0 0
-0.54 0 0
-0.53 0 0
-0.52 0 0
-0.51 0 0
-0.5 0 0
-0.49 0 0
-0.48 0 0
-0.47 0 0
-0.46 0 0
-0.45 0 0
-0.44 0 0
-0.43 0 0
-0.42 0 0
-0.41 0 0
-0.4 0 0
-0.39 0 0
-0.38 0 0
-0.37 0 0
-0.36 0 0
-0.35 0 0
-0.34 0 0
-0.33 0 0
-0.32 0 0
-0.31 0 0
-0.3 0 0
-0.29 0 0
-0.28 0 0
-0.27 0 0
-0.26 0 0
-0.25 0 0
-0.24 0 0
-0.23 0 0
-0.22 0 0
-0.21 0 0
-0.2 0 0
-0.19 0 0
-0.18 0 0
-0.17 0 0
-0.16 0 0
-0.15 0 0
-0.14 0 0
-0.13 0 0
-0.12 0 0
-0.11 0 0
-0.1 0 0
-0.09 0 0
-0.08 0 0
-0.07 0 0
-0.06 0 0
-0.05 0 0
-0.04 0 0
-0.03 0 0
-0.02 0 0
-0.01 0 0
1.01 0 0
1.02 0 0
1.03 0 0
1.04 0 0
1.05 0 0
1.06 0 0
1.07 0 0
1.08 0 0
1.09 0 0
1.1 0 0
1.11 0 0
1.12 0 0
1.13 0 0
1.14 0 0
1.15 0 0
1.16 0 0
1.17 0 0
1.18 0 0
1.19 0 0
1.2 0 0
1.21 0 0
1.22 0 0
1.23 0 0
1.24 0 0
1.25 0 0
1.26 0 0
1.27 0 0
1.28 0 0
1.29 0 0
1.3 0 0
1.31 0 0
1.32 0 0
1.33 0 0
1.34 0 0
1.35 0 0
1.36 0 0
1.37 0 0
1.38 0 0
1.39 0 0
1.4 0 0
1.41 0 0
1.42 0 0
1.43 0 0
1.44 0 0
1.45 0 0
1.46 0 0
1.47 0 0
1.48 0 0
1.49 0 0
1.5 0 0
1.51 0 0
1.52 0 0
1.53 0 0
1.54 0 0
1.55 0 0
1.56 0 0
1.57 0 0
1.58 0 0
1.59 0 0
1.6 0 0
1.61 0 0
1.62 0 0
1.63 0 0
1.64 0 0
1.65 0 0
1.66 0 0
1.67 0 0
1.68 0 0
1.69 0 0
1.7 0 0
1.71 0 0
1.72 0 0
1.73 0 0
1.74 0 0
1.75 0 0
1.76 0 0
1.77 0 0
1.78 0 0
1.79 0 0
1.8 0 0
1.81 0 0
1.82 0 0
1.83 0 0
1.84 0 0
1.85 0 0
1.86 0 0
1.87 0 0
1.88 0 0
1.89 0 0
1.9 0 0
1.91 0 0
1.92 0 0
1.93 0 0
1.94 0 0
1.95 0 0
1.96 0 0
1.97 0 0
1.98 0 0
1.99 0 0
2 0.0100088 0
2 0.0204183 0
2 0.0312446 0
2 0.0425043 0
2 0.0542147 0
2 0.066394 0
2 0.079061 0
2 0.092235 0
2 0.105936 0
2 0.120186 0
2 0.135007 0
2 0.150421 0
2 0.166452 0
2 0.183124 0
2 0.200465 0
2 0.218499 0
2 0.237256 0
2 0.256763 0
2 0.277051 0
2 0.298152 0
2 0.320097 0
2 0.342921 0
2 0.366659 0
2 0.391347 0
2 0.417024 0
2 0.443728 0
2 0.471502 0
2 0.500387 0
2 0.530429 0
2 0.561674 0
2 0.594169 0
2 0.627966 0
2 0.663115 0
2 0.699672 0
2 0.737692 0
2 0.777235 0
2 0.818361 0
2 0.861133 0
2 0.905617 0
2 0.951882 0
1.95 1 0
1.9 1 0
1.85 1 0
1.8 1 0
1.75 1 0
1.7 1 0
1.65 1 0
1.6 1 0
1.55 1 0
1.5 1 0
1.45 1 0
1.4 1 0
1.35 1 0
1.3 1 0
1.25 1 0
1.2 1 0
1.15 1 0
1.1 1 0
1.05 1 0
1 1 0
0.95 1 0
0.9 1 0
0.85 1 0
0.8 1 0
0.75 1 0
0.7 1 0
0.65 1 0
0.6 1 0
0.55 1 0
0.5 1 0
0.45 1 0
0.4 1 0
0.35 1 0
0.3 1 0
0.25 1 0
0.2 1 0
0.15 1 0
0.1 1 0
0.05 1 0
3.69793e-12 1 0
-0.05 1 0
-0.1 1 0
-0.15 1 0
-0.2 1 0
-0.25 1 0
-0.3 1 0
-0.35 1 0
-0.4 1 0
-0.45 1 0
-0.5 1 0
-0.55 1 0
-0.6 1 0
-0.65 1 0
-0.7 1 0
-0.75 1 0
-0.8 1 0
-0.85 1 0
-0.9 1 0
-0.95 1 0
-1 0.951882 0
-1 0.905617 0
-1 0.861133 0
-1 0.818361 0
-1 0.777235 0
-1 0.737692 0
-1 0.699672 0
-1 0.663115 0
-1 0.627966 0
-1 0.594169 0
-1 0.561674 0
-1 0.530429 0
-1 0.500387 0
-1 0.471502 0
-1 0.443728 0
-1 0.417024 0
-1 0.391347 0
-1 0.366659 0
-1 0.342921 0
-1 0.320097 0
-1 0.298152 0
-1 0.277051 0
-1 0.256763 0
-1 0.237256 0
-1 0.218499 0
-1 0.200465 0
-1 0.183124 0
-1 0.166452 0
-1 0.150421 0
-1 0.135007 0
-1 0.120186 0
-1 0.105936 0
-1 0.092235 0
-1 0.079061 0
-1 0.066394 0
-1 0.0542147 0
-1 0.0425043 0
-1 0.0312446 0
-1 0.0204183 0
-1 0.0100088 0
0.00921362 0.00379763 0
0.0184561 0.00752451 0
0.0277268 0.0111804 0
0.0370253 0.0147652 0
0.0463511 0.0182786 0
0.0557034 0.0217203 0
0.0650819 0.0250903 0
0.074486 0.0283883 0
0.083915 0.0316141 0
0.0933685 0.0347675 0
0.102846 0.0378484 0
0.112347 0.0408565 0
0.12187 0.0437917 0
0.131416 0.0466538 0
0.140983 0.0494427 0
0.150572 0.0521581 0
0.160181 0.0547999 0
0.16981 0.0573681 0
0.179458 0.0598623 0
0.189125 0.0622825 0
0.198811 0.0646285 0
0.208514 0.0669001 0
0.218234 0.0690974 0
0.227971 0.07122 0
0.237724 0.073268 0
0.247493 0.0752411 0
0.257276 0.0771393 0
0.267073 0.0789625 0
0.276884 0.0807105 0
0.286708 0.0823832 0
0.296545 0.0839806 0
0.306394 0.0855025 0
0.316254 0.0869488 0
0.326125 0.0883196 0
0.336006 0.0896146 0
0.345896 0.0908339 0
0.355796 0.0919773 0
0.365704 0.0930447 0
0.375621 0.0940362 0
0.385544 0.0949517 0
0.395474 0.095791 0
0.40541 0.0965542 0
0.415352 0.0972412 0
0.425299 0.097852 0
0.43525 0.0983865 0
0.445205 0.0988447 0
0.455164 0.0992266 0
0.465125 0.0995321 0
0.475088 0.0997613 0
0.485052 0.0999141 0
0.495017 0.0999904 0
0.504983 0.0999904 0
0.514948 0.0999141 0
0.524912 0.0997613 0
0.534875 0.0995321 0
0.544836 0.0992266 0
0.554795 0.0988447 0
0.56475 0.0983865 0
0.574701 0.097852 0
0.584648 0.0972412 0
0.59459 0.0965542 0
0.604526 0.095791 0
0.614456 0.0949517 0
0.624379 0.0940362 0
0.634296 0.0930447 0
0.644204 0.0919773 0
0.654104 0.0908339 0
0.663994 0.0896146 0
0.673875 0.0883196 0
0.683746 0.0869488 0
0.693606 0.0855025 0
0.703455 0.0839806 0
0.713292 0.0823832 0
0.723116 0.0807105 0
0.732927 0.0789625 0
0.742724 0.0771393 0
0.752508 0.0752411 0
0.762276 0.073268 0
0.772029 0.07122 0
0.781766 0.0690974 0
0.791486 0.0669001 0
0.801189 0.0646285 0
0.810875 0.0622825 0
0.820542 0.0598623 0
0.83019 0.0573681 0
0.839819 0.0547999 0
0.849428 0.0521581 0
0.859017 0.0494427 0
0.868584 0.0466538 0
0.87813 0.0437917 0
0.887653 0.0408565 0
0.897154 0.0378484 0
0.906631 0.0347675 0
0.916085 0.0316141 0
0.925514 0.0283883 0
0.934918 0.0250903 0
0.944297 0.0217203 0
0.953649 0.0182786 0
0.962975 0.0147652 0
0.972273 0.0111804 0
0.981544 0.00752451 0
0.990786 0.00379763 0
-1 0.951882 0.1
-1 0.905617 0.1
-1 0.861133 0.1
-1 0.818361 0.1
-1 0.777235 0.1
-1 0.737692 0.1
-1 0.699672 0.1
-1 0.663115 0.1
-1 0.627966 0.1
-1 0.594169 0.1
-1 0.561674 0.1
-1 0.530429 0.1
-1 0.500387 0.1
-1 0.471502 0.1
-1 0.443728 0.1
-1 0.417024 0.1
-1 0.391347 0.1
-1 0.366659 0.1
-1 0.342921 0.1
-1 0.320097 0.1
-1 0.298152 0.1
-1 0.277051 0.1
-1 0.256763 0.1
-1 0.237256 0.1
-1 0.218499 0.1
-1 0.200465 0.1
-1 0.183124 0.1
-1 0.166452 0.1
-1 0.150421 0.1
-1 0.135007 0.1
-1 0.120186 0.1
-1 0.105936 0.1
-1 0.092235 0.1
-1 0.079061 0.1
-1 0.066394 0.1
-1 0.0542147 0.1
-1 0.0425043 0.1
-1 0.0312446 0.1
-1 0.0204183 0.1
-1 0.0100088 0.1
-0.99 0 0.1
-0.98 0 0.1
-0.97 0 0.1
-0.96 0 0.1
-0.95 0 0.1
-0.94 0 0.1
-0.93 0 0.1
-0.92 0 0.1
-0.91 0 0.1
-0.9 0 0.1
-0.89 0 0.1
-0.88 0 0.1
-0.87 0 0.1
-0.86 0 0.1
-0.85 0 0.1
-0.84 0 0.1
-0.83 0 0.1
-0.82 0 0.1
-0.81 0 0.1
-0.8 0 0.1
-0.79 0 0.1
-0.78 0 0.1
-0.77 0 0.1
-0.76 0 0.1
-0.75 0 0.1
-0.74 0 0.1
-0.73 0 0.1
-0.72 0 0.1
-0.71 0 0.1
-0.7 0 0.1
-0.69 0 0.1
-0.68 0 0.1
-0.67 0 0.1
-0.66 0 0.1
-0.65 0 0.1
-0.64 0 0.1
-0.63 0 0.1
-0.62 0 0.1
-0.61 0 0.1
-0.6 0 0.1
-0.59 0 0.1
-0.58 0 0.1
-0.57 0 0.1
-0.56 0 0.1
-0.55 0 0.1
-0.54 0 0.1
-0.53 0 0.1
-0.52 0 0.1
-0.51 0 0.1
-0.5 0 0.1
-0.49 0 0.1
-0.48 0 0.1
-0.47 0 0.1
-0.46 0 0.1
-0.45 0 0.1
-0.44 0 0.1
-0.43 0 0.1
-0.42 0 0.1
-0.41 0 0.1
-0.4 0 0.1
-0.39 0 0.1
-0.38 0 0.1
-0.37 0 0.1
-0.36 0 0.1
-0.35 0 0.1
-0.34 0 0.1
-0.33 0 0.1
-0.32 0 0.1
-0.31 0 0.1
-0.3 0 0.1
-0.29 0 0.1
-0.28 0 0.1
-0.27 0 0.1
-0.26 0 0.1
-0.25 0 0.1
-0.24 0 0.1
-0.23 0 0.1
-0.22 0 0.1
-0.21 0 0.1
-0.2 0 0.1
-0.19 0 0.1
-0.18 0 0.1
-0.17 0 0.1
-0.16 0 0.1
-0.15 0 0.1
-0.14 0 0.1
-0.13 0 0.1
-0.12 0 0.1
-0.11 0 0.1
-0.1 0 0.1
-0.09 0 0.1
-0.08 0 0.1
-0.07 0 0.1
-0.06 0 0.1
-0.05 0 0.1
-0.04 0 0.1
-0.03 0 0.1
-0.02 0 0.1
-0.01 0 0.1
0.00921362 0.00379763 0.1
0.0184561 0.00752451 0.1
0.0277268 0.0111804 0.1
0.0370253 0.0147652 0.1
0.0463511 0.0182786 0.1
0.0557034 0.0217203 0.1
0.0650819 0.0250903 0.1
0.074486 0.0283883 0.1
0.083915 0.0316141 0.1
0.0933685 0.0347675 0.1
0.102846 0.0378484 0.1
0.112347 0.0408565 0.1
0.12187 0.0437917 0.1
0.131416 0.0466538 0.1
0.140983 0.0494427 0.1
0.150572 0.0521581 0.1
0.160181 0.0547999 0.1
0.16981 0.0573681 0.1
0.179458 0.0598623 0.1
0.189125 0.0622825 0.1
0.198811 0.0646285 0.1
0.208514 0.0669001 0.1
0.218234 0.0690974 0.1
0.227971 0.07122 0.1
0.237724 0.073268 0.1
0.247493 0.0752411 0.1
0.257276 0.0771393 0.1
0.267073 0.0789625 0.1
0.276884 0.0807105 0.1
0.286708 0.0823832 0.1
0.296545 0.0839806 0.1
0.306394 0.0855025 0.1
0.316254 0.0869488 0.1
0.326125 0.0883196 0.1
0.336006 0.0896146 0.1
0.345896 0.0908339 0.1
0.355796 0.0919773 0.1
0.365704 0.0930447 0.1
0.375621 0.0940362 0.1
0.385544 0.0949517 0.1
0.395474 0.095791 0.1
0.40541 0.0965542 0.1
0.415352 0.0972412 0.1
0.425299 0.097852 0.1
0.43525 0.0983865 0.1
0.445205 0.0988447 0.1
0.455164 0.0992266 0.1
0.465125 0.0995321 0.1
0.475088 0.0997613 0.1
0.485052 0.0999141 0.1
0.495017 0.0999904 0.1
0.504983 0.0999904 0.1
0.514948 0.0999141 0.1
0.524912 0.0997613 0.1
0.534875 0.0995321 0.1
0.544836 0.0992266 0.1
0.554795 0.0988447 0.1
0.56475 0.0983865 0.1
0.574701 0.097852 0.1
0.584648 0.0972412 0.1
0.59459 0.0965542 0.1
0.604526 0.095791 0.1
0.614456 0.0949517 0.1
0.624379 0.0940362 0.1
0.634296 0.0930447 0.1
0.644204 0.0919773 0.1
0.654104 0.0908339 0.1
0.663994 0.0896146 0.1
0.673875 0.0883196 0.1
0.683746 0.0869488 0.1
0.693606 0.0855025 0.1
0.703455 0.0839806 0.1
0.713292 0.0823832 0.1
0.723116 0.0807105 0.1
0.732927 0.0789625 0.1
0.742724 0.0771393 0.1
0.752508 0.0752411 0.1
0.762276 0.073268 0.1
0.772029 0.07122 0.1
0.781766 0.0690974 0.1
0.791486 0.0669001 0.1
0.801189 0.0646285 0.1
0.810875 0.0622825 0.1
0.820542 0.0598623 0.1
0.83019 0.0573681 0.1
0.839819 0.0547999 0.1
0.849428 0.0521581 0.1
0.859017 0.0494427 0.1
0.868584 0.0466538 0.1
0.87813 0.0437917 0.1
0.887653 0.0408565 0.1
0.897154 0.0378484 0.1
0.906631 0.0347675 0.1
0.916085 0.0316141 0.1
0.925514 0.0283883 0.1
0.934918 0.0250903 0.1
0.944297 0.0217203 0.1
0.953649 0.0182786 0.1
0.962975 0.0147652 0.1
0.972273 0.0111804 0.1
0.981544 0.00752451 0.1
0.990786 0.00379763 0.1
1.01 0 0.1
1.02 0 0.1
1.03 0 0.1
[...]
CELL_DATA 14313
SCALARS rho float
LOOKUP_TABLE default
0.781328
0.82419
0.80589
0.53755
0.766282
0.811769
0.812437
0.812322
0.811006
0.815127
0.812005
0.798873
0.797003
0.517352
0.812805
0.831862
0.808766
0.807711
0.81002
0.805347
0.810672
0.813927
0.812369
0.766022
0.811998
0.81463
0.742392
0.709733
0.823711
0.824313
0.811865
0.794475
0.799504
0.811969
0.804671
0.810617
0.679711
0.808903
0.811555
0.802357
0.752525
0.81034
0.541753
0.701983
0.817569
0.835691
0.810819
0.777406
0.804398
0.85098
0.67541
0.653203
0.589228
0.810529
0.819617
0.782652
0.817555
0.814684
0.810799
0.812276
0.811875
0.818349
0.794453
0.839179
0.810299
0.813252
0.852724
0.783885
0.840528
0.812797
0.798306
0.831425
0.487166
0.837173
0.725904
0.806903
0.824583
0.747078
0.696409
0.811342
0.591871
0.824665
0.833105
0.803472
0.805514
0.819231
0.81175
0.804455
0.826541
0.806995
0.779865
0.522617
0.807303
0.797898
0.72584
0.803831
0.814582
0.808877
0.803224
0.48878
0.806995
0.809584
0.812403
0.814193
0.748403
0.809294
0.80263
0.699526
0.834415
0.809936
0.813854
0.824824
0.812038
0.819262
0.804162
0.82736
0.819767
0.836186
0.778694
0.79873
0.811514
0.808932
0.859401
0.720725
0.843356
0.753373
0.789536
0.804455
0.814591
0.842869
0.809386
0.811899
0.860701
0.812194
0.823206
0.782617
0.806937
0.792235
0.817605
0.81726
0.812437
0.816699
0.803386
0.803432
0.796534
0.839
0.805947
0.760674
0.795502
0.817288
0.797196
0.803534
0.812372
0.708968
0.821145
0.803719
0.723061
0.821036
0.811989
0.811861
0.818366
0.808714
0.646551
0.757468
0.82305
0.824368
0.713924
0.812589
0.827969
0.8154
0.688613
0.81622
0.712924
0.787888
0.808869
0.826053
0.808075
0.815415
0.820886
0.741528
0.811305
0.809454
0.773471
0.771843
0.790492
0.811004
0.81279
0.796984
0.496438
0.78721
0.75748
0.742707
0.770219
0.713157
0.812249
0.814875
0.807258
0.803385
0.806053
0.816759
0.760077
0.802896
0.828444
0.814805
0.833406
0.803344
0.81656
0.814223
0.81194
0.834548
0.803982
0.811154
0.795937
0.700885
0.814011
0.820644
0.809531
0.807153
0.834481
0.802881
0.802624
0.81921
0.805965
0.855298
0.809574
0.803116
0.817888
0.802473
0.812323
0.757214
0.635624
0.815055
0.69746
0.826816
0.802385
0.721236
0.811926
0.813982
0.814827
0.826226
0.791683
0.710415
0.747644
0.595055
0.814976
0.723775
0.799282
0.807098
0.837678
0.815059
0.575042
0.804039
0.728646
0.837294
0.801198
0.69467
0.811339
0.827003
0.814554
0.556915
0.813257
0.801143
0.798884
0.806001
0.788368
0.773855
0.815719
0.815534
0.529324
0.814588
0.813736
0.772133
0.802042
0.811983
0.780493
0.81723
0.783001
0.709111
0.802813
0.805822
0.567442
0.543409
0.75623
0.807927
0.820407
0.790067
0.81163
0.814779
0.776056
0.805944
0.803493
0.81665
0.829435
0.79313
0.808298
0.81152
0.631516
0.818879
0.699448
0.797249
0.79328
0.777576
0.835582
0.809331
0.79663
0.676285
0.668068
0.803591
0.805675
0.819629
0.80423
0.798379
0.652065
0.815086
0.822081
0.818104
0.812006
0.812847
0.799423
0.790927
0.814144
0.570274
0.807924
0.812192
0.814388
0.812559
0.765283
0.821506
0.801516
0.814181
0.813037
0.753876
0.752442
0.803403
0.803484
0.530649
0.812416
0.811916
0.807105
0.811788
0.803327
0.800949
0.728071
0.711925
0.814359
0.748358
0.757974
0.818449
0.837446
0.814163
0.802184
0.808491
0.812235
0.803454
0.817018
0.782539
0.816949
0.811781
0.810709
0.795103
0.810417
0.792131
0.811812
0.589676
0.799553
0.800397
0.811897
0.813452
0.767592
0.801606
0.812181
0.812402
0.818001
0.77023
0.818282
0.808344
0.752532
0.761705
0.812877
0.805786
0.829157
0.824704
0.823174
0.804304
0.594239
0.778991
0.60033
0.803383
0.802928
0.800765
0.814248
0.87402
0.526068
0.593479
0.838291
0.87198
0.811832
0.690136
0.801983
0.716196
0.806822
0.815724
0.706988
0.650869
0.751118
0.812904
0.476227
0.873551
0.824354
0.798479
0.808784
0.478931
0.739675
0.781721
0.817568
0.804649
0.800562
0.830213
0.812293
0.705554
0.68492
0.801558
0.80607
0.809281
0.811563
0.808796
0.811885
0.735546
0.791179
0.797189
0.802513
0.764057
0.817642
0.807882
0.812837
0.8116
0.75512
0.805605
0.804077
0.793232
0.812115
0.815681
0.806927
0.657237
0.787458
0.817483
0.812834
0.812244
0.807359
0.812686
0.804195
0.821148
0.821501
0.615638
0.855138
0.744029
0.820589
0.804937
0.746965
0.824487
0.800895
0.825443
0.548422
0.799478
0.679126
0.811962
0.809227
0.521952
0.799939
0.804636
0.79801
0.802087
0.800649
0.772249
0.811824
0.592492
0.805722
0.806098
0.799222
0.818304
0.764947
0.811958
0.809327
0.797884
0.816197
0.796504
0.802857
0.812314
0.634135
0.769277
0.733933
0.490243
0.824709
0.568183
0.802616
0.818798
0.856604
0.703043
0.739618
0.812112
0.806106
0.800922
0.793697
0.765914
0.810886
0.812379
0.797109
0.813094
0.816408
0.472082
0.812343
0.81324
0.806338
0.810077
0.60425
0.815168
0.821521
0.705614
0.788779
0.813148
0.801037
0.828181
0.831319
0.804082
0.742447
0.473183
0.813847
0.571057
0.798755
0.803326
0.774699
0.811988
0.750426
0.811282
0.806584
0.803358
0.485995
0.814244
0.827411
0.830558
0.814758
0.803479
0.803223
0.812373
0.758522
0.847323
0.836858
0.709285
0.798631
0.653389
0.778033
0.667539
0.816063
0.836111
0.798947
0.6378
0.765807
0.81365
0.824427
0.832575
0.813631
0.67039
0.537633
0.8046
0.815889
0.801326
0.815812
0.804724
0.771617
0.851142
0.815215
0.804044
0.816737
0.799009
0.744017
0.797999
0.811372
0.596574
0.689136
0.803317
0.810728
0.804809
0.575092
0.811569
0.604811
0.812383
0.76758
0.816879
0.816292
0.753533
0.806544
0.792392
0.805151
0.836871
0.837178
0.8313
0.804784
0.816113
0.579507
0.812418
0.856782
0.825079
0.829269
0.804202
0.820766
0.799326
0.839814
0.808761
0.814389
0.672621
0.630582
0.835729
0.813348
0.840668
0.715877
0.801222
0.763477
0.797214
0.809581
0.793145
0.807037
0.813064
0.822682
0.828095
0.830062
0.805416
0.750133
0.804099
0.729392
0.793192
0.821507
0.800928
0.815045
0.75825
0.805064
0.804356
0.846975
0.809069
0.80341
0.806019
0.834287
0.831345
0.803588
0.856301
0.795952
0.820052
0.661632
0.803165
0.800245
0.798825
0.831707
0.608796
0.806335
0.805555
0.658547
0.814557
0.829326
0.813828
0.803383
0.806045
0.802506
0.81606
0.798898
0.72047
0.513592
0.813379
0.805628
0.801803
0.804519
0.802991
0.803686
0.810711
0.798089
0.813705
0.583286
0.8128
0.80941
0.811872
0.842347
0.813702
0.834221
0.811391
0.797656
0.812776
0.682409
0.803731
0.850237
0.812809
0.793016
0.814171
0.633916
0.80547
0.566515
0.662339
0.673422
0.809556
0.81549
0.812438
0.497243
0.694473
0.80347
0.830774
0.747343
0.831366
0.805162
0.804733
0.796721
0.694546
0.751282
0.54733
0.80277
0.81166
0.804285
0.820859
0.669865
0.622552
0.854003
0.801537
0.81402
0.729052
0.813535
0.526405
0.820822
0.703289
0.813827
0.817505
0.801679
0.802133
0.825161
0.79487
0.803606
0.803893
0.631329
0.806594
0.653182
0.798795
0.798229
0.813714
0.815335
0.729117
0.815386
0.75578
0.803159
0.72139
0.804988
0.745934
0.6715
0.824534
0.812391
0.79912
0.726373
0.811373
0.658415
0.81091
0.802922
0.728335
0.825853
0.816347
0.637532
0.696037
0.82578
0.803658
0.725628
0.833668
0.834724
0.836115
0.81175
0.54822
0.751056
0.821013
0.820311
0.521235
0.640023
0.815596
0.812451
0.721854
0.778391
0.812042
0.807064
0.757965
0.812176
0.813493
0.803573
0.728767
0.802239
0.796909
0.812081
0.576942
0.805564
0.821775
0.574275
0.818153
0.845355
0.812007
0.676612
0.811737
0.811616
0.811843
0.801164
0.818709
0.80325
0.806689
0.804858
0.803313
0.813504
0.485351
0.809887
0.809689
0.691933
0.603209
0.786095
0.798343
0.812082
0.753269
0.564461
0.811427
0.783504
0.812054
0.821493
0.813484
0.825085
0.748324
0.590383
0.811526
0.839069
0.812003
0.70936
0.803477
0.72731
0.813138
0.811072
0.811912
0.817349
0.801255
0.813063
0.808343
0.757543
0.816234
0.812626
0.751771
0.7919
0.710831
0.558625
0.733563
0.781562
0.815811
0.811315
0.810648
0.810577
0.803298
0.79538
0.808069
0.707301
0.753401
0.811583
0.803428
0.804831
0.818348
0.604193
0.813554
0.803896
0.843536
0.807842
0.636353
0.793687
0.803815
0.842462
0.690789
0.561889
0.577025
0.635236
0.817602
0.804504
0.560408
0.585471
0.819943
0.812182
0.889285
0.804807
0.829437
0.812424
0.769435
0.810797
0.812588
0.812074
0.81063
0.812008
0.798012
0.812167
0.641063
0.815716
0.803632
0.809633
0.756662
0.817148
0.610941
0.855451
0.803931
0.826996
0.812002
0.808003
0.748069
0.822265
0.811916
0.837215
0.81179
0.81251
0.641272
0.826753
0.810144
0.812378
0.836593
0.822557
0.553819
0.796463
0.802763
0.81093
0.816954
0.80394
0.800194
0.815199
0.765101
0.804945
0.815844
0.863449
0.831139
0.58685
0.796054
0.754098
0.814021
0.761509
0.81938
0.804839
0.80639
0.812231
0.789127
0.805607
0.815469
0.821834
0.787345
0.668573
0.733799
0.697928
0.81412
0.8359
0.837827
0.733514
0.808846
0.753927
0.609683
0.812028
0.799453
0.81179
0.803577
0.630896
0.802221
0.776503
0.736696
0.810758
0.744626
0.807585
0.81644
0.859732
0.809634
0.807092
0.73997
0.812484
0.775864
0.839374
0.883745
0.79702
0.520553
0.799672
0.607648
0.769285
0.657274
0.799159
0.494719
0.814983
0.849781
0.805931
0.810612
0.819689
0.80284
0.803253
0.696657
0.822944
0.811928
0.804152
0.806599
0.792438
0.803561
0.80681
0.628466
0.816515
0.802002
0.845202
0.807983
0.804373
0.801474
0.812961
0.813076
0.807538
0.803534
0.787529
0.812145
0.795274
0.801733
0.81325
0.77178
0.567087
0.812652
0.818136
0.803983
0.724555
0.801175
0.807698
0.803483
0.698313
0.87308
0.811603
0.816704
0.81203
0.847726
0.778164
0.812102
0.787622
0.815819
0.822019
0.663226
0.812138
0.728578
0.819003
0.718245
0.799472
0.75119
0.802502
0.576205
0.809196
0.735049
0.476422
0.82015
0.661823
0.769066
0.817205
0.812295
0.776538
0.811235
0.718755
0.63812
0.826146
0.698485
0.816683
0.767354
0.80161
0.80793
0.813245
0.652224
0.804319
0.774851
0.809572
0.812045
0.828994
0.806116
0.687535
0.755452
0.651399
0.798175
0.803012
0.811938
0.815386
0.811901
0.811513
0.809354
0.663452
0.731277
0.488021
0.696438
0.813865
0.808096
0.832948
0.809413
0.81467
0.710056
0.874024
0.815142
0.826167
0.571506
0.822854
0.812153
0.840658
0.845526
0.826538
0.830017
0.820155
0.540487
0.805733
0.814897
0.715985
0.816737
0.801306
0.812088
0.807943
0.812573
0.812638
0.767169
0.721219
0.797995
0.800319
0.571725
0.813987
0.858993
0.815281
0.658837
0.822473
0.813093
0.819504
0.835184
0.687629
0.486539
0.804847
0.839826
0.806065
0.803898
0.814182
0.801568
0.81242
0.80949
0.799938
0.804246
0.804685
0.81244
0.805557
0.806167
0.798581
0.836089
0.830657
0.853189
0.812863
0.807374
0.814431
0.81295
0.812043
0.810989
0.815547
0.833955
0.808604
0.811073
0.600835
0.830503
0.710722
0.868156
0.803622
0.833253
0.799045
0.786085
0.785702
0.740018
0.821146
0.810938
0.811502
0.813351
0.775833
0.807843
0.584285
0.806074
0.812961
0.813115
0.795682
0.812029
0.611073
0.783489
0.558286
0.820748
0.796903
0.77453
0.801895
0.813642
0.812398
0.812432
0.737893
0.80824
0.811888
0.810351
0.803651
0.803818
0.74728
0.767286
0.809266
0.803727
0.696373
0.597902
0.489817
0.841009
0.806066
0.778585
0.781207
0.824247
0.803574
0.803964
0.818001
0.779232
0.756994
0.816121
0.807471
0.811135
0.837191
0.804833
0.811705
0.808254
0.483549
0.803444
0.811859
0.773721
0.819386
0.814176
0.825567
0.599547
0.710319
0.573025
0.828245
0.815575
0.743302
0.811833
0.676753
0.813728
0.810629
0.811858
0.803104
0.811837
0.576922
0.686383
0.80612
0.813269
0.793698
0.801277
0.831015
0.798706
0.803011
0.643011
0.80776
0.81192
0.804283
0.812227
0.80274
0.616986
0.814266
0.812343
0.572463
0.697192
0.793126
0.828155
0.697527
0.804
0.793643
0.812101
0.756557
0.684946
0.810401
0.795903
0.799319
0.766349
0.540667
0.820216
0.673517
0.747679
0.731296
0.803972
0.79732
0.81142
0.660115
0.76757
0.803973
0.81496
0.59262
0.798916
0.825748
0.807174
0.539197
0.805599
0.783418
0.707176
0.705904
0.800401
0.819095
0.812973
0.808644
0.699572
0.739644
0.641453
0.832297
0.842873
0.816869
0.788165
0.865205
0.696862
0.813318
0.766755
0.790231
0.795531
0.811934
0.803987
0.811559
0.787085
0.755257
0.819722
0.796753
0.84211
0.719339
0.79139
0.805521
0.723257
0.803233
0.814456
0.575988
0.801948
0.798984
0.802794
0.821161
0.764274
0.80017
0.722629
0.812113
0.808832
0.725212
0.812114
0.816186
0.82863
0.80559
0.787115
0.797663
0.805627
0.726506
0.812426
0.801184
0.677585
0.806897
0.78028
0.831877
0.820868
0.818979
0.839285
0.848252
0.699158
0.813694
0.795537
0.787309
0.617544
0.816929
0.80365
0.812197
0.776163
0.853453
0.832785
0.781808
0.842036
0.779787
0.800638
0.771969
0.812189
0.721706
0.63581
0.844188
0.661018
0.792814
0.839711
0.812408
0.671185
0.809238
0.751903
0.803975
0.799007
0.781348
0.804159
0.801081
0.802799
0.801897
0.785616
0.811996
0.781428
0.816241
0.807471
0.712706
0.783855
0.815151
0.81243
0.805491
0.564069
0.825101
0.812841
0.81202
0.703506
0.804775
0.801107
0.801325
0.815877
0.746212
0.81596
0.800575
0.804581
0.755232
0.811458
0.812744
0.80592
0.769011
0.807918
0.812962
0.808047
0.815818
0.80833
0.806068
0.822917
0.804602
0.788756
0.806228
0.812164
0.818158
0.778751
0.703563
0.813752
0.812181
0.800775
0.742481
0.78881
0.6541
0.803392
0.540266
0.803171
0.814399
0.774902
0.83458
0.515375
0.809455
0.738457
0.810454
0.534303
0.804368
0.827838
0.813304
0.818715
0.734299
0.840923
0.55367
0.823528
0.702543
0.799583
0.477698
0.669889
0.812542
0.812033
0.74176
0.801007
0.820865
0.612071
0.821989
0.770907
0.833483
0.812038
0.814139
0.813123
0.803829
0.836829
0.810674
0.803762
0.476174
0.803113
0.843479
0.802241
0.801353
0.767596
0.805428
0.811977
0.812132
0.796623
0.734326
0.81042
0.815482
0.603033
0.804169
0.537085
0.815644
0.539646
0.811977
0.770407
0.682563
0.733453
0.78309
0.71308
0.841548
0.813715
0.796894
0.803978
0.70336
0.80256
0.789462
0.802452
0.814968
0.801727
0.731385
0.698027
0.800628
0.772296
0.518992
0.811193
0.663373
0.79411
0.705538
0.825031
0.809427
0.825043
0.810201
0.837181
0.807276
0.580061
0.829233
0.807033
0.801566
0.815421
0.811969
0.812586
0.814576
0.82512
0.816379
0.618116
0.804752
0.80066
0.812885
0.692204
0.802316
0.823259
0.756392
0.6886
0.807521
0.688436
0.731703
0.810057
0.812701
0.668572
0.841467
0.766959
0.805395
0.79647
0.809783
0.844487
0.801068
0.538912
0.814881
0.708112
0.526863
0.778179
0.75815
0.769547
0.812184
0.803518
0.816379
0.812001
0.585843
0.7875
0.831259
0.812082
0.591242
0.721585
0.634974
0.816648
0.810452
0.690955
0.803988
0.812159
0.799352
0.834231
0.606159
0.840333
0.74015
0.811952
0.812461
0.669314
0.812524
0.720906
0.791824
0.716424
0.811893
0.784462
0.63396
0.724191
0.712407
0.833139
0.8094
0.819313
0.822024
0.803346
0.808519
0.802834
0.81763
0.803259
0.687159
0.803442
0.603519
0.776729
0.807181
0.802327
0.812156
0.824254
0.803329
0.716989
0.710348
0.667243
0.790297
0.816723
0.749042
0.579702
0.751503
0.810241
0.801857
0.760211
0.803599
0.823143
0.753241
0.568831
0.702092
0.798639
0.812155
0.864288
0.814616
0.811759
0.851813
0.799594
0.801854
0.814397
0.812253
0.805356
0.717657
0.809151
0.695511
0.862227
0.778683
0.813424
0.574387
0.796527
0.529225
0.583263
0.5852
0.807919
0.803633
0.809274
0.758172
0.803556
0.53231
0.782236
0.802939
0.734587
0.814333
0.80166
0.815835
0.842884
0.514349
0.812042
0.802084
0.809588
0.816731
0.812871
0.812341
0.754159
0.797182
0.798797
0.803235
0.797598
0.810725
0.845329
0.81856
0.723731
0.804683
0.607826
0.813202
0.812053
0.58661
0.766862
0.766928
0.536369
0.784283
0.803642
0.87826
0.798396
0.813109
0.755226
0.794422
0.797076
0.809248
0.782684
0.542015
0.710991
0.680436
0.781057
0.814655
0.802896
0.821824
0.790237
0.801835
0.812797
0.798112
0.852149
0.704662
0.811868
0.780683
0.531
0.516105
0.812909
0.803547
0.805446
0.560422
0.796988
0.803744
0.659138
0.813733
0.790629
0.806579
0.814818
0.533746
0.724497
0.718839
0.812462
0.83203
0.629984
0.789834
0.717
0.813606
0.827258
0.779439
0.77317
0.535242
0.811533
0.802409
0.723664
0.852049
0.805819
0.722764
0.739868
0.763891
0.810814
0.563452
0.796703
0.737953
0.800329
0.821865
0.720143
0.799207
0.811765
0.716527
0.813013
0.705987
0.815994
0.798236
0.759654
0.689976
0.80892
0.800006
0.813379
0.669589
0.805375
0.804872
0.811605
0.699472
0.812159
0.808404
0.831753
0.650458
0.815502
0.740771
0.811948
0.805737
0.842202
0.803687
0.818926
0.749042
0.815195
0.838792
0.83282
0.816454
0.845618
0.752308
0.847783
0.826025
0.803857
0.825748
0.805616
0.646632
0.778088
0.813937
0.746828
0.695216
0.798489
0.804099
0.680133
0.797471
0.53801
0.848481
0.696186
0.706239
0.81358
0.774483
0.806903
0.798937
0.806965
0.803891
0.812041
0.835654
0.730056
0.772158
0.588261
0.81003
0.777028
0.810913
0.805118
0.570063
0.80291
0.802532
0.807509
0.798663
0.816743
0.808157
0.709767
0.823134
0.847951
0.684443
0.743644
0.812196
0.80096
0.712397
0.814295
0.754371
0.796793
0.802908
0.805369
0.83715
0.668744
0.723233
0.800804
0.702023
0.772651
0.832153
0.532044
0.691292
0.799586
0.804291
0.803366
0.741743
0.822388
0.806909
0.803665
0.808134
0.813317
0.696099
0.64928
0.80968
0.813819
0.799268
0.87152
0.802744
0.812382
0.799051
0.809975
0.811294
0.808374
0.653099
0.814751
0.816596
0.803441
0.801908
0.79941
0.617315
0.80973
0.810537
0.812445
0.862356
0.814444
0.801494
0.480755
0.836351
0.692721
0.826402
0.805795
0.813792
0.824047
0.809118
0.812094
0.731007
0.551398
0.491834
0.812356
0.808982
0.534169
0.795569
0.814509
0.833291
0.504129
0.809586
0.813452
0.802285
0.809091
0.530358
0.81314
0.808252
0.559986
0.812237
0.815281
0.538836
0.80879
0.81269
0.775846
0.806298
0.811187
0.809529
0.799026
0.825887
0.533877
0.830198
0.815811
0.804071
0.742118
0.786208
0.811386
0.8094
0.802149
0.815959
0.800708
0.657226
0.80619
0.584369
0.811994
0.65988
0.74634
0.797004
0.718306
0.803544
0.579751
0.849741
0.812233
0.812361
0.7993
0.802718
0.803183
0.81365
0.814386
0.670128
0.717759
0.72628
0.814801
0.721437
0.575366
0.817413
0.783736
0.827888
0.811716
0.809388
0.732525
0.535986
0.798728
0.790066
0.496296
0.813872
0.813034
0.735614
0.805922
0.768532
0.607126
0.809977
0.814657
0.788663
0.609827
0.802316
0.782979
0.826363
0.813002
0.810416
0.811902
0.812862
0.715633
0.800095
0.815762
0.694846
0.480645
0.732995
0.798811
0.730834
0.813039
0.798158
0.805532
0.782582
0.867333
0.803556
0.801677
0.825791
0.859336
0.80462
0.815717
0.794363
0.815931
0.78917
0.744027
0.811921
0.804266
0.816251
0.803252
0.790841
0.842807
0.766109
0.81276
0.773398
0.803744
0.642575
0.509492
0.800993
0.802173
0.809559
0.798158
0.799701
0.811955
0.772921
0.804644
0.812037
0.782225
0.816933
0.777166
0.593407
0.805052
0.760902
0.776222
0.750493
0.763669
0.79393
0.788587
0.823045
0.787525
0.809427
0.803369
0.765157
0.815544
0.542342
0.729577
0.810575
0.814026
0.811441
0.802357
0.812867
0.810545
0.805759
0.821182
0.809693
0.782966
0.816634
0.801721
0.790508
0.795902
0.805173
0.586183
0.803629
0.792183
0.574568
0.813206
0.807241
0.806051
0.810766
0.70239
0.754869
0.821135
0.774898
0.811396
0.816354
0.722148
0.804486
0.824127
0.720099
0.799436
0.809548
0.778592
0.804751
0.837
0.801915
0.817353
0.772553
0.805342
0.800328
0.813109
0.802145
0.797936
0.588777
0.815247
0.786758
0.806639
0.825646
0.691262
0.828572
0.819987
0.505429
0.806413
0.804457
0.801516
0.812299
0.824263
0.824082
0.804914
0.80594
0.814198
0.813382
0.803524
0.812599
0.804757
0.749278
0.708336
0.780935
0.813696
0.812119
0.77589
0.757816
0.813933
0.824955
0.810531
0.812253
0.691673
0.500865
0.747773
0.817561
0.806747
0.816272
0.844206
0.799912
0.714966
0.654322
0.799704
0.804724
0.6943
0.812701
0.671293
0.836831
0.729267
0.812884
0.895261
0.815617
0.800842
0.777767
0.811111
0.68158
0.814199
0.808252
0.791525
0.805639
0.779417
0.800686
0.810037
0.780501
0.803579
0.852078
0.777013
0.802135
0.493082
0.803196
0.693933
0.804101
0.794458
0.788583
0.783645
0.722252
0.802126
0.788213
0.844474
0.813318
0.812477
0.811816
0.895518
0.74646
0.802741
0.730909
0.803159
0.798407
0.804518
0.716817
0.80096
0.805508
0.639215
0.808691
0.748614
0.534531
0.846528
0.847349
0.750071
0.810771
0.794683
0.772056
0.731814
0.776014
0.785501
0.736259
0.803857
0.804439
0.719561
0.815342
0.804983
0.556949
0.812029
0.821471
0.813273
0.80351
0.61075
0.715092
0.806279
0.859189
0.483934
0.724583
0.806481
0.815968
0.796473
0.713192
0.710807
0.809029
0.813267
0.81504
0.837099
0.745171
0.754427
0.875754
0.80688
0.809256
0.79518
0.637704
0.59791
0.586075
0.657089
0.586365
0.764245
0.800755
0.803403
0.812302
0.809151
0.811483
0.860172
0.715522
0.823891
0.813924
0.817118
0.816668
0.813852
0.812999
0.811609