# vtk DataFile Version 1.0
unstructured grid
ascii
DATASET UNSTRUCTURED_GRID
points 14760 float
-1 0 0
-1 1 0
2 0 0
2 1 0
0 0 0
1 0 0
-1 1 0.1
-1 0 0.1
0 0 0.1
1 0 0.1
2 0 0.1
2 1 0.1
-0.99 0 0
-0.98 0 0
-0.97 0 0
-0.96 0 0
-0.95 0 0
-0.94 0 0
-0.93 0 0
-0.92 0 0
-0.91 0 0
-0.9 0 0
-0.89 0 0
-0.88 0 0
-0.87 0 0
-0.86 0 0
-0.85 0 0
-0.84 0 0
-0.83 0 0
-0.82 0 0
-0.81 0 0
-0.8 0 0
-0.79 0 0
-0.78 0 0
-0.77 0 0
-0.76 0 0
-0.75 0 0
-0.74 0 0
-0.73 0 0
-0.72 0 0
-0.71 0 0
-0.7 0 0
-0.69 0 0
-0.68 0 0
-0.67 0 0
-0.66 0 0
-0.65 0 0
-0.64 0 0
-0.63 0 0
-0.62 0 0
-0.61 0 0
-0.6 0 0
-0.59 0 0
-0.58 0 0
-0.57 0 0
-0.56 0 0
-0.55 0 0
-0.54 0 0
-0.53 0 0
-0.52 0 0
-0.51 0 0
-0.5 0 0
-0.49 0 0
-0.48 0 0
-0.47 0 0
-0.46 0 0
-0.45 0 0
-0.44 0 0
-0.43 0 0
-0.42 0 0
-0.41 0 0
-0.4 0 0
-0.39 0 0
-0.38 0 0
-0.37 0 0
-0.36 0 0
-0.35 0 0
-0.34 0 0
-0.33 0 0
-0.32 0 0
-0.31 0 0
-0.3 0 0
-0.29 0 0
-0.28 0 0
-0.27 0 0
-0.26 0 0
-0.25 0 0
-0.24 0 0
-0.23 0 0
-0.22 0 0
-0.21 0 0
-0.2 0 0
-0.19 0 0
-0.18 0 0
-0.17 0 0
-0.16 0 0
-0.15 0 0
-0.14 0 0
-0.13 0 0
-0.12 0 0
-0.11 0 0
-0.1 0 0
-0.09 0 0
-0.08 0 0
-0.07 0 0
-0.06 0 0
-0.05 0 0
-0.04 0 0
-0.03 0 0
-0.02 0 0
-0.01 0 0
1.01 0 0
1.02 0 0
1.03 0 0
1.04 0 0
1.05 0 0
1.06 0 0
1.07 0 0
1.08 0 0
1.09 0 0
1.1 0 0
1.11 0 0
1.12 0 0
1.13 0 0
1.14 0 0
1.15 0 0
1.16 0 0
1.17 0 0
1.18 0 0
1.19 0 0
1.2 0 0
1.21 0 0
1.22 0 0
1.23 0 0
1.24 0 0
1.25 0 0
1.26 0 0
1.27 0 0
1.28 0 0
1.29 0 0
1.3 0 0
1.31 0 0
1.32 0 0
1.33 0 0
1.34 0 0
1.35 0 0
1.36 0 0
1.37 0 0
1.38 0 0
1.39 0 0
1.4 0 0
1.41 0 0
1.42 0 0
1.43 0 0
1.44 0 0
1.45 0 0
1.46 0 0
1.47 0 0
1.48 0 0
1.49 0 0
1.5 0 0
1.51 0 0
1.52 0 0
1.53 0 0
1.54 0 0
1.55 0 0
1.56 0 0
1.57 0 0
1.58 0 0
1.59 0 0
1.6 0 0
1.61 0 0
1.62 0 0
1.63 0 0
1.64 0 0
1.65 0 0
1.66 0 0
1.67 0 0
1.68 0 0
1.69 0 0
1.7 0 0
1.71 0 0
1.72 0 0
1.73 0 0
1.74 0 0
1.75 0 0
1.76 0 0
1.77 0 0
1.78 0 0
1.79 0 0
1.8 0 0
1.81 0 0
1.82 0 0
1.83 0 0
1.84 0 0
1.85 0 0
1.86 0 0
1.87 0 0
1.88 0 0
1.89 0 0
1.9 0 0
1.91 0 0
1.92 0 0
1.93 0 0
1.94 0 0
1.95 0 0
1.96 0 0
1.97 0 0
1.98 0 0
1.99 0 0
2 0.0100088 0
2 0.0204183 0
2 0.0312446 0
2 0.0425043 0
2 0.0542147 0
2 0.066394 0
2 0.079061 0
2 0.092235 0
2 0.105936 0
2 0.120186 0
2 0.135007 0
2 0.150421 0
2 0.166452 0
2 0.183124 0
2 0.200465 0
2 0.218499 0
2 0.237256 0
2 0.256763 0
2 0.277051 0
2 0.298152 0
2 0.320097 0
2 0.342921 0
2 0.366659 0
2 0.391347 0
2 0.417024 0
2 0.443728 0
2 0.471502 0
2 0.500387 0
2 0.530429 0
2 0.561674 0
2 0.594169 0
2 0.627966 0
2 0.663115 0
2 0.699672 0
2 0.737692 0
2 0.777235 0
2 0.818361 0
2 0.861133 0
2 0.905617 0
2 0.951882 0
1.95 1 0
1.9 1 0
1.85 1 0
1.8 1 0
1.75 1 0
1.7 1 0
1.65 1 0
1.6 1 0
1.55 1 0
1.5 1 0
1.45 1 0
1.4 1 0
1.35 1 0
1.3 1 0
1.25 1 0
1.2 1 0
1.15 1 0
1.1 1 0
1.05 1 0
1 1 0
0.95 1 0
0.9 1 0
0.85 1 0
0.8 1 0
0.75 1 0
0.7 1 0
0.65 1 0
0.6 1 0
0.55 1 0
0.5 1 0
0.45 1 0
0.4 1 0
0.35 1 0
0.3 1 0
0.25 1 0
0.2 1 0
0.15 1 0
0.1 1 0
0.05 1 0
3.69793e-12 1 0
-0.05 1 0
-0.1 1 0
-0.15 1 0
-0.2 1 0
-0.25 1 0
-0.3 1 0
-0.35 1 0
-0.4 1 0
-0.45 1 0
-0.5 1 0
-0.55 1 0
-0.6 1 0
-0.65 1 0
-0.7 1 0
-0.75 1 0
-0.8 1 0
-0.85 1 0
-0.9 1 0
-0.95 1 0
-1 0.951882 0
-1 0.905617 0
-1 0.861133 0
-1 0.818361 0
-1 0.777235 0
-1 0.737692 0
-1 0.699672 0
-1 0.663115 0
-1 0.627966 0
-1 0.594169 0
-1 0.561674 0
-1 0.530429 0
-1 0.500387 0
-1 0.471502 0
-1 0.443728 0
-1 0.417024 0
-1 0.391347 0
-1 0.366659 0
-1 0.342921 0
-1 0.320097 0
-1 0.298152 0
-1 0.277051 0
-1 0.256763 0
-1 0.237256 0
-1 0.218499 0
-1 0.200465 0
-1 0.183124 0
-1 0.166452 0
-1 0.150421 0
-1 0.135007 0
-1 0.120186 0
-1 0.105936 0
-1 0.092235 0
-1 0.079061 0
-1 0.066394 0
-1 0.0542147 0
-1 0.0425043 0
-1 0.0312446 0
-1 0.0204183 0
-1 0.0100088 0
0.00921362 0.00379763 0
0.0184561 0.00752451 0
0.0277268 0.0111804 0
0.0370253 0.0147652 0
0.0463511 0.0182786 0
0.0557034 0.0217203 0
0.0650819 0.0250903 0
0.074486 0.0283883 0
0.083915 0.0316141 0
0.0933685 0.0347675 0
0.102846 0.0378484 0
0.112347 0.0408565 0
0.12187 0.0437917 0
0.131416 0.0466538 0
0.140983 0.0494427 0
0.150572 0.0521581 0
0.160181 0.0547999 0
0.16981 0.0573681 0
0.179458 0.0598623 0
0.189125 0.0622825 0
0.198811 0.0646285 0
0.208514 0.0669001 0
0.218234 0.0690974 0
0.227971 0.07122 0
0.237724 0.073268 0
0.247493 0.0752411 0
0.257276 0.0771393 0
0.267073 0.0789625 0
0.276884 0.0807105 0
0.286708 0.0823832 0
0.296545 0.0839806 0
0.306394 0.0855025 0
0.316254 0.0869488 0
0.326125 0.0883196 0
0.336006 0.0896146 0
0.345896 0.0908339 0
0.355796 0.0919773 0
0.365704 0.0930447 0
0.375621 0.0940362 0
0.385544 0.0949517 0
0.395474 0.095791 0
0.40541 0.0965542 0
0.415352 0.0972412 0
0.425299 0.097852 0
0.43525 0.0983865 0
0.445205 0.0988447 0
0.455164 0.0992266 0
0.465125 0.0995321 0
0.475088 0.0997613 0
0.485052 0.0999141 0
0.495017 0.0999904 0
0.504983 0.0999904 0
0.514948 0.0999141 0
0.524912 0.0997613 0
0.534875 0.0995321 0
0.544836 0.0992266 0
0.554795 0.0988447 0
0.56475 0.0983865 0
0.574701 0.097852 0
0.584648 0.0972412 0
0.59459 0.0965542 0
0.604526 0.095791 0
0.614456 0.0949517 0
0.624379 0.0940362 0
0.634296 0.0930447 0
0.644204 0.0919773 0
0.654104 0.0908339 0
0.663994 0.0896146 0
0.673875 0.0883196 0
0.683746 0.0869488 0
0.693606 0.0855025 0
0.703455 0.0839806 0
0.713292 0.0823832 0
0.723116 0.0807105 0
0.732927 0.0789625 0
0.742724 0.0771393 0
0.752508 0.0752411 0
0.762276 0.073268 0
0.772029 0.07122 0
0.781766 0.0690974 0
0.791486 0.0669001 0
0.801189 0.0646285 0
0.810875 0.0622825 0
0.820542 0.0598623 0
0.83019 0.0573681 0
0.839819 0.0547999 0
0.849428 0.0521581 0
0.859017 0.0494427 0
0.868584 0.0466538 0
0.87813 0.0437917 0
0.887653 0.0408565 0
0.897154 0.0378484 0
0.906631 0.0347675 0
0.916085 0.0316141 0
0.925514 0.0283883 0
0.934918 0.0250903 0
0.944297 0.0217203 0
0.953649 0.0182786 0
0.962975 0.0147652 0
0.972273 0.0111804 0
0.981544 0.00752451 0
0.990786 0.00379763 0
-1 0.951882 0.1
-1 0.905617 0.1
-1 0.861133 0.1
-1 0.818361 0.1
-1 0.777235 0.1
-1 0.737692 0.1
-1 0.699672 0.1
-1 0.663115 0.1
-1 0.627966 0.1
-1 0.594169 0.1
-1 0.561674 0.1
-1 0.530429 0.1
-1 0.500387 0.1
-1 0.471502 0.1
-1 0.443728 0.1
-1 0.417024 0.1
-1 0.391347 0.1
-1 0.366659 0.1
-1 0.342921 0.1
-1 0.320097 0.1
-1 0.298152 0.1
-1 0.277051 0.1
-1 0.256763 0.1
-1 0.237256 0.1
-1 0.218499 0.1
-1 0.200465 0.1
-1 0.183124 0.1
-1 0.166452 0.1
-1 0.150421 0.1
-1 0.135007 0.1
-1 0.120186 0.1
-1 0.105936 0.1
-1 0.092235 0.1
-1 0.079061 0.1
-1 0.066394 0.1
-1 0.0542147 0.1
-1 0.0425043 0.1
-1 0.0312446 0.1
-1 0.0204183 0.1
-1 0.0100088 0.1
-0.99 0 0.1
-0.98 0 0.1
-0.97 0 0.1
-0.96 0 0.1
-0.95 0 0.1
-0.94 0 0.1
-0.93 0 0.1
-0.92 0 0.1
-0.91 0 0.1
-0.9 0 0.1
-0.89 0 0.1
-0.88 0 0.1
-0.87 0 0.1
-0.86 0 0.1
-0.85 0 0.1
-0.84 0 0.1
-0.83 0 0.1
-0.82 0 0.1
-0.81 0 0.1
-0.8 0 0.1
-0.79 0 0.1
-0.78 0 0.1
-0.77 0 0.1
-0.76 0 0.1
-0.75 0 0.1
-0.74 0 0.1
-0.73 0 0.1
-0.72 0 0.1
-0.71 0 0.1
-0.7 0 0.1
-0.69 0 0.1
-0.68 0 0.1
-0.67 0 0.1
-0.66 0 0.1
-0.65 0 0.1
-0.64 0 0.1
-0.63 0 0.1
-0.62 0 0.1
-0.61 0 0.1
-0.6 0 0.1
-0.59 0 0.1
-0.58 0 0.1
-0.57 0 0.1
-0.56 0 0.1
-0.55 0 0.1
-0.54 0 0.1
-0.53 0 0.1
-0.52 0 0.1
-0.51 0 0.1
-0.5 0 0.1
-0.49 0 0.1
-0.48 0 0.1
-0.47 0 0.1
-0.46 0 0.1
-0.45 0 0.1
-0.44 0 0.1
-0.43 0 0.1
-0.42 0 0.1
-0.41 0 0.1
-0.4 0 0.1
-0.39 0 0.1
-0.38 0 0.1
-0.37 0 0.1
-0.36 0 0.1
-0.35 0 0.1
-0.34 0 0.1
-0.33 0 0.1
-0.32 0 0.1
-0.31 0 0.1
-0.3 0 0.1
-0.29 0 0.1
-0.28 0 0.1
-0.27 0 0.1
-0.26 0 0.1
-0.25 0 0.1
-0.24 0 0.1
-0.23 0 0.1
-0.22 0 0.1
-0.21 0 0.1
-0.2 0 0.1
-0.19 0 0.1
-0.18 0 0.1
-0.17 0 0.1
-0.16 0 0.1
-0.15 0 0.1
-0.14 0 0.1
-0.13 0 0.1
-0.12 0 0.1
-0.11 0 0.1
-0.1 0 0.1
-0.09 0 0.1
-0.08 0 0.1
-0.07 0 0.1
-0.06 0 0.1
-0.05 0 0.1
-0.04 0 0.1
-0.03 0 0.1
-0.02 0 0.1
-0.01 0 0.1
0.00921362 0.00379763 0.1
0.0184561 0.00752451 0.1
0.0277268 0.0111804 0.1
0.0370253 0.0147652 0.1
0.0463511 0.0182786 0.1
0.0557034 0.0217203 0.1
0.0650819 0.0250903 0.1
0.074486 0.0283883 0.1
0.083915 0.0316141 0.1
0.0933685 0.0347675 0.1
0.102846 0.0378484 0.1
0.112347 0.0408565 0.1
0.12187 0.0437917 0.1
0.131416 0.0466538 0.1
0.140983 0.0494427 0.1
0.150572 0.0521581 0.1
0.160181 0.0547999 0.1
0.16981 0.0573681 0.1
0.179458 0.0598623 0.1
0.189125 0.0622825 0.1
0.198811 0.0646285 0.1
0.208514 0.0669001 0.1
0.218234 0.0690974 0.1
0.227971 0.07122 0.1
0.237724 0.073268 0.1
0.247493 0.0752411 0.1
0.257276 0.0771393 0.1
0.267073 0.0789625 0.1
0.276884 0.0807105 0.1
0.286708 0.0823832 0.1
0.296545 0.0839806 0.1
0.306394 0.0855025 0.1
0.316254 0.0869488 0.1
0.326125 0.0883196 0.1
0.336006 0.0896146 0.1
0.345896 0.0908339 0.1
0.355796 0.0919773 0.1
0.365704 0.0930447 0.1
0.375621 0.0940362 0.1
0.385544 0.0949517 0.1
0.395474 0.095791 0.1
0.40541 0.0965542 0.1
0.415352 0.0972412 0.1
0.425299 0.097852 0.1
0.43525 0.0983865 0.1
0.445205 0.0988447 0.1
0.455164 0.0992266 0.1
0.465125 0.0995321 0.1
0.475088 0.0997613 0.1
0.485052 0.0999141 0.1
0.495017 0.0999904 0.1
0.504983 0.0999904 0.1
0.514948 0.0999141 0.1
0.524912 0.0997613 0.1
0.534875 0.0995321 0.1
0.544836 0.0992266 0.1
0.554795 0.0988447 0.1
0.56475 0.0983865 0.1
0.574701 0.097852 0.1
0.584648 0.0972412 0.1
0.59459 0.0965542 0.1
0.604526 0.095791 0.1
0.614456 0.0949517 0.1
0.624379 0.0940362 0.1
0.634296 0.0930447 0.1
0.644204 0.0919773 0.1
0.654104 0.0908339 0.1
0.663994 0.0896146 0.1
0.673875 0.0883196 0.1
0.683746 0.0869488 0.1
0.693606 0.0855025 0.1
0.703455 0.0839806 0.1
0.713292 0.0823832 0.1
0.723116 0.0807105 0.1
0.732927 0.0789625 0.1
0.742724 0.0771393 0.1
0.752508 0.0752411 0.1
0.762276 0.073268 0.1
0.772029 0.07122 0.1
0.781766 0.0690974 0.1
0.791486 0.0669001 0.1
0.801189 0.0646285 0.1
0.810875 0.0622825 0.1
0.820542 0.0598623 0.1
0.83019 0.0573681 0.1
0.839819 0.0547999 0.1
0.849428 0.0521581 0.1
0.859017 0.0494427 0.1
0.868584 0.0466538 0.1
0.87813 0.0437917 0.1
0.887653 0.0408565 0.1
0.897154 0.0378484 0.1
0.906631 0.0347675 0.1
0.916085 0.0316141 0.1
0.925514 0.0283883 0.1
0.934918 0.0250903 0.1
0.944297 0.0217203 0.1
0.953649 0.0182786 0.1
0.962975 0.0147652 0.1
0.972273 0.0111804 0.1
0.981544 0.00752451 0.1
0.990786 0.00379763 0.1
1.01 0 0.1
1.02 0 0.1
1.03 0 0.1
[...]
CELL_DATA 14313
SCALARS rho float
LOOKUP_TABLE default
0.781325
0.824188
0.805889
0.537539
0.766277
0.811765
0.812433
0.812319
0.811005
0.815125
0.812
0.798872
0.796999
0.517329
0.812802
0.83186
0.808765
0.80771
0.810017
0.805346
0.810667
0.813926
0.812365
0.766017
0.811994
0.814629
0.742389
0.709738
0.823709
0.82431
0.811861
0.794474
0.799499
0.811965
0.80467
0.810613
0.679704
0.808901
0.811551
0.802356
0.752521
0.810336
0.541741
0.701976
0.817566
0.835689
0.810816
0.777403
0.804395
0.850974
0.675403
0.653197
0.589209
0.810525
0.819615
0.78265
0.817551
0.814682
0.810798
0.812272
0.811871
0.818346
0.794452
0.839177
0.810295
0.813248
0.852717
0.783883
0.840525
0.812793
0.798305
0.831422
0.487144
0.837171
0.725893
0.8069
0.824579
0.747075
0.696405
0.811338
0.591863
0.824662
0.833103
0.803472
0.805511
0.819228
0.811746
0.804454
0.826539
0.806994
0.779863
0.522595
0.807302
0.797893
0.725829
0.803831
0.814579
0.808873
0.803223
0.488758
0.806992
0.809581
0.8124
0.814191
0.748399
0.809292
0.802628
0.699522
0.834413
0.809932
0.813853
0.824821
0.812034
0.819259
0.804162
0.827358
0.819764
0.836184
0.778692
0.798725
0.811511
0.808928
0.859399
0.720715
0.843351
0.753367
0.789533
0.804454
0.814588
0.842864
0.809382
0.811895
0.860699
0.81219
0.823203
0.782615
0.806933
0.792233
0.817602
0.817257
0.812433
0.816696
0.803386
0.803431
0.796533
0.838998
0.805946
0.760671
0.7955
0.817285
0.797192
0.803533
0.812368
0.708962
0.821143
0.803719
0.723057
0.821033
0.811985
0.81186
0.818363
0.808713
0.646513
0.757464
0.823047
0.824364
0.713915
0.812585
0.827967
0.815396
0.688606
0.816219
0.712919
0.787885
0.808866
0.826049
0.808072
0.815413
0.820883
0.741521
0.811301
0.809451
0.773468
0.771843
0.79049
0.811
0.812786
0.796983
0.496421
0.787207
0.757475
0.742701
0.770217
0.713143
0.812245
0.814872
0.807257
0.803384
0.80605
0.816756
0.760073
0.802894
0.828441
0.814801
0.833404
0.803343
0.816559
0.814222
0.811936
0.834546
0.803979
0.811151
0.795935
0.700881
0.814008
0.820639
0.809527
0.80715
0.834478
0.802878
0.802623
0.819209
0.805961
0.855296
0.809572
0.803114
0.817885
0.802473
0.812319
0.75721
0.635588
0.815054
0.697455
0.826813
0.802384
0.721226
0.811922
0.813978
0.814824
0.826222
0.791681
0.710424
0.747639
0.595034
0.814973
0.723771
0.799277
0.807096
0.837676
0.815055
0.575032
0.804038
0.72864
0.837291
0.801195
0.694664
0.811337
0.827
0.814551
0.5569
0.813256
0.801139
0.79888
0.805998
0.788365
0.773852
0.815717
0.815533
0.529304
0.814584
0.813733
0.772131
0.802041
0.811979
0.780491
0.817227
0.782997
0.709103
0.802812
0.805821
0.567431
0.543398
0.756225
0.807924
0.820404
0.790065
0.811626
0.814776
0.776054
0.805942
0.803492
0.816647
0.829433
0.793126
0.808297
0.811516
0.631495
0.818877
0.699429
0.797245
0.793278
0.777574
0.83558
0.809329
0.796625
0.676276
0.668058
0.803588
0.805671
0.819627
0.804229
0.798375
0.65206
0.815083
0.822079
0.818103
0.812002
0.812844
0.799418
0.790924
0.81414
0.570216
0.80792
0.812188
0.814385
0.812556
0.76528
0.821504
0.801514
0.814178
0.813033
0.753875
0.752437
0.803403
0.803484
0.530067
0.812412
0.811913
0.807102
0.811784
0.803325
0.800948
0.728065
0.71192
0.814355
0.748355
0.757969
0.818444
0.837443
0.81416
0.802181
0.80849
0.812232
0.803454
0.817015
0.782535
0.816946
0.81178
0.810705
0.7951
0.810414
0.792128
0.811808
0.589669
0.79955
0.800394
0.811893
0.81345
0.767589
0.801605
0.812177
0.812398
0.817998
0.770228
0.81828
0.808342
0.752527
0.761703
0.812876
0.805783
0.829155
0.824701
0.823171
0.804301
0.594219
0.778987
0.600317
0.803382
0.802926
0.800761
0.814245
0.874018
0.526055
0.593465
0.838289
0.871979
0.811829
0.690131
0.801979
0.716183
0.806819
0.815721
0.706984
0.650863
0.751114
0.8129
0.47619
0.873549
0.824351
0.798475
0.808783
0.478907
0.739667
0.781718
0.817565
0.804646
0.800559
0.830211
0.812289
0.705546
0.684912
0.801557
0.806069
0.809277
0.811559
0.808795
0.81188
0.735541
0.791177
0.797188
0.802512
0.764054
0.817639
0.807881
0.812833
0.811596
0.755114
0.805604
0.804077
0.793229
0.812111
0.815679
0.806924
0.657228
0.787456
0.81748
0.812833
0.812241
0.807358
0.812682
0.80419
0.821146
0.821498
0.615423
0.855137
0.744026
0.820586
0.804934
0.746968
0.824485
0.800895
0.825441
0.548411
0.799474
0.679118
0.811958
0.809225
0.521931
0.799935
0.804635
0.798009
0.802085
0.800645
0.772245
0.811819
0.592478
0.805721
0.806097
0.799219
0.818301
0.764944
0.811954
0.809323
0.797879
0.816194
0.796499
0.802856
0.81231
0.634129
0.769274
0.733927
0.490225
0.824706
0.568172
0.802615
0.818795
0.856602
0.703028
0.73961
0.812108
0.806105
0.800918
0.793694
0.765909
0.810882
0.812375
0.797105
0.81309
0.816406
0.472047
0.81234
0.813236
0.806338
0.810073
0.604238
0.815164
0.821519
0.705598
0.788777
0.813145
0.801036
0.828175
0.831317
0.804081
0.742447
0.473159
0.813844
0.571048
0.798751
0.803325
0.774699
0.811984
0.750422
0.811278
0.806583
0.803358
0.485976
0.81424
0.827408
0.830555
0.814755
0.803479
0.803223
0.812369
0.75852
0.847321
0.836852
0.709271
0.798627
0.653383
0.77803
0.667532
0.81606
0.836105
0.798942
0.637786
0.765802
0.813647
0.824424
0.832573
0.813628
0.670364
0.53762
0.804597
0.815886
0.801322
0.815808
0.804721
0.771615
0.851136
0.815211
0.804043
0.816734
0.799008
0.744018
0.797995
0.811368
0.596565
0.689132
0.803316
0.810724
0.804808
0.575083
0.811565
0.604805
0.812379
0.767577
0.816877
0.816288
0.753533
0.806541
0.792389
0.80515
0.836866
0.837172
0.831298
0.804784
0.81611
0.579496
0.812414
0.85678
0.825077
0.829267
0.804202
0.820764
0.799322
0.839813
0.80876
0.814388
0.672608
0.630561
0.835727
0.813344
0.840666
0.715868
0.801218
0.763474
0.79721
0.809579
0.793142
0.807034
0.81306
0.822679
0.828093
0.830059
0.805416
0.750132
0.804096
0.729382
0.793188
0.821504
0.800925
0.815043
0.758245
0.805063
0.804352
0.846973
0.809066
0.803409
0.806016
0.834284
0.831343
0.803588
0.856299
0.795949
0.820049
0.661612
0.803165
0.800244
0.79882
0.831705
0.60879
0.806335
0.805555
0.658538
0.814554
0.829324
0.813825
0.803383
0.806044
0.802505
0.816057
0.798893
0.720478
0.513578
0.813375
0.805625
0.801801
0.804517
0.802988
0.803685
0.810707
0.798085
0.813702
0.583278
0.812796
0.809409
0.811868
0.842345
0.813699
0.834218
0.811387
0.797652
0.812772
0.682404
0.80373
0.850231
0.812805
0.793015
0.814168
0.633909
0.805468
0.56648
0.662316
0.673409
0.809555
0.815487
0.812437
0.497226
0.694469
0.80347
0.830771
0.74734
0.83136
0.805161
0.804728
0.796717
0.694505
0.751277
0.547315
0.802769
0.811656
0.804282
0.820857
0.66986
0.622363
0.853997
0.801533
0.814016
0.729041
0.813531
0.526392
0.820819
0.703277
0.813824
0.817502
0.801677
0.802131
0.825158
0.794867
0.803605
0.803889
0.631322
0.806592
0.65317
0.798791
0.798224
0.813711
0.815334
0.729113
0.815382
0.755782
0.803158
0.721401
0.804984
0.745937
0.671495
0.824531
0.812387
0.799115
0.726367
0.81137
0.658409
0.810907
0.802921
0.728342
0.82585
0.816344
0.637513
0.696032
0.825777
0.803658
0.725622
0.833666
0.834721
0.836113
0.811746
0.548209
0.751053
0.82101
0.820308
0.521199
0.640017
0.815593
0.812447
0.721842
0.778389
0.812038
0.807061
0.75796
0.812173
0.813489
0.803573
0.728757
0.802238
0.796905
0.812078
0.576931
0.805563
0.821772
0.574267
0.81815
0.845349
0.812003
0.676607
0.811733
0.811612
0.811839
0.801163
0.818706
0.803249
0.806688
0.804857
0.803313
0.8135
0.485308
0.809883
0.809686
0.691917
0.603195
0.786093
0.798339
0.812078
0.753268
0.564403
0.811423
0.783501
0.81205
0.82149
0.81348
0.825083
0.748321
0.590363
0.811522
0.839066
0.811999
0.709374
0.803474
0.727305
0.813135
0.811068
0.811907
0.817346
0.801254
0.813059
0.808342
0.757543
0.816231
0.812622
0.751766
0.791898
0.710821
0.55859
0.733555
0.781559
0.815808
0.811311
0.810644
0.810574
0.803298
0.795377
0.808068
0.707314
0.753402
0.811579
0.803427
0.80483
0.818347
0.604179
0.81355
0.803895
0.843534
0.807839
0.636339
0.793686
0.803814
0.84246
0.690774
0.561875
0.577016
0.63523
0.817599
0.804503
0.560393
0.58545
0.81994
0.812178
0.889284
0.804806
0.829435
0.81242
0.769435
0.810793
0.812584
0.81207
0.810627
0.812003
0.798008
0.812164
0.641023
0.815712
0.803631
0.809629
0.756663
0.817144
0.610935
0.855445
0.803931
0.826994
0.811998
0.808002
0.748071
0.822261
0.811912
0.837212
0.811786
0.812506
0.641255
0.826751
0.81014
0.812374
0.836592
0.822554
0.553809
0.796458
0.802759
0.810925
0.816952
0.80394
0.800191
0.815196
0.765097
0.804941
0.815841
0.863448
0.831137
0.586831
0.79605
0.754095
0.814018
0.761505
0.819377
0.804839
0.806389
0.812227
0.789124
0.805604
0.815468
0.821832
0.787344
0.668547
0.733791
0.69791
0.814116
0.835895
0.837822
0.733506
0.808842
0.753928
0.609672
0.812024
0.79945
0.811786
0.803576
0.63088
0.80222
0.776501
0.736697
0.810754
0.744627
0.807581
0.816437
0.85973
0.809633
0.807091
0.739966
0.81248
0.775861
0.839372
0.883744
0.797016
0.52054
0.799668
0.607636
0.769282
0.657268
0.799159
0.494697
0.81498
0.849774
0.805931
0.810608
0.819686
0.802836
0.803253
0.69665
0.822939
0.811924
0.804151
0.806596
0.792436
0.803561
0.806807
0.62845
0.816511
0.801999
0.845196
0.807979
0.804372
0.801471
0.812958
0.813072
0.807535
0.803534
0.787525
0.812141
0.795271
0.801729
0.813246
0.771776
0.567077
0.812648
0.818133
0.803982
0.724564
0.801171
0.807695
0.803482
0.698299
0.873072
0.811599
0.816701
0.812026
0.84772
0.778161
0.812098
0.787619
0.815816
0.822017
0.66322
0.812134
0.728573
0.819001
0.718232
0.799468
0.751184
0.802499
0.575692
0.809192
0.735054
0.4764
0.820148
0.661817
0.769066
0.817202
0.812291
0.776534
0.811231
0.718742
0.638113
0.826143
0.698446
0.81668
0.76735
0.801609
0.80793
0.813241
0.652218
0.804318
0.774851
0.809568
0.812041
0.828989
0.806115
0.687528
0.755449
0.651388
0.798171
0.803007
0.811934
0.815383
0.811899
0.811509
0.80935
0.663445
0.731273
0.487966
0.696424
0.813861
0.808093
0.832946
0.809412
0.814667
0.71007
0.874016
0.815138
0.826164
0.571493
0.822851
0.812149
0.840656
0.845524
0.826536
0.830013
0.820152
0.540474
0.805732
0.814894
0.715996
0.816734
0.801302
0.812084
0.807942
0.812569
0.812634
0.767164
0.721229
0.797991
0.800317
0.571713
0.813983
0.858992
0.815278
0.658813
0.822469
0.813089
0.819501
0.835179
0.687553
0.486519
0.804847
0.839824
0.806064
0.803896
0.814179
0.801567
0.812419
0.809486
0.799935
0.804245
0.804684
0.812436
0.805557
0.806166
0.798576
0.836086
0.830655
0.853188
0.812859
0.807371
0.814428
0.812947
0.812039
0.810985
0.815544
0.833954
0.808603
0.811069
0.600811
0.830501
0.710754
0.868154
0.803621
0.833251
0.79904
0.786083
0.785699
0.74002
0.821142
0.810937
0.811497
0.813347
0.77583
0.807839
0.584276
0.806073
0.812957
0.813111
0.795681
0.812025
0.611066
0.783487
0.558277
0.820746
0.796899
0.774528
0.801891
0.813639
0.812394
0.812428
0.737898
0.808237
0.811884
0.810348
0.80365
0.803817
0.747282
0.767282
0.809263
0.803727
0.696355
0.597893
0.489799
0.841007
0.806066
0.778582
0.781205
0.824245
0.803574
0.803964
0.817998
0.77923
0.756994
0.816118
0.807468
0.811132
0.837189
0.804832
0.811701
0.808253
0.483529
0.803444
0.811855
0.773717
0.819383
0.814173
0.825564
0.599523
0.710323
0.573012
0.828243
0.815572
0.743297
0.811831
0.676747
0.813723
0.810626
0.811854
0.803101
0.811835
0.576913
0.686375
0.806117
0.813265
0.793697
0.801273
0.831013
0.798701
0.803009
0.642994
0.807757
0.811916
0.804282
0.812223
0.80274
0.616975
0.814261
0.812339
0.572454
0.697173
0.793122
0.828151
0.697513
0.803999
0.793641
0.812097
0.756556
0.684941
0.810397
0.795902
0.799315
0.766347
0.540653
0.820213
0.673511
0.747674
0.7313
0.803971
0.797316
0.811416
0.660103
0.767567
0.803973
0.814957
0.592613
0.798911
0.825746
0.807171
0.539181
0.805599
0.783416
0.70716
0.705887
0.8004
0.819092
0.81297
0.808641
0.699553
0.73964
0.641447
0.832294
0.842872
0.816866
0.788163
0.865204
0.696847
0.813314
0.766752
0.790228
0.795529
0.81193
0.803987
0.811555
0.787084
0.755252
0.819719
0.796748
0.842108
0.719335
0.791389
0.80552
0.723253
0.803231
0.814452
0.57598
0.801947
0.798979
0.802794
0.821158
0.76427
0.800169
0.722625
0.812109
0.808831
0.725208
0.81211
0.816183
0.828628
0.805589
0.787113
0.797659
0.805626
0.726511
0.812422
0.80118
0.677576
0.806896
0.780278
0.831875
0.820866
0.818976
0.839283
0.848247
0.699143
0.813691
0.795534
0.787307
0.617538
0.816926
0.803646
0.812193
0.77616
0.853451
0.832783
0.781806
0.842031
0.779785
0.800637
0.771966
0.812185
0.721701
0.635804
0.844186
0.661008
0.792813
0.839709
0.812404
0.671176
0.809237
0.7519
0.803974
0.799006
0.781344
0.804158
0.801077
0.802798
0.801896
0.785614
0.811992
0.781425
0.816238
0.80747
0.712695
0.783853
0.81515
0.812426
0.80549
0.56406
0.825099
0.812838
0.812016
0.703489
0.804774
0.801105
0.801322
0.815874
0.746211
0.815957
0.800572
0.804578
0.755227
0.811454
0.812743
0.805918
0.769008
0.807915
0.812958
0.808047
0.815816
0.808327
0.806068
0.822914
0.804601
0.788753
0.806225
0.81216
0.818156
0.778747
0.703558
0.813749
0.81218
0.800771
0.742475
0.788809
0.654094
0.803392
0.540253
0.803171
0.814396
0.774899
0.834577
0.515346
0.809452
0.738453
0.81045
0.53429
0.804365
0.827834
0.8133
0.818712
0.734291
0.840921
0.553654
0.823526
0.70253
0.799579
0.477657
0.669884
0.812538
0.812028
0.741755
0.801002
0.820863
0.612064
0.821986
0.770907
0.833481
0.812033
0.814136
0.813119
0.803829
0.836824
0.810671
0.803762
0.476148
0.803112
0.843477
0.80224
0.80135
0.767593
0.805425
0.811973
0.812128
0.796618
0.734323
0.810416
0.815479
0.603026
0.804168
0.537021
0.81564
0.539626
0.811973
0.770404
0.682556
0.733456
0.783089
0.713073
0.841543
0.813714
0.796891
0.803978
0.703355
0.80256
0.78946
0.802451
0.814965
0.801724
0.731391
0.698009
0.800625
0.772293
0.518979
0.811189
0.663353
0.794109
0.705549
0.825029
0.809423
0.825041
0.810199
0.837178
0.807272
0.580041
0.82923
0.807029
0.801562
0.815418
0.811965
0.812582
0.814575
0.825118
0.816376
0.618105
0.804751
0.80066
0.812882
0.692199
0.802316
0.823256
0.756389
0.688595
0.807518
0.68842
0.731699
0.810054
0.812697
0.668566
0.841465
0.766955
0.805395
0.796465
0.809779
0.844485
0.801067
0.538892
0.814878
0.708131
0.526072
0.778179
0.758145
0.769544
0.81218
0.803518
0.816377
0.811996
0.585835
0.787499
0.831254
0.812078
0.591233
0.721572
0.634956
0.816645
0.810449
0.69095
0.803987
0.812155
0.799347
0.834227
0.606144
0.840331
0.74015
0.811948
0.812458
0.669293
0.812521
0.720914
0.791822
0.716433
0.81189
0.784458
0.633951
0.724186
0.712397
0.833137
0.809396
0.81931
0.822021
0.803346
0.808518
0.802831
0.817628
0.803258
0.687143
0.803441
0.603513
0.776726
0.80718
0.802324
0.812152
0.824252
0.803329
0.716976
0.710365
0.667235
0.790293
0.81672
0.749045
0.579651
0.751499
0.810236
0.801857
0.760208
0.803597
0.823141
0.753238
0.568822
0.702078
0.798635
0.812151
0.864287
0.814612
0.811755
0.851812
0.79959
0.801854
0.814393
0.812249
0.805353
0.71765
0.80915
0.695501
0.862225
0.778679
0.81342
0.574326
0.796522
0.529213
0.583255
0.585157
0.807916
0.803633
0.80927
0.758167
0.803556
0.532296
0.782232
0.802935
0.73458
0.81433
0.801655
0.815832
0.842882
0.513943
0.812039
0.802084
0.809584
0.81673
0.812868
0.812337
0.754155
0.797178
0.798796
0.803234
0.797594
0.810722
0.845324
0.818556
0.723725
0.804682
0.607734
0.813198
0.812049
0.586599
0.766858
0.766924
0.536353
0.784279
0.803642
0.878259
0.798391
0.813105
0.755221
0.794421
0.797072
0.809245
0.782682
0.542002
0.71102
0.68043
0.781055
0.814652
0.802895
0.821822
0.790236
0.801831
0.812793
0.798108
0.852147
0.704645
0.811864
0.780681
0.530985
0.516054
0.812906
0.803546
0.805445
0.560411
0.796987
0.803744
0.659132
0.81373
0.790625
0.806575
0.814815
0.533643
0.724503
0.718828
0.812458
0.832025
0.629972
0.789832
0.717011
0.813603
0.827256
0.779437
0.773167
0.535224
0.81153
0.802409
0.72366
0.852043
0.805818
0.722752
0.739864
0.763887
0.81081
0.563443
0.796701
0.737953
0.800328
0.821861
0.720154
0.799202
0.811762
0.716523
0.813012
0.705982
0.815991
0.798232
0.759655
0.689957
0.808917
0.800005
0.813376
0.669584
0.805374
0.804869
0.811601
0.699467
0.812155
0.808401
0.831751
0.650238
0.815498
0.740767
0.811944
0.805734
0.8422
0.803686
0.818923
0.749039
0.815191
0.83879
0.832817
0.816451
0.845613
0.752307
0.847777
0.82602
0.803854
0.825746
0.805615
0.646626
0.778085
0.813934
0.746823
0.695206
0.798484
0.804096
0.680092
0.797467
0.537997
0.848476
0.696167
0.706233
0.813577
0.77448
0.8069
0.798936
0.806962
0.80389
0.812037
0.83565
0.730046
0.772155
0.58825
0.810026
0.777026
0.810911
0.805117
0.570054
0.802909
0.802532
0.807506
0.798659
0.81674
0.808156
0.70978
0.823131
0.847944
0.684437
0.743639
0.812192
0.800956
0.712385
0.814292
0.754366
0.796791
0.802907
0.805368
0.837148
0.668737
0.72324
0.800803
0.702016
0.772649
0.832151
0.532032
0.691284
0.799585
0.804291
0.803366
0.741743
0.822385
0.806905
0.803664
0.808134
0.813314
0.696094
0.649264
0.809679
0.813816
0.799264
0.871512
0.802741
0.812378
0.79905
0.809972
0.81129
0.808373
0.653086
0.81475
0.816593
0.803441
0.801903
0.799406
0.617308
0.809726
0.810533
0.812441
0.862349
0.814441
0.801493
0.480733
0.836348
0.692699
0.826399
0.805791
0.81379
0.824042
0.809113
0.81209
0.730998
0.551387
0.491809
0.812352
0.808978
0.534153
0.795568
0.814506
0.833288
0.504111
0.809585
0.813449
0.802282
0.80909
0.530338
0.813136
0.808251
0.559975
0.812233
0.815278
0.538822
0.808787
0.812686
0.775843
0.806296
0.811184
0.809525
0.799023
0.825885
0.533864
0.830194
0.81581
0.804071
0.742112
0.786205
0.811382
0.809398
0.802145
0.815956
0.800708
0.657204
0.806186
0.583881
0.81199
0.659874
0.746334
0.797003
0.718301
0.803544
0.579743
0.849739
0.812229
0.812358
0.799296
0.802717
0.803182
0.813648
0.814383
0.670122
0.717747
0.726271
0.814797
0.721425
0.575177
0.817411
0.783733
0.827886
0.811713
0.809387
0.732521
0.535968
0.798727
0.790062
0.496275
0.813868
0.81303
0.73561
0.80592
0.768529
0.607111
0.809974
0.814656
0.78866
0.609819
0.802315
0.782977
0.82636
0.812998
0.810412
0.811901
0.812858
0.715645
0.800093
0.815758
0.694826
0.480624
0.732986
0.79881
0.730826
0.813035
0.798154
0.805531
0.78258
0.867331
0.803556
0.801676
0.825788
0.859334
0.804619
0.815714
0.79436
0.815928
0.789168
0.744023
0.811919
0.804265
0.816247
0.803251
0.790838
0.842805
0.766106
0.812756
0.773395
0.803742
0.642569
0.509476
0.800992
0.802172
0.809555
0.798157
0.799699
0.811951
0.772919
0.804641
0.812033
0.782222
0.816931
0.777165
0.593396
0.805051
0.760901
0.776219
0.750488
0.763668
0.793929
0.788586
0.823043
0.787523
0.809426
0.803369
0.765153
0.815541
0.542329
0.72957
0.810571
0.814023
0.811437
0.802354
0.812863
0.810543
0.805758
0.821179
0.809692
0.782964
0.816631
0.801718
0.790505
0.795901
0.805172
0.586174
0.803628
0.792181
0.574555
0.813204
0.80724
0.80605
0.810765
0.702383
0.754871
0.821132
0.774898
0.811395
0.816351
0.722157
0.804485
0.824125
0.720094
0.799435
0.809545
0.778589
0.804748
0.836996
0.801913
0.817349
0.77255
0.805341
0.800325
0.813106
0.802142
0.797931
0.588765
0.815244
0.786754
0.806639
0.825643
0.691243
0.82857
0.819985
0.505411
0.80641
0.804456
0.801511
0.812295
0.82426
0.82408
0.804914
0.805937
0.814195
0.813381
0.803523
0.812596
0.804754
0.749275
0.708322
0.780931
0.813693
0.812116
0.775887
0.757813
0.813932
0.824953
0.81053
0.812249
0.691652
0.500847
0.747774
0.817558
0.806744
0.816268
0.844204
0.799909
0.714955
0.654309
0.799699
0.804721
0.69429
0.812698
0.671276
0.836829
0.729262
0.81288
0.89526
0.815616
0.800839
0.777763
0.81111
0.681567
0.814198
0.808249
0.791524
0.805636
0.779417
0.800683
0.810036
0.780497
0.803578
0.852077
0.777011
0.802135
0.493057
0.803194
0.693928
0.804101
0.794457
0.788582
0.783642
0.722249
0.802123
0.78821
0.844472
0.813314
0.812473
0.811812
0.895518
0.746454
0.80274
0.730899
0.803159
0.798403
0.804516
0.716809
0.800957
0.805507
0.639195
0.808688
0.74861
0.534472
0.846526
0.847348
0.750066
0.810769
0.794681
0.772053
0.731806
0.776012
0.785498
0.736255
0.803857
0.804437
0.71955
0.815338
0.804982
0.556932
0.812025
0.821468
0.81327
0.803509
0.610742
0.715079
0.806278
0.859187
0.483909
0.724576
0.806479
0.815967
0.79647
0.713195
0.710792
0.809028
0.813263
0.815036
0.837097
0.745172
0.754421
0.875753
0.806878
0.809252
0.795178
0.637675
0.597859
0.586063
0.657078
0.586343
0.76424
0.800751
0.803401
0.812298
0.809149
0.811482
0.860171
0.715508
0.823889
0.813921
0.817115
0.816665
0.813849
0.812995