# vtk DataFile Version 1.0
unstructured grid
ascii
DATASET UNSTRUCTURED_GRID
points 14760 float
-1 0 0
-1 1 0
2 0 0
2 1 0
0 0 0
1 0 0
-1 1 0.1
-1 0 0.1
0 0 0.1
1 0 0.1
2 0 0.1
2 1 0.1
-0.99 0 0
-0.98 0 0
-0.97 0 0
-0.96 0 0
-0.95 0 0
-0.94 0 0
-0.93 0 0
-0.92 0 0
-0.91 0 0
-0.9 0 0
-0.89 0 0
-0.88 0 0
-0.87 0 0
-0.86 0 0
-0.85 0 0
-0.84 0 0
-0.83 0 0
-0.82 0 0
-0.81 0 0
-0.8 0 0
-0.79 0 0
-0.78 0 0
-0.77 0 0
-0.76 0 0
-0.75 0 0
-0.74 0 0
-0.73 0 0
-0.72 0 0
-0.71 0 0
-0.7 0 0
-0.69 0 0
-0.68 0 0
-0.67 0 0
-0.66 0 0
-0.65 0 0
-0.64 0 0
-0.63 0 0
-0.62 0 0
-0.61 0 0
-0.6 0 0
-0.59 0 0
-0.58 0 0
-0.57 0 0
-0.56 0 0
-0.55 0 0
-0.54 0 0
-0.53 0 0
-0.52 0 0
-0.51 0 0
-0.5 0 0
-0.49 0 0
-0.48 0 0
-0.47 0 0
-0.46 0 0
-0.45 0 0
-0.44 0 0
-0.43 0 0
-0.42 0 0
-0.41 0 0
-0.4 0 0
-0.39 0 0
-0.38 0 0
-0.37 0 0
-0.36 0 0
-0.35 0 0
-0.34 0 0
-0.33 0 0
-0.32 0 0
-0.31 0 0
-0.3 0 0
-0.29 0 0
-0.28 0 0
-0.27 0 0
-0.26 0 0
-0.25 0 0
-0.24 0 0
-0.23 0 0
-0.22 0 0
-0.21 0 0
-0.2 0 0
-0.19 0 0
-0.18 0 0
-0.17 0 0
-0.16 0 0
-0.15 0 0
-0.14 0 0
-0.13 0 0
-0.12 0 0
-0.11 0 0
-0.1 0 0
-0.09 0 0
-0.08 0 0
-0.07 0 0
-0.06 0 0
-0.05 0 0
-0.04 0 0
-0.03 0 0
-0.02 0 0
-0.01 0 0
1.01 0 0
1.02 0 0
1.03 0 0
1.04 0 0
1.05 0 0
1.06 0 0
1.07 0 0
1.08 0 0
1.09 0 0
1.1 0 0
1.11 0 0
1.12 0 0
1.13 0 0
1.14 0 0
1.15 0 0
1.16 0 0
1.17 0 0
1.18 0 0
1.19 0 0
1.2 0 0
1.21 0 0
1.22 0 0
1.23 0 0
1.24 0 0
1.25 0 0
1.26 0 0
1.27 0 0
1.28 0 0
1.29 0 0
1.3 0 0
1.31 0 0
1.32 0 0
1.33 0 0
1.34 0 0
1.35 0 0
1.36 0 0
1.37 0 0
1.38 0 0
1.39 0 0
1.4 0 0
1.41 0 0
1.42 0 0
1.43 0 0
1.44 0 0
1.45 0 0
1.46 0 0
1.47 0 0
1.48 0 0
1.49 0 0
1.5 0 0
1.51 0 0
1.52 0 0
1.53 0 0
1.54 0 0
1.55 0 0
1.56 0 0
1.57 0 0
1.58 0 0
1.59 0 0
1.6 0 0
1.61 0 0
1.62 0 0
1.63 0 0
1.64 0 0
1.65 0 0
1.66 0 0
1.67 0 0
1.68 0 0
1.69 0 0
1.7 0 0
1.71 0 0
1.72 0 0
1.73 0 0
1.74 0 0
1.75 0 0
1.76 0 0
1.77 0 0
1.78 0 0
1.79 0 0
1.8 0 0
1.81 0 0
1.82 0 0
1.83 0 0
1.84 0 0
1.85 0 0
1.86 0 0
1.87 0 0
1.88 0 0
1.89 0 0
1.9 0 0
1.91 0 0
1.92 0 0
1.93 0 0
1.94 0 0
1.95 0 0
1.96 0 0
1.97 0 0
1.98 0 0
1.99 0 0
2 0.0100088 0
2 0.0204183 0
2 0.0312446 0
2 0.0425043 0
2 0.0542147 0
2 0.066394 0
2 0.079061 0
2 0.092235 0
2 0.105936 0
2 0.120186 0
2 0.135007 0
2 0.150421 0
2 0.166452 0
2 0.183124 0
2 0.200465 0
2 0.218499 0
2 0.237256 0
2 0.256763 0
2 0.277051 0
2 0.298152 0
2 0.320097 0
2 0.342921 0
2 0.366659 0
2 0.391347 0
2 0.417024 0
2 0.443728 0
2 0.471502 0
2 0.500387 0
2 0.530429 0
2 0.561674 0
2 0.594169 0
2 0.627966 0
2 0.663115 0
2 0.699672 0
2 0.737692 0
2 0.777235 0
2 0.818361 0
2 0.861133 0
2 0.905617 0
2 0.951882 0
1.95 1 0
1.9 1 0
1.85 1 0
1.8 1 0
1.75 1 0
1.7 1 0
1.65 1 0
1.6 1 0
1.55 1 0
1.5 1 0
1.45 1 0
1.4 1 0
1.35 1 0
1.3 1 0
1.25 1 0
1.2 1 0
1.15 1 0
1.1 1 0
1.05 1 0
1 1 0
0.95 1 0
0.9 1 0
0.85 1 0
0.8 1 0
0.75 1 0
0.7 1 0
0.65 1 0
0.6 1 0
0.55 1 0
0.5 1 0
0.45 1 0
0.4 1 0
0.35 1 0
0.3 1 0
0.25 1 0
0.2 1 0
0.15 1 0
0.1 1 0
0.05 1 0
3.69793e-12 1 0
-0.05 1 0
-0.1 1 0
-0.15 1 0
-0.2 1 0
-0.25 1 0
-0.3 1 0
-0.35 1 0
-0.4 1 0
-0.45 1 0
-0.5 1 0
-0.55 1 0
-0.6 1 0
-0.65 1 0
-0.7 1 0
-0.75 1 0
-0.8 1 0
-0.85 1 0
-0.9 1 0
-0.95 1 0
-1 0.951882 0
-1 0.905617 0
-1 0.861133 0
-1 0.818361 0
-1 0.777235 0
-1 0.737692 0
-1 0.699672 0
-1 0.663115 0
-1 0.627966 0
-1 0.594169 0
-1 0.561674 0
-1 0.530429 0
-1 0.500387 0
-1 0.471502 0
-1 0.443728 0
-1 0.417024 0
-1 0.391347 0
-1 0.366659 0
-1 0.342921 0
-1 0.320097 0
-1 0.298152 0
-1 0.277051 0
-1 0.256763 0
-1 0.237256 0
-1 0.218499 0
-1 0.200465 0
-1 0.183124 0
-1 0.166452 0
-1 0.150421 0
-1 0.135007 0
-1 0.120186 0
-1 0.105936 0
-1 0.092235 0
-1 0.079061 0
-1 0.066394 0
-1 0.0542147 0
-1 0.0425043 0
-1 0.0312446 0
-1 0.0204183 0
-1 0.0100088 0
0.00921362 0.00379763 0
0.0184561 0.00752451 0
0.0277268 0.0111804 0
0.0370253 0.0147652 0
0.0463511 0.0182786 0
0.0557034 0.0217203 0
0.0650819 0.0250903 0
0.074486 0.0283883 0
0.083915 0.0316141 0
0.0933685 0.0347675 0
0.102846 0.0378484 0
0.112347 0.0408565 0
0.12187 0.0437917 0
0.131416 0.0466538 0
0.140983 0.0494427 0
0.150572 0.0521581 0
0.160181 0.0547999 0
0.16981 0.0573681 0
0.179458 0.0598623 0
0.189125 0.0622825 0
0.198811 0.0646285 0
0.208514 0.0669001 0
0.218234 0.0690974 0
0.227971 0.07122 0
0.237724 0.073268 0
0.247493 0.0752411 0
0.257276 0.0771393 0
0.267073 0.0789625 0
0.276884 0.0807105 0
0.286708 0.0823832 0
0.296545 0.0839806 0
0.306394 0.0855025 0
0.316254 0.0869488 0
0.326125 0.0883196 0
0.336006 0.0896146 0
0.345896 0.0908339 0
0.355796 0.0919773 0
0.365704 0.0930447 0
0.375621 0.0940362 0
0.385544 0.0949517 0
0.395474 0.095791 0
0.40541 0.0965542 0
0.415352 0.0972412 0
0.425299 0.097852 0
0.43525 0.0983865 0
0.445205 0.0988447 0
0.455164 0.0992266 0
0.465125 0.0995321 0
0.475088 0.0997613 0
0.485052 0.0999141 0
0.495017 0.0999904 0
0.504983 0.0999904 0
0.514948 0.0999141 0
0.524912 0.0997613 0
0.534875 0.0995321 0
0.544836 0.0992266 0
0.554795 0.0988447 0
0.56475 0.0983865 0
0.574701 0.097852 0
0.584648 0.0972412 0
0.59459 0.0965542 0
0.604526 0.095791 0
0.614456 0.0949517 0
0.624379 0.0940362 0
0.634296 0.0930447 0
0.644204 0.0919773 0
0.654104 0.0908339 0
0.663994 0.0896146 0
0.673875 0.0883196 0
0.683746 0.0869488 0
0.693606 0.0855025 0
0.703455 0.0839806 0
0.713292 0.0823832 0
0.723116 0.0807105 0
0.732927 0.0789625 0
0.742724 0.0771393 0
0.752508 0.0752411 0
0.762276 0.073268 0
0.772029 0.07122 0
0.781766 0.0690974 0
0.791486 0.0669001 0
0.801189 0.0646285 0
0.810875 0.0622825 0
0.820542 0.0598623 0
0.83019 0.0573681 0
0.839819 0.0547999 0
0.849428 0.0521581 0
0.859017 0.0494427 0
0.868584 0.0466538 0
0.87813 0.0437917 0
0.887653 0.0408565 0
0.897154 0.0378484 0
0.906631 0.0347675 0
0.916085 0.0316141 0
0.925514 0.0283883 0
0.934918 0.0250903 0
0.944297 0.0217203 0
0.953649 0.0182786 0
0.962975 0.0147652 0
0.972273 0.0111804 0
0.981544 0.00752451 0
0.990786 0.00379763 0
-1 0.951882 0.1
-1 0.905617 0.1
-1 0.861133 0.1
-1 0.818361 0.1
-1 0.777235 0.1
-1 0.737692 0.1
-1 0.699672 0.1
-1 0.663115 0.1
-1 0.627966 0.1
-1 0.594169 0.1
-1 0.561674 0.1
-1 0.530429 0.1
-1 0.500387 0.1
-1 0.471502 0.1
-1 0.443728 0.1
-1 0.417024 0.1
-1 0.391347 0.1
-1 0.366659 0.1
-1 0.342921 0.1
-1 0.320097 0.1
-1 0.298152 0.1
-1 0.277051 0.1
-1 0.256763 0.1
-1 0.237256 0.1
-1 0.218499 0.1
-1 0.200465 0.1
-1 0.183124 0.1
-1 0.166452 0.1
-1 0.150421 0.1
-1 0.135007 0.1
-1 0.120186 0.1
-1 0.105936 0.1
-1 0.092235 0.1
-1 0.079061 0.1
-1 0.066394 0.1
-1 0.0542147 0.1
-1 0.0425043 0.1
-1 0.0312446 0.1
-1 0.0204183 0.1
-1 0.0100088 0.1
-0.99 0 0.1
-0.98 0 0.1
-0.97 0 0.1
-0.96 0 0.1
-0.95 0 0.1
-0.94 0 0.1
-0.93 0 0.1
-0.92 0 0.1
-0.91 0 0.1
-0.9 0 0.1
-0.89 0 0.1
-0.88 0 0.1
-0.87 0 0.1
-0.86 0 0.1
-0.85 0 0.1
-0.84 0 0.1
-0.83 0 0.1
-0.82 0 0.1
-0.81 0 0.1
-0.8 0 0.1
-0.79 0 0.1
-0.78 0 0.1
-0.77 0 0.1
-0.76 0 0.1
-0.75 0 0.1
-0.74 0 0.1
-0.73 0 0.1
-0.72 0 0.1
-0.71 0 0.1
-0.7 0 0.1
-0.69 0 0.1
-0.68 0 0.1
-0.67 0 0.1
-0.66 0 0.1
-0.65 0 0.1
-0.64 0 0.1
-0.63 0 0.1
-0.62 0 0.1
-0.61 0 0.1
-0.6 0 0.1
-0.59 0 0.1
-0.58 0 0.1
-0.57 0 0.1
-0.56 0 0.1
-0.55 0 0.1
-0.54 0 0.1
-0.53 0 0.1
-0.52 0 0.1
-0.51 0 0.1
-0.5 0 0.1
-0.49 0 0.1
-0.48 0 0.1
-0.47 0 0.1
-0.46 0 0.1
-0.45 0 0.1
-0.44 0 0.1
-0.43 0 0.1
-0.42 0 0.1
-0.41 0 0.1
-0.4 0 0.1
-0.39 0 0.1
-0.38 0 0.1
-0.37 0 0.1
-0.36 0 0.1
-0.35 0 0.1
-0.34 0 0.1
-0.33 0 0.1
-0.32 0 0.1
-0.31 0 0.1
-0.3 0 0.1
-0.29 0 0.1
-0.28 0 0.1
-0.27 0 0.1
-0.26 0 0.1
-0.25 0 0.1
-0.24 0 0.1
-0.23 0 0.1
-0.22 0 0.1
-0.21 0 0.1
-0.2 0 0.1
-0.19 0 0.1
-0.18 0 0.1
-0.17 0 0.1
-0.16 0 0.1
-0.15 0 0.1
-0.14 0 0.1
-0.13 0 0.1
-0.12 0 0.1
-0.11 0 0.1
-0.1 0 0.1
-0.09 0 0.1
-0.08 0 0.1
-0.07 0 0.1
-0.06 0 0.1
-0.05 0 0.1
-0.04 0 0.1
-0.03 0 0.1
-0.02 0 0.1
-0.01 0 0.1
0.00921362 0.00379763 0.1
0.0184561 0.00752451 0.1
0.0277268 0.0111804 0.1
0.0370253 0.0147652 0.1
0.0463511 0.0182786 0.1
0.0557034 0.0217203 0.1
0.0650819 0.0250903 0.1
0.074486 0.0283883 0.1
0.083915 0.0316141 0.1
0.0933685 0.0347675 0.1
0.102846 0.0378484 0.1
0.112347 0.0408565 0.1
0.12187 0.0437917 0.1
0.131416 0.0466538 0.1
0.140983 0.0494427 0.1
0.150572 0.0521581 0.1
0.160181 0.0547999 0.1
0.16981 0.0573681 0.1
0.179458 0.0598623 0.1
0.189125 0.0622825 0.1
0.198811 0.0646285 0.1
0.208514 0.0669001 0.1
0.218234 0.0690974 0.1
0.227971 0.07122 0.1
0.237724 0.073268 0.1
0.247493 0.0752411 0.1
0.257276 0.0771393 0.1
0.267073 0.0789625 0.1
0.276884 0.0807105 0.1
0.286708 0.0823832 0.1
0.296545 0.0839806 0.1
0.306394 0.0855025 0.1
0.316254 0.0869488 0.1
0.326125 0.0883196 0.1
0.336006 0.0896146 0.1
0.345896 0.0908339 0.1
0.355796 0.0919773 0.1
0.365704 0.0930447 0.1
0.375621 0.0940362 0.1
0.385544 0.0949517 0.1
0.395474 0.095791 0.1
0.40541 0.0965542 0.1
0.415352 0.0972412 0.1
0.425299 0.097852 0.1
0.43525 0.0983865 0.1
0.445205 0.0988447 0.1
0.455164 0.0992266 0.1
0.465125 0.0995321 0.1
0.475088 0.0997613 0.1
0.485052 0.0999141 0.1
0.495017 0.0999904 0.1
0.504983 0.0999904 0.1
0.514948 0.0999141 0.1
0.524912 0.0997613 0.1
0.534875 0.0995321 0.1
0.544836 0.0992266 0.1
0.554795 0.0988447 0.1
0.56475 0.0983865 0.1
0.574701 0.097852 0.1
0.584648 0.0972412 0.1
0.59459 0.0965542 0.1
0.604526 0.095791 0.1
0.614456 0.0949517 0.1
0.624379 0.0940362 0.1
0.634296 0.0930447 0.1
0.644204 0.0919773 0.1
0.654104 0.0908339 0.1
0.663994 0.0896146 0.1
0.673875 0.0883196 0.1
0.683746 0.0869488 0.1
0.693606 0.0855025 0.1
0.703455 0.0839806 0.1
0.713292 0.0823832 0.1
0.723116 0.0807105 0.1
0.732927 0.0789625 0.1
0.742724 0.0771393 0.1
0.752508 0.0752411 0.1
0.762276 0.073268 0.1
0.772029 0.07122 0.1
0.781766 0.0690974 0.1
0.791486 0.0669001 0.1
0.801189 0.0646285 0.1
0.810875 0.0622825 0.1
0.820542 0.0598623 0.1
0.83019 0.0573681 0.1
0.839819 0.0547999 0.1
0.849428 0.0521581 0.1
0.859017 0.0494427 0.1
0.868584 0.0466538 0.1
0.87813 0.0437917 0.1
0.887653 0.0408565 0.1
0.897154 0.0378484 0.1
0.906631 0.0347675 0.1
0.916085 0.0316141 0.1
0.925514 0.0283883 0.1
0.934918 0.0250903 0.1
0.944297 0.0217203 0.1
0.953649 0.0182786 0.1
0.962975 0.0147652 0.1
0.972273 0.0111804 0.1
0.981544 0.00752451 0.1
0.990786 0.00379763 0.1
1.01 0 0.1
1.02 0 0.1
1.03 0 0.1
[...]
CELL_DATA 14313
SCALARS rho float
LOOKUP_TABLE default
0.787108
0.825445
0.806416
0.562923
0.775037
0.821629
0.821426
0.82145
0.811469
0.816104
0.821844
0.799547
0.800777
0.612224
0.82143
0.836747
0.809957
0.80817
0.818296
0.805897
0.820483
0.814213
0.821425
0.774827
0.820838
0.815622
0.749411
0.697195
0.824912
0.829528
0.821351
0.795346
0.803644
0.820812
0.80549
0.8188
0.693856
0.81006
0.820438
0.803783
0.760003
0.820106
0.566698
0.714252
0.824307
0.838983
0.819427
0.779532
0.809678
0.854742
0.689713
0.664853
0.626971
0.818717
0.825654
0.784821
0.824293
0.815044
0.811237
0.821043
0.821656
0.825017
0.795321
0.842327
0.820067
0.821485
0.856663
0.785854
0.844685
0.821422
0.799015
0.836343
0.659126
0.8413
0.741067
0.813866
0.82714
0.753942
0.705675
0.820883
0.607586
0.829873
0.836457
0.80404
0.812458
0.825666
0.821596
0.80529
0.830181
0.807493
0.782372
0.613384
0.808486
0.80177
0.741065
0.804213
0.822223
0.818136
0.804369
0.660331
0.812914
0.818557
0.821427
0.818545
0.756051
0.81015
0.804179
0.708511
0.838871
0.818196
0.814217
0.8304
0.819697
0.8257
0.804768
0.832502
0.825799
0.840374
0.781358
0.802313
0.820373
0.81826
0.861797
0.736118
0.846363
0.762568
0.795749
0.80529
0.82228
0.8459
0.818093
0.82135
0.86303
0.821348
0.829094
0.784793
0.809985
0.793452
0.824349
0.824189
0.821425
0.823049
0.80353
0.803735
0.797465
0.843281
0.806524
0.764123
0.800609
0.824202
0.801282
0.804012
0.821428
0.72041
0.826601
0.804107
0.731036
0.827243
0.821
0.812643
0.825021
0.809601
0.688699
0.761493
0.828959
0.82683
0.721118
0.820976
0.833173
0.818067
0.701842
0.816569
0.72235
0.794221
0.816332
0.828641
0.815882
0.819753
0.827116
0.749846
0.820874
0.818157
0.779421
0.770895
0.791855
0.814251
0.821437
0.797894
0.536061
0.792686
0.763507
0.750929
0.771761
0.730138
0.821012
0.82195
0.808479
0.80394
0.813807
0.823805
0.767143
0.804255
0.83361
0.822431
0.837946
0.803664
0.816896
0.814617
0.820983
0.837961
0.806803
0.81672
0.80108
0.709869
0.821703
0.824171
0.818495
0.809847
0.838837
0.805164
0.803862
0.819742
0.813714
0.8585
0.815013
0.804272
0.824672
0.803199
0.821448
0.764349
0.68074
0.815736
0.706712
0.832149
0.803167
0.73661
0.819995
0.821652
0.821881
0.828771
0.792571
0.695829
0.757606
0.636294
0.822402
0.731714
0.803394
0.807939
0.841692
0.817735
0.596437
0.804729
0.735072
0.841746
0.804059
0.707268
0.816976
0.832152
0.822219
0.589166
0.813666
0.804004
0.805625
0.812149
0.793785
0.779787
0.816078
0.815895
0.587769
0.822278
0.821537
0.774664
0.802666
0.821869
0.782315
0.823496
0.7902
0.722528
0.803443
0.806402
0.589617
0.56743
0.762444
0.81575
0.826716
0.791467
0.821561
0.822418
0.778171
0.807023
0.804063
0.823723
0.83459
0.799208
0.808742
0.814424
0.665847
0.822787
0.720876
0.801328
0.794261
0.779198
0.839865
0.810084
0.800526
0.693441
0.686532
0.808907
0.808471
0.820216
0.80468
0.802512
0.663765
0.82246
0.823297
0.818659
0.821864
0.820769
0.803522
0.795916
0.822031
0.660621
0.81635
0.821486
0.82211
0.820942
0.772516
0.826871
0.802932
0.822049
0.820831
0.753497
0.758242
0.803587
0.803656
0.665308
0.821388
0.814553
0.80979
0.819915
0.8053
0.801414
0.734334
0.721371
0.822103
0.755151
0.764217
0.821886
0.841882
0.82193
0.805092
0.808924
0.821349
0.803934
0.824001
0.789753
0.823949
0.812464
0.819577
0.80027
0.8187
0.798269
0.821477
0.605354
0.802168
0.802919
0.814757
0.817624
0.774257
0.80225
0.821373
0.821425
0.82476
0.771889
0.819015
0.813771
0.762409
0.761864
0.813289
0.812714
0.834345
0.830374
0.824348
0.806908
0.634749
0.785782
0.624793
0.803877
0.803188
0.807864
0.821806
0.876171
0.553311
0.622264
0.842295
0.874178
0.819582
0.699567
0.805466
0.731954
0.813418
0.817988
0.715528
0.663982
0.759219
0.820849
0.666963
0.875711
0.830027
0.805218
0.809656
0.662437
0.752084
0.787503
0.824423
0.80745
0.80365
0.835252
0.821452
0.719161
0.699687
0.80295
0.807287
0.818984
0.821274
0.809195
0.821665
0.745612
0.792121
0.797991
0.803771
0.771265
0.824478
0.80833
0.821425
0.821278
0.764781
0.806116
0.804508
0.799677
0.821535
0.821681
0.813172
0.674246
0.789093
0.822769
0.813228
0.819232
0.80819
0.820754
0.808184
0.826431
0.826955
0.683593
0.858342
0.750968
0.826868
0.810918
0.744189
0.828208
0.80128
0.830954
0.57196
0.803639
0.694315
0.821698
0.810084
0.58164
0.801621
0.80546
0.798755
0.802737
0.807747
0.778598
0.821528
0.620884
0.806975
0.807027
0.801203
0.824631
0.771667
0.821677
0.818484
0.801912
0.823369
0.800433
0.803531
0.821441
0.646712
0.775713
0.744279
0.534922
0.830375
0.592407
0.803186
0.825369
0.859743
0.715667
0.752032
0.821529
0.807012
0.8038
0.800112
0.773988
0.819491
0.821441
0.79965
0.821489
0.818149
0.664416
0.82107
0.821474
0.806799
0.819845
0.628354
0.822095
0.827461
0.723229
0.790288
0.821516
0.801504
0.832059
0.834868
0.80448
0.741145
0.662733
0.821616
0.591542
0.802515
0.803627
0.774019
0.821863
0.75543
0.820711
0.80688
0.803667
0.531698
0.82183
0.83269
0.835602
0.819171
0.803989
0.803638
0.821192
0.758529
0.850869
0.8405
0.725133
0.802223
0.665122
0.780285
0.680894
0.822047
0.840431
0.803098
0.662937
0.773902
0.82171
0.830065
0.836619
0.81808
0.701078
0.564221
0.807411
0.822889
0.804162
0.818532
0.809938
0.774067
0.854782
0.822173
0.804469
0.823485
0.799642
0.742466
0.802154
0.814031
0.616642
0.698686
0.803826
0.820515
0.805427
0.593984
0.820297
0.619632
0.821432
0.770614
0.822183
0.823158
0.753328
0.813173
0.798128
0.805623
0.839668
0.841451
0.834744
0.805252
0.823305
0.601868
0.821364
0.859921
0.828797
0.834323
0.804809
0.826829
0.80209
0.843027
0.808971
0.814723
0.694496
0.664567
0.840309
0.821583
0.843785
0.730466
0.804113
0.766908
0.801025
0.809857
0.798849
0.813911
0.821524
0.828644
0.833172
0.835157
0.805891
0.749493
0.810625
0.742986
0.80019
0.826699
0.803115
0.815875
0.763426
0.805563
0.807167
0.850524
0.816513
0.803551
0.808579
0.83899
0.835491
0.803933
0.859459
0.798443
0.826249
0.691094
0.803572
0.800818
0.802912
0.836642
0.623289
0.806803
0.806067
0.675622
0.822268
0.834392
0.821807
0.803658
0.807294
0.803046
0.82303
0.802988
0.711227
0.54321
0.821644
0.812668
0.80381
0.805985
0.805272
0.804173
0.819412
0.802232
0.821797
0.602059
0.820831
0.80985
0.82102
0.845873
0.821741
0.835698
0.821111
0.801561
0.821449
0.692068
0.804205
0.854858
0.821456
0.794012
0.821937
0.647483
0.806844
0.63885
0.69378
0.695419
0.80999
0.822605
0.812798
0.536939
0.703846
0.803942
0.835763
0.75437
0.834803
0.805624
0.808648
0.803465
0.689979
0.757788
0.578795
0.803851
0.821575
0.807105
0.825232
0.68037
0.6847
0.857872
0.804337
0.821836
0.74272
0.821713
0.553661
0.8269
0.689605
0.821789
0.823904
0.803036
0.803931
0.830794
0.799757
0.804108
0.810491
0.645147
0.806822
0.674799
0.802558
0.802368
0.821794
0.815641
0.737191
0.822138
0.753811
0.803664
0.713701
0.807779
0.745643
0.681872
0.83017
0.821416
0.803251
0.737628
0.813689
0.670965
0.818659
0.803579
0.72161
0.8314
0.823233
0.669453
0.705358
0.83134
0.804011
0.736834
0.835027
0.839392
0.840667
0.821547
0.571915
0.757863
0.824857
0.826478
0.656834
0.652574
0.817834
0.821409
0.736067
0.780577
0.82169
0.813195
0.764223
0.820989
0.821694
0.803859
0.7408
0.802779
0.803587
0.819074
0.599139
0.806145
0.82785
0.593024
0.824482
0.849819
0.821835
0.686535
0.821455
0.820381
0.821463
0.801537
0.825304
0.803439
0.807155
0.80533
0.803643
0.821417
0.670403
0.816679
0.811767
0.714068
0.629801
0.78784
0.802476
0.821624
0.752914
0.661355
0.820766
0.790053
0.821675
0.827456
0.821628
0.830729
0.755038
0.628952
0.821337
0.840778
0.821834
0.692244
0.809488
0.736014
0.82126
0.818866
0.821774
0.82419
0.801875
0.821524
0.809154
0.756953
0.822779
0.821417
0.759916
0.793136
0.726832
0.641199
0.741859
0.788151
0.82243
0.820742
0.813339
0.818432
0.803639
0.801441
0.808544
0.690795
0.752249
0.821165
0.803986
0.805453
0.818981
0.631189
0.821667
0.804303
0.846919
0.816255
0.661282
0.794474
0.804615
0.845523
0.712967
0.591533
0.597029
0.647779
0.823939
0.805067
0.593091
0.630076
0.826331
0.821502
0.890628
0.805362
0.833051
0.821369
0.769022
0.819585
0.821179
0.821636
0.819498
0.82184
0.801538
0.819823
0.685637
0.822784
0.804004
0.816467
0.754682
0.824028
0.624012
0.859572
0.804342
0.831895
0.821891
0.80852
0.745325
0.826059
0.819893
0.838843
0.821551
0.820709
0.669516
0.831628
0.819972
0.821217
0.839939
0.828537
0.57678
0.800411
0.805812
0.814753
0.817533
0.804362
0.802378
0.822688
0.769639
0.807725
0.823112
0.865707
0.83613
0.624382
0.802069
0.758316
0.821905
0.766051
0.825697
0.805543
0.806869
0.821389
0.794158
0.811562
0.815825
0.823042
0.788948
0.699675
0.746599
0.720135
0.821463
0.839891
0.840683
0.746273
0.816424
0.752818
0.632906
0.821709
0.802194
0.821635
0.803976
0.65868
0.802823
0.779202
0.73462
0.820444
0.743075
0.810286
0.822981
0.862702
0.809897
0.807555
0.747048
0.821383
0.781457
0.843213
0.885304
0.8011
0.548604
0.803095
0.63075
0.773293
0.668857
0.799791
0.630416
0.822543
0.854511
0.806411
0.820402
0.825965
0.806884
0.803412
0.709273
0.826734
0.821032
0.80457
0.813575
0.793632
0.803997
0.812822
0.656391
0.823619
0.804984
0.849711
0.815921
0.804963
0.804295
0.820758
0.8209
0.815167
0.803877
0.79338
0.821542
0.800125
0.805246
0.821504
0.778949
0.589116
0.821415
0.824865
0.804588
0.718298
0.805276
0.813932
0.8037
0.718769
0.879155
0.821518
0.823116
0.821711
0.851065
0.78383
0.821562
0.793429
0.822493
0.828063
0.674834
0.821553
0.737227
0.819706
0.735351
0.803609
0.757637
0.805196
0.674215
0.818264
0.730184
0.664419
0.824552
0.67345
0.76863
0.82401
0.821454
0.782618
0.820598
0.735716
0.650684
0.831376
0.66487
0.82373
0.774923
0.803002
0.808376
0.821531
0.664003
0.805266
0.774028
0.819336
0.819987
0.832789
0.806594
0.70064
0.761899
0.672931
0.802318
0.807044
0.821737
0.822193
0.812568
0.821321
0.819141
0.676787
0.739332
0.671641
0.716344
0.821861
0.810774
0.83777
0.810168
0.822323
0.683705
0.880257
0.822653
0.831614
0.596259
0.828679
0.821493
0.844814
0.848791
0.830268
0.832624
0.826507
0.566999
0.806232
0.821356
0.70315
0.823513
0.805393
0.821542
0.808768
0.821155
0.820787
0.775605
0.710928
0.801861
0.802474
0.596711
0.821886
0.861983
0.822605
0.69158
0.824948
0.821383
0.825969
0.839249
0.666422
0.545106
0.805407
0.84367
0.806598
0.805804
0.821987
0.802185
0.812839
0.818551
0.802338
0.804811
0.80516
0.82135
0.806105
0.806693
0.802697
0.837654
0.835567
0.8565
0.821469
0.815015
0.822055
0.821495
0.821692
0.819867
0.82235
0.837299
0.809064
0.81989
0.645523
0.835441
0.685208
0.870546
0.80418
0.836635
0.803215
0.787868
0.792077
0.737596
0.823594
0.811256
0.815252
0.821595
0.778552
0.816181
0.603214
0.806558
0.82149
0.821278
0.796674
0.82134
0.624555
0.785501
0.57965
0.826304
0.80082
0.780146
0.805398
0.821508
0.821398
0.821343
0.733716
0.816081
0.821467
0.813081
0.804179
0.804269
0.747097
0.775681
0.811664
0.804125
0.718912
0.618101
0.531522
0.844683
0.806602
0.784212
0.783102
0.824755
0.803977
0.804379
0.82476
0.781453
0.756332
0.823333
0.810166
0.813469
0.840432
0.805408
0.82147
0.808763
0.537499
0.803956
0.82148
0.779883
0.825531
0.821999
0.831076
0.643657
0.698374
0.598958
0.8318
0.822415
0.752055
0.812162
0.688546
0.817499
0.812567
0.82167
0.805381
0.812638
0.59626
0.701176
0.81217
0.821599
0.794062
0.808437
0.834862
0.80281
0.804312
0.671404
0.814104
0.821733
0.805239
0.821382
0.802933
0.638415
0.818045
0.821437
0.59384
0.719387
0.800134
0.830704
0.717358
0.804451
0.794762
0.821559
0.756712
0.6956
0.820063
0.796812
0.802626
0.768397
0.571422
0.825869
0.685316
0.754568
0.726356
0.804394
0.80112
0.821139
0.680597
0.770694
0.804439
0.822536
0.60857
0.803059
0.826234
0.813768
0.572813
0.806087
0.785176
0.726108
0.725101
0.800975
0.825636
0.82148
0.816239
0.72113
0.74702
0.654676
0.83718
0.845862
0.82334
0.789271
0.867372
0.717512
0.821615
0.770553
0.792502
0.796527
0.82173
0.804404
0.821145
0.787325
0.760733
0.826149
0.800695
0.846037
0.727535
0.791524
0.806
0.731107
0.805485
0.82208
0.595206
0.802409
0.803153
0.802983
0.827331
0.768505
0.800907
0.731447
0.821582
0.809259
0.734169
0.82157
0.823002
0.833845
0.806131
0.792274
0.801404
0.80699
0.719894
0.821431
0.804849
0.693881
0.80814
0.782602
0.835893
0.825086
0.825172
0.843577
0.851595
0.71987
0.821776
0.800492
0.788916
0.630701
0.822126
0.810995
0.821507
0.783093
0.856268
0.836567
0.783618
0.846357
0.781504
0.800974
0.775537
0.821484
0.730613
0.649065
0.847586
0.67935
0.793086
0.842848
0.821382
0.686635
0.80965
0.758595
0.80478
0.799623
0.788332
0.8046
0.804704
0.803334
0.802446
0.787446
0.821343
0.786988
0.823421
0.807808
0.728648
0.789139
0.815845
0.821416
0.805978
0.584808
0.826362
0.820133
0.820883
0.724024
0.805276
0.802771
0.80461
0.823157
0.745301
0.823198
0.807035
0.809658
0.764376
0.820842
0.813163
0.808153
0.772652
0.810601
0.820696
0.808521
0.820805
0.814675
0.806566
0.828741
0.805064
0.793999
0.81407
0.82147
0.818784
0.786234
0.713084
0.821715
0.81252
0.804879
0.748881
0.790295
0.66578
0.803661
0.566432
0.803631
0.822173
0.776161
0.838991
0.653956
0.817745
0.745886
0.820115
0.56077
0.806653
0.830379
0.821325
0.825329
0.74265
0.845089
0.58653
0.827888
0.697129
0.803538
0.668109
0.68131
0.821138
0.821684
0.751304
0.805105
0.822084
0.625578
0.826406
0.77011
0.83826
0.821715
0.816293
0.821412
0.804223
0.839792
0.812666
0.804224
0.666046
0.803612
0.847317
0.80373
0.808513
0.770782
0.807998
0.821328
0.821527
0.80064
0.741682
0.818279
0.822812
0.617423
0.804855
0.669698
0.822992
0.593342
0.821619
0.777245
0.695945
0.728879
0.782983
0.725608
0.84588
0.814746
0.801831
0.804678
0.712891
0.802991
0.794721
0.803234
0.819993
0.808153
0.725688
0.714483
0.803713
0.775527
0.54663
0.820557
0.69266
0.795207
0.688184
0.829598
0.818484
0.830677
0.814803
0.838939
0.811191
0.622574
0.830799
0.810961
0.804705
0.822839
0.821612
0.820907
0.814909
0.830487
0.82352
0.639623
0.805302
0.800999
0.821473
0.701703
0.802772
0.825711
0.763005
0.698866
0.812589
0.710823
0.740071
0.81239
0.821405
0.680073
0.845154
0.771265
0.805877
0.800395
0.819503
0.848229
0.801748
0.591304
0.822457
0.676853
0.663448
0.777614
0.767559
0.775964
0.821518
0.80373
0.82185
0.821895
0.602505
0.787712
0.834045
0.821537
0.611735
0.736881
0.664885
0.823719
0.819238
0.700415
0.804604
0.821027
0.803039
0.836954
0.634644
0.844544
0.738093
0.820745
0.821392
0.698324
0.820847
0.711835
0.796771
0.705636
0.814186
0.791634
0.651958
0.733179
0.728236
0.837066
0.818556
0.825814
0.828082
0.803639
0.808866
0.80588
0.822767
0.803793
0.710313
0.803976
0.618093
0.783584
0.80765
0.805049
0.821494
0.829973
0.803471
0.731149
0.678543
0.682822
0.79718
0.818456
0.746294
0.656555
0.759566
0.82007
0.802316
0.766792
0.805977
0.826963
0.759739
0.588374
0.695942
0.801879
0.82151
0.866899
0.817305
0.821476
0.854741
0.803019
0.802462
0.822176
0.821327
0.81241
0.729851
0.809676
0.711862
0.865053
0.786102
0.821664
0.662363
0.800557
0.55532
0.600054
0.654344
0.815599
0.803933
0.816729
0.767608
0.803844
0.563232
0.789692
0.806339
0.746358
0.821631
0.805545
0.823036
0.846427
0.672375
0.818674
0.80238
0.819041
0.817222
0.821419
0.821445
0.762809
0.801023
0.799609
0.803554
0.80118
0.818663
0.848506
0.825206
0.735508
0.805391
0.682322
0.821522
0.821673
0.609756
0.770917
0.770922
0.569016
0.791481
0.804032
0.880172
0.802383
0.820322
0.764419
0.795453
0.801
0.811363
0.784853
0.569141
0.689953
0.691849
0.783344
0.82112
0.803844
0.822363
0.791624
0.808742
0.821384
0.802116
0.855315
0.724929
0.821403
0.783013
0.561732
0.671473
0.821456
0.804065
0.805931
0.583688
0.797604
0.804236
0.67066
0.821695
0.79748
0.810519
0.822156
0.675842
0.721246
0.734982
0.821109
0.834689
0.651824
0.791244
0.704974
0.821617
0.831993
0.781796
0.780352
0.579524
0.819941
0.802627
0.731589
0.855987
0.806325
0.737757
0.747489
0.76881
0.820492
0.583459
0.796904
0.73771
0.800756
0.824324
0.70964
0.803143
0.818403
0.724748
0.813378
0.716214
0.823241
0.802066
0.75809
0.71412
0.815606
0.800581
0.821642
0.681016
0.80589
0.812374
0.821212
0.70991
0.821465
0.811068
0.835662
0.684137
0.82283
0.748349
0.821333
0.808554
0.846242
0.804211
0.8255
0.751929
0.822627
0.843125
0.83401
0.82154
0.848819
0.752179
0.852238
0.829872
0.806483
0.829456
0.806867
0.65874
0.784584
0.821804
0.752159
0.712389
0.802613
0.806922
0.700635
0.801587
0.564629
0.851518
0.718893
0.716525
0.821591
0.777717
0.812017
0.799172
0.811918
0.804299
0.820717
0.838414
0.741865
0.778518
0.611308
0.819794
0.778304
0.81517
0.80561
0.590465
0.803376
0.802742
0.815791
0.801899
0.823714
0.808653
0.690475
0.828905
0.85223
0.695756
0.752414
0.821265
0.805068
0.729676
0.816312
0.760427
0.797718
0.803651
0.805921
0.841562
0.682174
0.719667
0.801187
0.714546
0.773949
0.8331
0.558282
0.705778
0.800015
0.804831
0.803685
0.740712
0.828195
0.814482
0.804107
0.808573
0.821614
0.705393
0.675967
0.810079
0.821855
0.802195
0.877377
0.804774
0.821434
0.799524
0.817313
0.814393
0.809169
0.675779
0.815139
0.823671
0.803829
0.805972
0.802686
0.632105
0.817123
0.819322
0.821405
0.867927
0.821897
0.802153
0.663702
0.837686
0.715566
0.831796
0.808357
0.81466
0.827855
0.818842
0.821005
0.744935
0.575956
0.667163
0.821177
0.817394
0.569381
0.796363
0.821961
0.834933
0.550178
0.810544
0.821308
0.804634
0.810065
0.590898
0.821384
0.808687
0.58296
0.821311
0.82269
0.569417
0.811568
0.821035
0.776759
0.808516
0.815453
0.81937
0.802003
0.831178
0.560944
0.832402
0.816167
0.80449
0.751589
0.791419
0.820726
0.810548
0.806005
0.822112
0.801115
0.688472
0.814025
0.675628
0.821826
0.672532
0.752459
0.79762
0.727508
0.803821
0.597488
0.853085
0.821485
0.820685
0.803006
0.803789
0.803339
0.813946
0.822171
0.681613
0.731086
0.73684
0.822411
0.735601
0.681462
0.822468
0.789471
0.832602
0.81947
0.809713
0.740845
0.581098
0.799521
0.796532
0.631606
0.82179
0.821474
0.742905
0.807031
0.774739
0.63605
0.817219
0.815481
0.794631
0.625806
0.80289
0.784894
0.831842
0.821477
0.820232
0.812283
0.821409
0.702391
0.804983
0.823076
0.714558
0.651508
0.746635
0.799425
0.739467
0.821481
0.802156
0.806069
0.784455
0.869792
0.803733
0.802218
0.830822
0.862329
0.80517
0.821855
0.801197
0.823091
0.79059
0.748067
0.812216
0.804835
0.823013
0.803556
0.797422
0.846814
0.76824
0.821386
0.779154
0.805698
0.654745
0.545279
0.801619
0.80249
0.819126
0.79885
0.804606
0.82181
0.774613
0.806915
0.821714
0.787793
0.822384
0.776873
0.615971
0.805562
0.760806
0.779198
0.755641
0.763872
0.795045
0.790086
0.82355
0.788663
0.809838
0.803535
0.77243
0.822924
0.569884
0.741769
0.818938
0.821364
0.820457
0.808859
0.820604
0.815023
0.806273
0.827286
0.810165
0.784988
0.823385
0.804498
0.797024
0.796884
0.805654
0.605772
0.804253
0.793159
0.600902
0.817543
0.807709
0.806549
0.811168
0.714987
0.752838
0.827303
0.774962
0.811772
0.823372
0.712732
0.804955
0.829682
0.730811
0.800182
0.81785
0.780046
0.810828
0.839395
0.802596
0.824237
0.77835
0.805808
0.802889
0.82119
0.805289
0.801469
0.612206
0.822707
0.793779
0.807156
0.831196
0.715149
0.833787
0.824239
0.551399
0.808635
0.805004
0.805413
0.820562
0.828857
0.829686
0.805397
0.812756
0.822048
0.814025
0.803832
0.820599
0.807029
0.752336
0.727497
0.787139
0.821775
0.819418
0.781699
0.764356
0.814299
0.826181
0.811256
0.821288
0.715481
0.542855
0.747333
0.824405
0.809209
0.823337
0.847464
0.802942
0.731803
0.67716
0.803618
0.807326
0.711424
0.821435
0.696552
0.84087
0.738081
0.820373
0.896433
0.815978
0.803727
0.78429
0.811914
0.701973
0.814916
0.815789
0.792768
0.812463
0.779396
0.803589
0.810456
0.788043
0.803941
0.855277
0.778352
0.802435
0.668328
0.805174
0.703369
0.804536
0.79534
0.788942
0.789382
0.730141
0.809018
0.794211
0.84839
0.821619
0.821376
0.821066
0.896655
0.752682
0.803287
0.742591
0.80337
0.802195
0.806029
0.729767
0.803843
0.806035
0.671266
0.815472
0.756243
0.668404
0.850286
0.851035
0.758892
0.811092
0.795715
0.778889
0.745181
0.779097
0.787551
0.743854
0.804488
0.806273
0.735649
0.822786
0.805598
0.591648
0.821681
0.823582
0.819452
0.803908
0.626891
0.732381
0.806774
0.862162
0.667788
0.736401
0.810867
0.81656
0.802142
0.704362
0.729661
0.809451
0.821596
0.822529
0.841518
0.743771
0.760532
0.877734
0.808151
0.818958
0.796
0.677624
0.664807
0.609199
0.676836
0.632025
0.773034
0.80765
0.805372
0.820625
0.813797
0.81186
0.863062
0.733098
0.829499
0.82191
0.823926
0.823716
0.821864
0.821499
0.820017
0.821854
0.694682
0.807932
0.739406