# vtk DataFile Version 1.0
unstructured grid
ascii
DATASET UNSTRUCTURED_GRID
points 14760 float
-1 0 0
-1 1 0
2 0 0
2 1 0
0 0 0
1 0 0
-1 1 0.1
-1 0 0.1
0 0 0.1
1 0 0.1
2 0 0.1
2 1 0.1
-0.99 0 0
-0.98 0 0
-0.97 0 0
-0.96 0 0
-0.95 0 0
-0.94 0 0
-0.93 0 0
-0.92 0 0
-0.91 0 0
-0.9 0 0
-0.89 0 0
-0.88 0 0
-0.87 0 0
-0.86 0 0
-0.85 0 0
-0.84 0 0
-0.83 0 0
-0.82 0 0
-0.81 0 0
-0.8 0 0
-0.79 0 0
-0.78 0 0
-0.77 0 0
-0.76 0 0
-0.75 0 0
-0.74 0 0
-0.73 0 0
-0.72 0 0
-0.71 0 0
-0.7 0 0
-0.69 0 0
-0.68 0 0
-0.67 0 0
-0.66 0 0
-0.65 0 0
-0.64 0 0
-0.63 0 0
-0.62 0 0
-0.61 0 0
-0.6 0 0
-0.59 0 0
-0.58 0 0
-0.57 0 0
-0.56 0 0
-0.55 0 0
-0.54 0 0
-0.53 0 0
-0.52 0 0
-0.51 0 0
-0.5 0 0
-0.49 0 0
-0.48 0 0
-0.47 0 0
-0.46 0 0
-0.45 0 0
-0.44 0 0
-0.43 0 0
-0.42 0 0
-0.41 0 0
-0.4 0 0
-0.39 0 0
-0.38 0 0
-0.37 0 0
-0.36 0 0
-0.35 0 0
-0.34 0 0
-0.33 0 0
-0.32 0 0
-0.31 0 0
-0.3 0 0
-0.29 0 0
-0.28 0 0
-0.27 0 0
-0.26 0 0
-0.25 0 0
-0.24 0 0
-0.23 0 0
-0.22 0 0
-0.21 0 0
-0.2 0 0
-0.19 0 0
-0.18 0 0
-0.17 0 0
-0.16 0 0
-0.15 0 0
-0.14 0 0
-0.13 0 0
-0.12 0 0
-0.11 0 0
-0.1 0 0
-0.09 0 0
-0.08 0 0
-0.07 0 0
-0.06 0 0
-0.05 0 0
-0.04 0 0
-0.03 0 0
-0.02 0 0
-0.01 0 0
1.01 0 0
1.02 0 0
1.03 0 0
1.04 0 0
1.05 0 0
1.06 0 0
1.07 0 0
1.08 0 0
1.09 0 0
1.1 0 0
1.11 0 0
1.12 0 0
1.13 0 0
1.14 0 0
1.15 0 0
1.16 0 0
1.17 0 0
1.18 0 0
1.19 0 0
1.2 0 0
1.21 0 0
1.22 0 0
1.23 0 0
1.24 0 0
1.25 0 0
1.26 0 0
1.27 0 0
1.28 0 0
1.29 0 0
1.3 0 0
1.31 0 0
1.32 0 0
1.33 0 0
1.34 0 0
1.35 0 0
1.36 0 0
1.37 0 0
1.38 0 0
1.39 0 0
1.4 0 0
1.41 0 0
1.42 0 0
1.43 0 0
1.44 0 0
1.45 0 0
1.46 0 0
1.47 0 0
1.48 0 0
1.49 0 0
1.5 0 0
1.51 0 0
1.52 0 0
1.53 0 0
1.54 0 0
1.55 0 0
1.56 0 0
1.57 0 0
1.58 0 0
1.59 0 0
1.6 0 0
1.61 0 0
1.62 0 0
1.63 0 0
1.64 0 0
1.65 0 0
1.66 0 0
1.67 0 0
1.68 0 0
1.69 0 0
1.7 0 0
1.71 0 0
1.72 0 0
1.73 0 0
1.74 0 0
1.75 0 0
1.76 0 0
1.77 0 0
1.78 0 0
1.79 0 0
1.8 0 0
1.81 0 0
1.82 0 0
1.83 0 0
1.84 0 0
1.85 0 0
1.86 0 0
1.87 0 0
1.88 0 0
1.89 0 0
1.9 0 0
1.91 0 0
1.92 0 0
1.93 0 0
1.94 0 0
1.95 0 0
1.96 0 0
1.97 0 0
1.98 0 0
1.99 0 0
2 0.0100088 0
2 0.0204183 0
2 0.0312446 0
2 0.0425043 0
2 0.0542147 0
2 0.066394 0
2 0.079061 0
2 0.092235 0
2 0.105936 0
2 0.120186 0
2 0.135007 0
2 0.150421 0
2 0.166452 0
2 0.183124 0
2 0.200465 0
2 0.218499 0
2 0.237256 0
2 0.256763 0
2 0.277051 0
2 0.298152 0
2 0.320097 0
2 0.342921 0
2 0.366659 0
2 0.391347 0
2 0.417024 0
2 0.443728 0
2 0.471502 0
2 0.500387 0
2 0.530429 0
2 0.561674 0
2 0.594169 0
2 0.627966 0
2 0.663115 0
2 0.699672 0
2 0.737692 0
2 0.777235 0
2 0.818361 0
2 0.861133 0
2 0.905617 0
2 0.951882 0
1.95 1 0
1.9 1 0
1.85 1 0
1.8 1 0
1.75 1 0
1.7 1 0
1.65 1 0
1.6 1 0
1.55 1 0
1.5 1 0
1.45 1 0
1.4 1 0
1.35 1 0
1.3 1 0
1.25 1 0
1.2 1 0
1.15 1 0
1.1 1 0
1.05 1 0
1 1 0
0.95 1 0
0.9 1 0
0.85 1 0
0.8 1 0
0.75 1 0
0.7 1 0
0.65 1 0
0.6 1 0
0.55 1 0
0.5 1 0
0.45 1 0
0.4 1 0
0.35 1 0
0.3 1 0
0.25 1 0
0.2 1 0
0.15 1 0
0.1 1 0
0.05 1 0
3.69793e-12 1 0
-0.05 1 0
-0.1 1 0
-0.15 1 0
-0.2 1 0
-0.25 1 0
-0.3 1 0
-0.35 1 0
-0.4 1 0
-0.45 1 0
-0.5 1 0
-0.55 1 0
-0.6 1 0
-0.65 1 0
-0.7 1 0
-0.75 1 0
-0.8 1 0
-0.85 1 0
-0.9 1 0
-0.95 1 0
-1 0.951882 0
-1 0.905617 0
-1 0.861133 0
-1 0.818361 0
-1 0.777235 0
-1 0.737692 0
-1 0.699672 0
-1 0.663115 0
-1 0.627966 0
-1 0.594169 0
-1 0.561674 0
-1 0.530429 0
-1 0.500387 0
-1 0.471502 0
-1 0.443728 0
-1 0.417024 0
-1 0.391347 0
-1 0.366659 0
-1 0.342921 0
-1 0.320097 0
-1 0.298152 0
-1 0.277051 0
-1 0.256763 0
-1 0.237256 0
-1 0.218499 0
-1 0.200465 0
-1 0.183124 0
-1 0.166452 0
-1 0.150421 0
-1 0.135007 0
-1 0.120186 0
-1 0.105936 0
-1 0.092235 0
-1 0.079061 0
-1 0.066394 0
-1 0.0542147 0
-1 0.0425043 0
-1 0.0312446 0
-1 0.0204183 0
-1 0.0100088 0
0.00921362 0.00379763 0
0.0184561 0.00752451 0
0.0277268 0.0111804 0
0.0370253 0.0147652 0
0.0463511 0.0182786 0
0.0557034 0.0217203 0
0.0650819 0.0250903 0
0.074486 0.0283883 0
0.083915 0.0316141 0
0.0933685 0.0347675 0
0.102846 0.0378484 0
0.112347 0.0408565 0
0.12187 0.0437917 0
0.131416 0.0466538 0
0.140983 0.0494427 0
0.150572 0.0521581 0
0.160181 0.0547999 0
0.16981 0.0573681 0
0.179458 0.0598623 0
0.189125 0.0622825 0
0.198811 0.0646285 0
0.208514 0.0669001 0
0.218234 0.0690974 0
0.227971 0.07122 0
0.237724 0.073268 0
0.247493 0.0752411 0
0.257276 0.0771393 0
0.267073 0.0789625 0
0.276884 0.0807105 0
0.286708 0.0823832 0
0.296545 0.0839806 0
0.306394 0.0855025 0
0.316254 0.0869488 0
0.326125 0.0883196 0
0.336006 0.0896146 0
0.345896 0.0908339 0
0.355796 0.0919773 0
0.365704 0.0930447 0
0.375621 0.0940362 0
0.385544 0.0949517 0
0.395474 0.095791 0
0.40541 0.0965542 0
0.415352 0.0972412 0
0.425299 0.097852 0
0.43525 0.0983865 0
0.445205 0.0988447 0
0.455164 0.0992266 0
0.465125 0.0995321 0
0.475088 0.0997613 0
0.485052 0.0999141 0
0.495017 0.0999904 0
0.504983 0.0999904 0
0.514948 0.0999141 0
0.524912 0.0997613 0
0.534875 0.0995321 0
0.544836 0.0992266 0
0.554795 0.0988447 0
0.56475 0.0983865 0
0.574701 0.097852 0
0.584648 0.0972412 0
0.59459 0.0965542 0
0.604526 0.095791 0
0.614456 0.0949517 0
0.624379 0.0940362 0
0.634296 0.0930447 0
0.644204 0.0919773 0
0.654104 0.0908339 0
0.663994 0.0896146 0
0.673875 0.0883196 0
0.683746 0.0869488 0
0.693606 0.0855025 0
0.703455 0.0839806 0
0.713292 0.0823832 0
0.723116 0.0807105 0
0.732927 0.0789625 0
0.742724 0.0771393 0
0.752508 0.0752411 0
0.762276 0.073268 0
0.772029 0.07122 0
0.781766 0.0690974 0
0.791486 0.0669001 0
0.801189 0.0646285 0
0.810875 0.0622825 0
0.820542 0.0598623 0
0.83019 0.0573681 0
0.839819 0.0547999 0
0.849428 0.0521581 0
0.859017 0.0494427 0
0.868584 0.0466538 0
0.87813 0.0437917 0
0.887653 0.0408565 0
0.897154 0.0378484 0
0.906631 0.0347675 0
0.916085 0.0316141 0
0.925514 0.0283883 0
0.934918 0.0250903 0
0.944297 0.0217203 0
0.953649 0.0182786 0
0.962975 0.0147652 0
0.972273 0.0111804 0
0.981544 0.00752451 0
0.990786 0.00379763 0
-1 0.951882 0.1
-1 0.905617 0.1
-1 0.861133 0.1
-1 0.818361 0.1
-1 0.777235 0.1
-1 0.737692 0.1
-1 0.699672 0.1
-1 0.663115 0.1
-1 0.627966 0.1
-1 0.594169 0.1
-1 0.561674 0.1
-1 0.530429 0.1
-1 0.500387 0.1
-1 0.471502 0.1
-1 0.443728 0.1
-1 0.417024 0.1
-1 0.391347 0.1
-1 0.366659 0.1
-1 0.342921 0.1
-1 0.320097 0.1
-1 0.298152 0.1
-1 0.277051 0.1
-1 0.256763 0.1
-1 0.237256 0.1
-1 0.218499 0.1
-1 0.200465 0.1
-1 0.183124 0.1
-1 0.166452 0.1
-1 0.150421 0.1
-1 0.135007 0.1
-1 0.120186 0.1
-1 0.105936 0.1
-1 0.092235 0.1
-1 0.079061 0.1
-1 0.066394 0.1
-1 0.0542147 0.1
-1 0.0425043 0.1
-1 0.0312446 0.1
-1 0.0204183 0.1
-1 0.0100088 0.1
-0.99 0 0.1
-0.98 0 0.1
-0.97 0 0.1
-0.96 0 0.1
-0.95 0 0.1
-0.94 0 0.1
-0.93 0 0.1
-0.92 0 0.1
-0.91 0 0.1
-0.9 0 0.1
-0.89 0 0.1
-0.88 0 0.1
-0.87 0 0.1
-0.86 0 0.1
-0.85 0 0.1
-0.84 0 0.1
-0.83 0 0.1
-0.82 0 0.1
-0.81 0 0.1
-0.8 0 0.1
-0.79 0 0.1
-0.78 0 0.1
-0.77 0 0.1
-0.76 0 0.1
-0.75 0 0.1
-0.74 0 0.1
-0.73 0 0.1
-0.72 0 0.1
-0.71 0 0.1
-0.7 0 0.1
-0.69 0 0.1
-0.68 0 0.1
-0.67 0 0.1
-0.66 0 0.1
-0.65 0 0.1
-0.64 0 0.1
-0.63 0 0.1
-0.62 0 0.1
-0.61 0 0.1
-0.6 0 0.1
-0.59 0 0.1
-0.58 0 0.1
-0.57 0 0.1
-0.56 0 0.1
-0.55 0 0.1
-0.54 0 0.1
-0.53 0 0.1
-0.52 0 0.1
-0.51 0 0.1
-0.5 0 0.1
-0.49 0 0.1
-0.48 0 0.1
-0.47 0 0.1
-0.46 0 0.1
-0.45 0 0.1
-0.44 0 0.1
-0.43 0 0.1
-0.42 0 0.1
-0.41 0 0.1
-0.4 0 0.1
-0.39 0 0.1
-0.38 0 0.1
-0.37 0 0.1
-0.36 0 0.1
-0.35 0 0.1
-0.34 0 0.1
-0.33 0 0.1
-0.32 0 0.1
-0.31 0 0.1
-0.3 0 0.1
-0.29 0 0.1
-0.28 0 0.1
-0.27 0 0.1
-0.26 0 0.1
-0.25 0 0.1
-0.24 0 0.1
-0.23 0 0.1
-0.22 0 0.1
-0.21 0 0.1
-0.2 0 0.1
-0.19 0 0.1
-0.18 0 0.1
-0.17 0 0.1
-0.16 0 0.1
-0.15 0 0.1
-0.14 0 0.1
-0.13 0 0.1
-0.12 0 0.1
-0.11 0 0.1
-0.1 0 0.1
-0.09 0 0.1
-0.08 0 0.1
-0.07 0 0.1
-0.06 0 0.1
-0.05 0 0.1
-0.04 0 0.1
-0.03 0 0.1
-0.02 0 0.1
-0.01 0 0.1
0.00921362 0.00379763 0.1
0.0184561 0.00752451 0.1
0.0277268 0.0111804 0.1
0.0370253 0.0147652 0.1
0.0463511 0.0182786 0.1
0.0557034 0.0217203 0.1
0.0650819 0.0250903 0.1
0.074486 0.0283883 0.1
0.083915 0.0316141 0.1
0.0933685 0.0347675 0.1
0.102846 0.0378484 0.1
0.112347 0.0408565 0.1
0.12187 0.0437917 0.1
0.131416 0.0466538 0.1
0.140983 0.0494427 0.1
0.150572 0.0521581 0.1
0.160181 0.0547999 0.1
0.16981 0.0573681 0.1
0.179458 0.0598623 0.1
0.189125 0.0622825 0.1
0.198811 0.0646285 0.1
0.208514 0.0669001 0.1
0.218234 0.0690974 0.1
0.227971 0.07122 0.1
0.237724 0.073268 0.1
0.247493 0.0752411 0.1
0.257276 0.0771393 0.1
0.267073 0.0789625 0.1
0.276884 0.0807105 0.1
0.286708 0.0823832 0.1
0.296545 0.0839806 0.1
0.306394 0.0855025 0.1
0.316254 0.0869488 0.1
0.326125 0.0883196 0.1
0.336006 0.0896146 0.1
0.345896 0.0908339 0.1
0.355796 0.0919773 0.1
0.365704 0.0930447 0.1
0.375621 0.0940362 0.1
0.385544 0.0949517 0.1
0.395474 0.095791 0.1
0.40541 0.0965542 0.1
0.415352 0.0972412 0.1
0.425299 0.097852 0.1
0.43525 0.0983865 0.1
0.445205 0.0988447 0.1
0.455164 0.0992266 0.1
0.465125 0.0995321 0.1
0.475088 0.0997613 0.1
0.485052 0.0999141 0.1
0.495017 0.0999904 0.1
0.504983 0.0999904 0.1
0.514948 0.0999141 0.1
0.524912 0.0997613 0.1
0.534875 0.0995321 0.1
0.544836 0.0992266 0.1
0.554795 0.0988447 0.1
0.56475 0.0983865 0.1
0.574701 0.097852 0.1
0.584648 0.0972412 0.1
0.59459 0.0965542 0.1
0.604526 0.095791 0.1
0.614456 0.0949517 0.1
0.624379 0.0940362 0.1
0.634296 0.0930447 0.1
0.644204 0.0919773 0.1
0.654104 0.0908339 0.1
0.663994 0.0896146 0.1
0.673875 0.0883196 0.1
0.683746 0.0869488 0.1
0.693606 0.0855025 0.1
0.703455 0.0839806 0.1
0.713292 0.0823832 0.1
0.723116 0.0807105 0.1
0.732927 0.0789625 0.1
0.742724 0.0771393 0.1
0.752508 0.0752411 0.1
0.762276 0.073268 0.1
0.772029 0.07122 0.1
0.781766 0.0690974 0.1
0.791486 0.0669001 0.1
0.801189 0.0646285 0.1
0.810875 0.0622825 0.1
0.820542 0.0598623 0.1
0.83019 0.0573681 0.1
0.839819 0.0547999 0.1
0.849428 0.0521581 0.1
0.859017 0.0494427 0.1
0.868584 0.0466538 0.1
0.87813 0.0437917 0.1
0.887653 0.0408565 0.1
0.897154 0.0378484 0.1
0.906631 0.0347675 0.1
0.916085 0.0316141 0.1
0.925514 0.0283883 0.1
0.934918 0.0250903 0.1
0.944297 0.0217203 0.1
0.953649 0.0182786 0.1
0.962975 0.0147652 0.1
0.972273 0.0111804 0.1
0.981544 0.00752451 0.1
0.990786 0.00379763 0.1
1.01 0 0.1
1.02 0 0.1
1.03 0 0.1
[...]
CELL_DATA 14313
SCALARS rho float
LOOKUP_TABLE default
0.783341
0.825318
0.806467
0.545414
0.769464
0.814244
0.814778
0.814685
0.811464
0.815925
0.814476
0.799349
0.799145
0.535368
0.815092
0.833456
0.809533
0.808207
0.812273
0.805932
0.813141
0.814676
0.814721
0.769222
0.814319
0.815424
0.744742
0.704757
0.824804
0.825998
0.814282
0.795033
0.801708
0.81429
0.805146
0.812852
0.684541
0.809657
0.813884
0.803143
0.755098
0.812803
0.549502
0.706224
0.81955
0.836927
0.813113
0.778572
0.806217
0.853995
0.680262
0.657009
0.60176
0.812765
0.821473
0.783748
0.819536
0.815467
0.811236
0.814585
0.814338
0.820316
0.79501
0.840373
0.812763
0.815479
0.855844
0.784938
0.841945
0.815084
0.798799
0.833027
0.503573
0.838591
0.732036
0.809001
0.826557
0.749385
0.699462
0.813769
0.596759
0.826348
0.834359
0.803764
0.807624
0.821156
0.814223
0.804934
0.82788
0.807512
0.781094
0.540803
0.80803
0.800045
0.732003
0.804045
0.816717
0.811271
0.803854
0.504888
0.808923
0.811935
0.81475
0.815741
0.751026
0.809911
0.803483
0.702483
0.835912
0.812186
0.814364
0.826575
0.814189
0.821187
0.80448
0.82902
0.821621
0.83762
0.779982
0.800735
0.81384
0.811336
0.860374
0.726804
0.84581
0.756693
0.791687
0.804936
0.816733
0.845353
0.811701
0.814311
0.861655
0.814561
0.82502
0.783712
0.808658
0.792973
0.819587
0.819273
0.814778
0.818624
0.803464
0.803601
0.797214
0.840449
0.806291
0.762366
0.797299
0.819299
0.799436
0.803766
0.814723
0.712936
0.822891
0.803939
0.725714
0.822915
0.814336
0.812507
0.820331
0.809331
0.66661
0.759397
0.824868
0.826285
0.717845
0.814842
0.829639
0.817273
0.693142
0.816786
0.716103
0.790084
0.811018
0.828069
0.810279
0.816957
0.822769
0.745225
0.813736
0.811769
0.775521
0.771583
0.791301
0.812814
0.81508
0.797657
0.508155
0.789124
0.760111
0.74635
0.771142
0.720711
0.814558
0.816923
0.808004
0.803668
0.80827
0.818793
0.762515
0.803645
0.830105
0.816936
0.834924
0.803524
0.817138
0.814759
0.814291
0.835811
0.805667
0.812983
0.797744
0.703842
0.816156
0.822846
0.811881
0.808842
0.835956
0.804194
0.803306
0.819907
0.808182
0.856469
0.811391
0.803749
0.819875
0.802879
0.814685
0.759672
0.655612
0.815716
0.700509
0.828514
0.802826
0.727318
0.814137
0.816124
0.816873
0.828225
0.792417
0.70423
0.75126
0.609066
0.817076
0.726418
0.801473
0.807654
0.83907
0.816944
0.581692
0.804419
0.731783
0.838783
0.80284
0.699005
0.813181
0.828664
0.816692
0.567118
0.813755
0.80279
0.801051
0.807981
0.79026
0.775901
0.816307
0.816101
0.543668
0.816729
0.815898
0.773456
0.802548
0.814462
0.781544
0.819137
0.785496
0.713927
0.803444
0.806165
0.574379
0.550902
0.758946
0.810134
0.822305
0.790884
0.814117
0.816912
0.777219
0.806581
0.803785
0.818689
0.83109
0.79522
0.808677
0.813444
0.644377
0.820298
0.709088
0.799479
0.793885
0.778749
0.837039
0.809902
0.798844
0.682328
0.674527
0.805423
0.807391
0.820353
0.804545
0.800596
0.655879
0.817178
0.823153
0.818788
0.814481
0.815032
0.8016
0.792663
0.816317
0.609513
0.810212
0.81458
0.816536
0.814812
0.767809
0.823232
0.802311
0.816351
0.815202
0.754117
0.755076
0.803497
0.80357
0.702397
0.814755
0.813695
0.808784
0.814008
0.804449
0.801285
0.731142
0.715107
0.81651
0.750645
0.76066
0.820593
0.838931
0.816318
0.803873
0.808861
0.814596
0.803797
0.819041
0.785045
0.818975
0.81238
0.81304
0.796918
0.812668
0.794246
0.814257
0.594546
0.80104
0.801831
0.813794
0.814949
0.7699
0.802113
0.814553
0.814749
0.819984
0.771205
0.81903
0.810168
0.756171
0.762313
0.81337
0.807891
0.83082
0.826473
0.824247
0.805862
0.607934
0.78137
0.608452
0.803745
0.803511
0.80296
0.816372
0.874909
0.534903
0.60284
0.839678
0.872883
0.813999
0.693236
0.803981
0.723234
0.808866
0.817368
0.709808
0.655149
0.753945
0.815091
0.687063
0.874443
0.826125
0.800651
0.809397
0.495694
0.744489
0.783733
0.819568
0.806339
0.802324
0.831843
0.81466
0.710415
0.690052
0.802337
0.806786
0.811738
0.814016
0.80936
0.814347
0.739113
0.791931
0.797732
0.803202
0.766573
0.819639
0.808454
0.815118
0.814047
0.758671
0.805902
0.804297
0.795415
0.814522
0.817553
0.808914
0.662957
0.788377
0.819217
0.813342
0.814297
0.807913
0.814893
0.806346
0.822861
0.823244
0.68422
0.85631
0.746357
0.822482
0.806897
0.745624
0.825851
0.801183
0.82718
0.555679
0.801706
0.684364
0.814418
0.80984
0.536818
0.801579
0.805111
0.798527
0.80272
0.802845
0.774453
0.814274
0.601712
0.806448
0.806672
0.801003
0.820215
0.767271
0.814411
0.811705
0.800083
0.818253
0.798722
0.803226
0.814676
0.638233
0.771502
0.737616
0.502767
0.826478
0.575607
0.803061
0.820747
0.857758
0.709894
0.744429
0.814519
0.806672
0.80257
0.795868
0.768792
0.813179
0.814731
0.798598
0.815346
0.817713
0.697129
0.814647
0.815467
0.806694
0.812542
0.612251
0.817192
0.823352
0.713821
0.789651
0.815396
0.801373
0.830594
0.832624
0.804313
0.742187
0.490174
0.816004
0.577328
0.800847
0.803462
0.774591
0.814465
0.752772
0.813692
0.807199
0.803498
0.498862
0.816371
0.829097
0.832188
0.816321
0.803731
0.80342
0.814689
0.759084
0.848587
0.839673
0.716708
0.800647
0.657233
0.779237
0.671982
0.81793
0.838815
0.801175
0.646636
0.768696
0.815851
0.826191
0.833987
0.815205
0.683979
0.54611
0.806294
0.81792
0.802955
0.817738
0.806524
0.772911
0.854079
0.817243
0.804261
0.818724
0.799457
0.743674
0.800233
0.813154
0.602857
0.69227
0.803698
0.813194
0.805147
0.580872
0.813876
0.609433
0.814733
0.769101
0.818621
0.8183
0.75356
0.808596
0.79439
0.80542
0.839152
0.83992
0.832579
0.805066
0.818172
0.587043
0.814753
0.857936
0.826442
0.830905
0.804521
0.822622
0.800894
0.841017
0.809442
0.815032
0.680805
0.643246
0.837249
0.815575
0.841847
0.721381
0.802883
0.765158
0.799351
0.810287
0.795131
0.809119
0.815325
0.824511
0.829739
0.831703
0.805783
0.750295
0.806162
0.735262
0.795492
0.8232
0.802168
0.815773
0.760599
0.805448
0.806043
0.848241
0.811214
0.803484
0.807596
0.835836
0.832784
0.803752
0.85746
0.797426
0.821933
0.673552
0.803357
0.800657
0.801002
0.833312
0.613306
0.806701
0.805856
0.664304
0.816702
0.830964
0.816016
0.803506
0.806778
0.80291
0.818086
0.801072
0.715847
0.522912
0.81561
0.807751
0.802936
0.805352
0.804306
0.804049
0.813018
0.800316
0.81591
0.589054
0.815001
0.809819
0.814239
0.843616
0.8159
0.83566
0.813845
0.799815
0.81507
0.685575
0.804077
0.853331
0.815099
0.793628
0.816326
0.638271
0.806258
0.591013
0.675593
0.681676
0.809956
0.817541
0.812921
0.508902
0.697562
0.803698
0.832392
0.749717
0.834054
0.805429
0.806891
0.79892
0.698974
0.754181
0.557438
0.803363
0.814144
0.805977
0.822389
0.673296
0.684724
0.857078
0.803151
0.816183
0.734954
0.815753
0.535207
0.822679
0.700022
0.816013
0.819432
0.802436
0.803142
0.826922
0.796581
0.803989
0.805971
0.635758
0.807186
0.660767
0.800888
0.800452
0.815917
0.815979
0.731832
0.817382
0.754927
0.803412
0.717678
0.80668
0.745718
0.674893
0.826297
0.814738
0.801328
0.730397
0.81294
0.662538
0.813083
0.803276
0.724695
0.827596
0.818358
0.649515
0.699112
0.827525
0.803829
0.729625
0.835031
0.836265
0.837629
0.814216
0.555525
0.753361
0.822412
0.822186
0.557037
0.644082
0.817219
0.814788
0.728156
0.779574
0.814484
0.809029
0.760656
0.814493
0.815715
0.803709
0.734081
0.802645
0.799093
0.814135
0.584199
0.805899
0.823628
0.580012
0.820066
0.848246
0.814477
0.679855
0.81419
0.813928
0.814281
0.801441
0.820662
0.803808
0.807075
0.805141
0.803462
0.815684
0.65767
0.81193
0.811051
0.700984
0.612064
0.787063
0.800561
0.814508
0.753221
0.604961
0.813824
0.785787
0.814491
0.823327
0.815697
0.826848
0.750581
0.60321
0.813995
0.840744
0.814473
0.700687
0.805459
0.730264
0.815351
0.813249
0.814387
0.819348
0.801726
0.815325
0.808916
0.757397
0.818192
0.814937
0.754614
0.792644
0.716953
0.583742
0.737377
0.783865
0.817784
0.813725
0.812428
0.812767
0.803453
0.797449
0.808436
0.698943
0.753022
0.814016
0.803712
0.805174
0.819066
0.613193
0.815763
0.804127
0.844769
0.810129
0.645091
0.794388
0.804264
0.843625
0.699825
0.571287
0.583167
0.639335
0.819519
0.805111
0.570796
0.600018
0.821857
0.814574
0.889958
0.805104
0.830762
0.814759
0.769479
0.813116
0.81487
0.814503
0.812961
0.814478
0.800001
0.814318
0.662135
0.817758
0.803812
0.811684
0.755832
0.819154
0.61507
0.858613
0.804141
0.828608
0.814482
0.808386
0.746803
0.824572
0.814114
0.838821
0.81425
0.814736
0.65161
0.828362
0.812618
0.814697
0.837837
0.82439
0.560907
0.798696
0.804542
0.813095
0.817634
0.804155
0.801427
0.817308
0.767144
0.806627
0.817916
0.86438
0.832757
0.599129
0.798107
0.756112
0.816194
0.763603
0.821284
0.805242
0.806774
0.814598
0.790875
0.807557
0.816093
0.822895
0.788203
0.682309
0.738705
0.707654
0.816213
0.83851
0.84015
0.738395
0.811011
0.753537
0.617343
0.814475
0.801009
0.814263
0.803764
0.640747
0.802695
0.77785
0.735859
0.813208
0.74404
0.809292
0.818396
0.860841
0.810254
0.807665
0.742336
0.814812
0.77778
0.840722
0.88448
0.799262
0.529339
0.801597
0.615207
0.7711
0.661072
0.799606
0.510651
0.817104
0.852841
0.806304
0.813079
0.821586
0.804999
0.803343
0.70101
0.825252
0.814288
0.80441
0.808702
0.793172
0.803769
0.808759
0.638327
0.818559
0.803729
0.848081
0.810205
0.804962
0.803098
0.815127
0.815245
0.809723
0.803696
0.789572
0.814549
0.796975
0.803738
0.81548
0.774303
0.574004
0.814959
0.820114
0.804593
0.721607
0.803343
0.809675
0.803589
0.706637
0.877192
0.814088
0.818638
0.814477
0.850456
0.780118
0.814515
0.789652
0.8178
0.823866
0.667056
0.814544
0.731519
0.819744
0.725644
0.80168
0.754071
0.80407
0.690828
0.811562
0.732453
0.491697
0.821688
0.665657
0.769139
0.819199
0.814662
0.778648
0.813636
0.726089
0.642177
0.827827
0.694271
0.818717
0.770018
0.802389
0.808287
0.81548
0.656082
0.804857
0.774708
0.812037
0.814237
0.831443
0.806498
0.692014
0.757627
0.658932
0.800402
0.805162
0.814404
0.81739
0.812499
0.813981
0.811823
0.667865
0.733989
0.646814
0.704345
0.816055
0.809805
0.834526
0.809992
0.816806
0.697682
0.87816
0.817254
0.827889
0.579394
0.824659
0.814548
0.842076
0.846727
0.827899
0.832107
0.822062
0.548911
0.806144
0.81685
0.709712
0.818729
0.803469
0.8145
0.808515
0.814854
0.814856
0.770205
0.715902
0.800133
0.801539
0.579616
0.816162
0.860108
0.817365
0.672641
0.824374
0.815329
0.821432
0.837755
0.695619
0.500141
0.805148
0.841173
0.806394
0.804988
0.816343
0.802038
0.812898
0.811854
0.801295
0.804535
0.804976
0.81477
0.805872
0.806695
0.800785
0.837674
0.83226
0.854389
0.815147
0.809562
0.816564
0.815225
0.814485
0.81332
0.81755
0.835207
0.808988
0.813395
0.616683
0.832111
0.698541
0.869111
0.803904
0.834515
0.801227
0.787025
0.787921
0.738974
0.823003
0.811562
0.813683
0.81558
0.777194
0.810119
0.590101
0.806473
0.815233
0.815333
0.796352
0.814419
0.615343
0.784556
0.56479
0.822513
0.79908
0.776453
0.803898
0.815815
0.814741
0.814762
0.735656
0.810447
0.814319
0.812146
0.803913
0.804128
0.747003
0.770305
0.810824
0.803961
0.706231
0.604228
0.502031
0.842315
0.806393
0.780529
0.78228
0.825116
0.803763
0.804169
0.819984
0.780419
0.756837
0.818184
0.809169
0.812703
0.83841
0.805407
0.814166
0.80864
0.496822
0.803698
0.814297
0.775855
0.821262
0.816339
0.827303
0.615038
0.705654
0.581119
0.829557
0.817583
0.746357
0.81246
0.680682
0.815927
0.811929
0.814326
0.804419
0.812486
0.582849
0.691538
0.808081
0.81551
0.79424
0.803474
0.832389
0.800898
0.803726
0.653456
0.809755
0.814388
0.804825
0.814594
0.802868
0.623986
0.816485
0.8147
0.578978
0.707067
0.795429
0.830184
0.705429
0.80431
0.794381
0.814513
0.756769
0.688486
0.812848
0.796499
0.801189
0.767478
0.55044
0.822002
0.677438
0.750768
0.728995
0.804179
0.799431
0.813874
0.667342
0.769123
0.804302
0.817083
0.597581
0.801132
0.826611
0.809215
0.549761
0.805972
0.784437
0.715632
0.7145
0.800819
0.821038
0.815242
0.810813
0.709155
0.742126
0.64574
0.833889
0.84402
0.818812
0.788972
0.866111
0.70525
0.815555
0.768547
0.791614
0.796212
0.814399
0.80424
0.813992
0.787531
0.757746
0.821643
0.798958
0.843472
0.722063
0.791819
0.805867
0.725865
0.804536
0.816588
0.581878
0.80228
0.801166
0.802916
0.823033
0.766236
0.800835
0.725605
0.814527
0.809216
0.728262
0.814526
0.818187
0.8303
0.806118
0.788904
0.799757
0.806414
0.723172
0.81477
0.803258
0.683264
0.807647
0.781475
0.833285
0.822362
0.820865
0.840735
0.850971
0.70771
0.815898
0.797279
0.788168
0.62173
0.818649
0.80584
0.814587
0.778594
0.854531
0.834137
0.782853
0.844818
0.780974
0.800902
0.773615
0.814576
0.724718
0.640086
0.845423
0.667322
0.793313
0.840899
0.814747
0.676447
0.809632
0.75416
0.804429
0.799441
0.783787
0.804426
0.803137
0.803205
0.8023
0.786578
0.814392
0.783356
0.818298
0.80807
0.718852
0.785681
0.815828
0.814771
0.805895
0.570394
0.826245
0.814935
0.814345
0.712525
0.805378
0.802047
0.803192
0.817951
0.746134
0.818027
0.802671
0.806349
0.758535
0.813861
0.813226
0.80728
0.77073
0.809622
0.815119
0.80842
0.817504
0.810318
0.806377
0.824721
0.804888
0.790587
0.808455
0.814554
0.818861
0.781374
0.706738
0.815938
0.812766
0.802946
0.745438
0.789631
0.657917
0.803512
0.5486
0.803396
0.816554
0.776059
0.836067
0.543187
0.811713
0.740954
0.812901
0.542612
0.80572
0.829851
0.815501
0.820671
0.738121
0.842342
0.564145
0.825042
0.702933
0.801754
0.68389
0.67367
0.814825
0.814475
0.74515
0.80318
0.821918
0.616366
0.823523
0.77068
0.83505
0.814484
0.815669
0.815359
0.804056
0.83934
0.812007
0.80409
0.546527
0.803363
0.844818
0.803065
0.803549
0.769171
0.806995
0.814374
0.814535
0.798871
0.736778
0.812611
0.817565
0.607566
0.804547
0.600444
0.817729
0.553919
0.814418
0.772797
0.68711
0.73126
0.783393
0.717543
0.844309
0.814511
0.798631
0.804364
0.706544
0.802866
0.791298
0.802889
0.816665
0.803802
0.728308
0.706484
0.802391
0.773851
0.527657
0.813594
0.675276
0.794844
0.696576
0.826583
0.811791
0.826805
0.811826
0.83889
0.809439
0.593555
0.830794
0.809198
0.803365
0.817518
0.81441
0.81483
0.815174
0.826831
0.818429
0.625142
0.805043
0.800927
0.815166
0.695334
0.80264
0.825152
0.758639
0.69201
0.809273
0.697462
0.734543
0.811597
0.814999
0.672378
0.842775
0.768903
0.805674
0.798689
0.812241
0.845802
0.801605
0.55316
0.817004
0.693347
0.704548
0.778215
0.761601
0.771768
0.814578
0.803619
0.818154
0.814481
0.590996
0.787937
0.83367
0.814495
0.597651
0.728257
0.645832
0.818686
0.812773
0.694065
0.804312
0.814483
0.801397
0.836439
0.61569
0.841763
0.739564
0.814266
0.814794
0.681451
0.814768
0.716254
0.793549
0.711382
0.813457
0.786934
0.639793
0.727246
0.718495
0.834523
0.811777
0.821249
0.823873
0.803478
0.809137
0.804618
0.819334
0.803684
0.696603
0.804059
0.608108
0.779135
0.807525
0.803912
0.814551
0.826034
0.803407
0.723455
0.695246
0.672514
0.792618
0.818026
0.747701
0.612052
0.754309
0.812714
0.802189
0.762459
0.804978
0.824534
0.755431
0.574789
0.702231
0.800487
0.814552
0.865303
0.81649
0.814212
0.852923
0.801522
0.80233
0.816552
0.814608
0.807484
0.722019
0.809575
0.701495
0.863298
0.781289
0.815652
0.613855
0.798789
0.537446
0.588461
0.61352
0.810107
0.803777
0.811418
0.761636
0.803695
0.542146
0.784817
0.804925
0.738956
0.816418
0.803815
0.817897
0.844155
0.689482
0.814043
0.802296
0.812007
0.817364
0.815147
0.8147
0.757235
0.799334
0.799417
0.803419
0.799627
0.812926
0.847934
0.820522
0.727968
0.805088
0.654321
0.815442
0.814491
0.59402
0.768735
0.768783
0.546601
0.786764
0.803874
0.879085
0.800569
0.815188
0.758554
0.795077
0.799266
0.810624
0.783763
0.550604
0.700693
0.684243
0.782228
0.816611
0.803419
0.822613
0.791041
0.803986
0.815078
0.800293
0.853315
0.713564
0.814293
0.781867
0.540727
0.586083
0.815184
0.803804
0.805833
0.567596
0.797425
0.803984
0.662919
0.815919
0.792938
0.808744
0.816906
0.625399
0.722359
0.725319
0.814753
0.834175
0.637312
0.790645
0.71087
0.8158
0.828836
0.780655
0.775697
0.547929
0.813795
0.802562
0.726298
0.855093
0.806122
0.729293
0.742445
0.766066
0.813263
0.56954
0.797208
0.737957
0.800648
0.823739
0.71462
0.801364
0.813769
0.71925
0.813622
0.709448
0.818063
0.800351
0.759061
0.700438
0.810956
0.800421
0.815611
0.673363
0.80567
0.807069
0.814042
0.702982
0.814548
0.810107
0.833138
0.694102
0.817585
0.743337
0.81435
0.807468
0.84359
0.803946
0.820874
0.7505
0.817295
0.840252
0.834076
0.818156
0.848224
0.752535
0.850768
0.828398
0.805418
0.827106
0.806338
0.650583
0.780358
0.816108
0.749323
0.701594
0.800697
0.805787
0.693982
0.799704
0.546496
0.851055
0.706186
0.709719
0.815774
0.775993
0.808668
0.799469
0.80869
0.804141
0.814338
0.837894
0.735251
0.774363
0.595785
0.812494
0.777867
0.812439
0.805397
0.576301
0.803143
0.802676
0.809782
0.800499
0.818765
0.808537
0.700497
0.824928
0.850938
0.688227
0.746709
0.81455
0.803129
0.719353
0.815732
0.757071
0.79745
0.803318
0.80589
0.838631
0.673218
0.72103
0.801092
0.706378
0.773478
0.83327
0.540369
0.696374
0.799916
0.804565
0.803511
0.74134
0.824191
0.809092
0.803877
0.808584
0.815554
0.699155
0.659135
0.810085
0.816015
0.800942
0.875593
0.803894
0.814733
0.799406
0.812097
0.813202
0.808947
0.66118
0.815306
0.818635
0.803679
0.804067
0.801269
0.621961
0.811862
0.812857
0.814782
0.865913
0.816551
0.802029
0.497352
0.837764
0.703388
0.828113
0.807369
0.81451
0.826381
0.811578
0.814425
0.736526
0.559006
0.520492
0.814673
0.81126
0.545032
0.796273
0.816616
0.83493
0.516637
0.810251
0.815624
0.803631
0.809755
0.544898
0.815369
0.808711
0.567059
0.814592
0.817377
0.548529
0.810583
0.814937
0.77695
0.80766
0.812715
0.812006
0.800715
0.827581
0.542393
0.832041
0.816418
0.804311
0.745469
0.788016
0.813782
0.810158
0.804286
0.817855
0.801012
0.669903
0.808416
0.692186
0.814465
0.664039
0.749152
0.797441
0.72142
0.803674
0.585204
0.850954
0.814614
0.814607
0.801365
0.803307
0.803273
0.814342
0.816543
0.673932
0.723906
0.731116
0.81693
0.727726
0.65972
0.819102
0.785735
0.82946
0.813884
0.810026
0.735353
0.548573
0.799304
0.792286
0.511997
0.81605
0.815293
0.738048
0.806576
0.770664
0.616823
0.812085
0.815371
0.790743
0.614796
0.802762
0.784044
0.828091
0.815266
0.812887
0.8124
0.815137
0.709322
0.801819
0.817841
0.704652
0.495809
0.73838
0.799246
0.734822
0.815298
0.800331
0.806029
0.783637
0.868306
0.803637
0.802078
0.827434
0.860451
0.804908
0.817613
0.796614
0.817986
0.790044
0.745999
0.812562
0.804559
0.818243
0.80343
0.793084
0.844187
0.767268
0.815047
0.775372
0.804865
0.646538
0.520316
0.801458
0.802751
0.811995
0.798635
0.801431
0.81443
0.773921
0.805995
0.814483
0.784156
0.818702
0.777329
0.600609
0.805472
0.761015
0.777634
0.752894
0.76394
0.794658
0.789412
0.823828
0.788337
0.809843
0.803459
0.767701
0.817635
0.551058
0.734088
0.812835
0.816119
0.81379
0.804438
0.815025
0.812137
0.806211
0.823042
0.810117
0.784047
0.818622
0.803327
0.792738
0.796581
0.805527
0.592228
0.803957
0.792947
0.582831
0.814753
0.807681
0.806364
0.811212
0.706774
0.753979
0.823006
0.775179
0.811981
0.818386
0.717118
0.80478
0.825878
0.723837
0.800096
0.811807
0.779902
0.806731
0.839043
0.802549
0.819358
0.774537
0.805617
0.801787
0.815316
0.803971
0.799934
0.596412
0.817351
0.78916
0.80698
0.827389
0.701633
0.830242
0.821491
0.517685
0.807785
0.80474
0.803675
0.814536
0.825824
0.825842
0.80523
0.808027
0.816365
0.814008
0.80369
0.814797
0.806112
0.750813
0.716388
0.783102
0.815899
0.814219
0.777894
0.760037
0.814511
0.826075
0.811124
0.814602
0.702592
0.51278
0.747762
0.81956
0.808277
0.818311
0.845409
0.80164
0.721738
0.662479
0.801837
0.806293
0.700644
0.815004
0.681217
0.83823
0.732276
0.815006
0.895882
0.816171
0.802494
0.780048
0.811746
0.689251
0.814867
0.810417
0.792332
0.80773
0.77969
0.802347
0.810448
0.783129
0.803751
0.853252
0.77788
0.802347
0.524006
0.804319
0.697047
0.804347
0.795022
0.789091
0.785647
0.724871
0.804272
0.790304
0.84583
0.815555
0.814805
0.814198
0.896132
0.749309
0.803161
0.736041
0.803279
0.800505
0.805365
0.721513
0.802614
0.806105
0.651311
0.810744
0.751231
0.59416
0.847844
0.848647
0.753196
0.811458
0.795416
0.774444
0.736999
0.777443
0.786755
0.738814
0.804192
0.805493
0.72603
0.817443
0.805322
0.56809
0.814472
0.823123
0.815193
0.803751
0.615771
0.722174
0.806735
0.8603
0.516757
0.728845
0.808038
0.816632
0.798435
0.709685
0.718823
0.809433
0.815508
0.817149
0.838581
0.74462
0.757141
0.876597
0.807645
0.811713
0.795891
0.654161
0.628155
0.593471
0.663928
0.601409
0.767433
0.80292
0.804522
0.814547
0.81079
0.811931
0.861261
0.723157
0.825652
0.816112
0.819113
0.818703
0.816045
0.815266