# vtk DataFile Version 1.0
unstructured grid
ascii
DATASET UNSTRUCTURED_GRID
points 14760 float
-1 0 0
-1 1 0
2 0 0
2 1 0
0 0 0
1 0 0
-1 1 0.1
-1 0 0.1
0 0 0.1
1 0 0.1
2 0 0.1
2 1 0.1
-0.99 0 0
-0.98 0 0
-0.97 0 0
-0.96 0 0
-0.95 0 0
-0.94 0 0
-0.93 0 0
-0.92 0 0
-0.91 0 0
-0.9 0 0
-0.89 0 0
-0.88 0 0
-0.87 0 0
-0.86 0 0
-0.85 0 0
-0.84 0 0
-0.83 0 0
-0.82 0 0
-0.81 0 0
-0.8 0 0
-0.79 0 0
-0.78 0 0
-0.77 0 0
-0.76 0 0
-0.75 0 0
-0.74 0 0
-0.73 0 0
-0.72 0 0
-0.71 0 0
-0.7 0 0
-0.69 0 0
-0.68 0 0
-0.67 0 0
-0.66 0 0
-0.65 0 0
-0.64 0 0
-0.63 0 0
-0.62 0 0
-0.61 0 0
-0.6 0 0
-0.59 0 0
-0.58 0 0
-0.57 0 0
-0.56 0 0
-0.55 0 0
-0.54 0 0
-0.53 0 0
-0.52 0 0
-0.51 0 0
-0.5 0 0
-0.49 0 0
-0.48 0 0
-0.47 0 0
-0.46 0 0
-0.45 0 0
-0.44 0 0
-0.43 0 0
-0.42 0 0
-0.41 0 0
-0.4 0 0
-0.39 0 0
-0.38 0 0
-0.37 0 0
-0.36 0 0
-0.35 0 0
-0.34 0 0
-0.33 0 0
-0.32 0 0
-0.31 0 0
-0.3 0 0
-0.29 0 0
-0.28 0 0
-0.27 0 0
-0.26 0 0
-0.25 0 0
-0.24 0 0
-0.23 0 0
-0.22 0 0
-0.21 0 0
-0.2 0 0
-0.19 0 0
-0.18 0 0
-0.17 0 0
-0.16 0 0
-0.15 0 0
-0.14 0 0
-0.13 0 0
-0.12 0 0
-0.11 0 0
-0.1 0 0
-0.09 0 0
-0.08 0 0
-0.07 0 0
-0.06 0 0
-0.05 0 0
-0.04 0 0
-0.03 0 0
-0.02 0 0
-0.01 0 0
1.01 0 0
1.02 0 0
1.03 0 0
1.04 0 0
1.05 0 0
1.06 0 0
1.07 0 0
1.08 0 0
1.09 0 0
1.1 0 0
1.11 0 0
1.12 0 0
1.13 0 0
1.14 0 0
1.15 0 0
1.16 0 0
1.17 0 0
1.18 0 0
1.19 0 0
1.2 0 0
1.21 0 0
1.22 0 0
1.23 0 0
1.24 0 0
1.25 0 0
1.26 0 0
1.27 0 0
1.28 0 0
1.29 0 0
1.3 0 0
1.31 0 0
1.32 0 0
1.33 0 0
1.34 0 0
1.35 0 0
1.36 0 0
1.37 0 0
1.38 0 0
1.39 0 0
1.4 0 0
1.41 0 0
1.42 0 0
1.43 0 0
1.44 0 0
1.45 0 0
1.46 0 0
1.47 0 0
1.48 0 0
1.49 0 0
1.5 0 0
1.51 0 0
1.52 0 0
1.53 0 0
1.54 0 0
1.55 0 0
1.56 0 0
1.57 0 0
1.58 0 0
1.59 0 0
1.6 0 0
1.61 0 0
1.62 0 0
1.63 0 0
1.64 0 0
1.65 0 0
1.66 0 0
1.67 0 0
1.68 0 0
1.69 0 0
1.7 0 0
1.71 0 0
1.72 0 0
1.73 0 0
1.74 0 0
1.75 0 0
1.76 0 0
1.77 0 0
1.78 0 0
1.79 0 0
1.8 0 0
1.81 0 0
1.82 0 0
1.83 0 0
1.84 0 0
1.85 0 0
1.86 0 0
1.87 0 0
1.88 0 0
1.89 0 0
1.9 0 0
1.91 0 0
1.92 0 0
1.93 0 0
1.94 0 0
1.95 0 0
1.96 0 0
1.97 0 0
1.98 0 0
1.99 0 0
2 0.0100088 0
2 0.0204183 0
2 0.0312446 0
2 0.0425043 0
2 0.0542147 0
2 0.066394 0
2 0.079061 0
2 0.092235 0
2 0.105936 0
2 0.120186 0
2 0.135007 0
2 0.150421 0
2 0.166452 0
2 0.183124 0
2 0.200465 0
2 0.218499 0
2 0.237256 0
2 0.256763 0
2 0.277051 0
2 0.298152 0
2 0.320097 0
2 0.342921 0
2 0.366659 0
2 0.391347 0
2 0.417024 0
2 0.443728 0
2 0.471502 0
2 0.500387 0
2 0.530429 0
2 0.561674 0
2 0.594169 0
2 0.627966 0
2 0.663115 0
2 0.699672 0
2 0.737692 0
2 0.777235 0
2 0.818361 0
2 0.861133 0
2 0.905617 0
2 0.951882 0
1.95 1 0
1.9 1 0
1.85 1 0
1.8 1 0
1.75 1 0
1.7 1 0
1.65 1 0
1.6 1 0
1.55 1 0
1.5 1 0
1.45 1 0
1.4 1 0
1.35 1 0
1.3 1 0
1.25 1 0
1.2 1 0
1.15 1 0
1.1 1 0
1.05 1 0
1 1 0
0.95 1 0
0.9 1 0
0.85 1 0
0.8 1 0
0.75 1 0
0.7 1 0
0.65 1 0
0.6 1 0
0.55 1 0
0.5 1 0
0.45 1 0
0.4 1 0
0.35 1 0
0.3 1 0
0.25 1 0
0.2 1 0
0.15 1 0
0.1 1 0
0.05 1 0
3.69793e-12 1 0
-0.05 1 0
-0.1 1 0
-0.15 1 0
-0.2 1 0
-0.25 1 0
-0.3 1 0
-0.35 1 0
-0.4 1 0
-0.45 1 0
-0.5 1 0
-0.55 1 0
-0.6 1 0
-0.65 1 0
-0.7 1 0
-0.75 1 0
-0.8 1 0
-0.85 1 0
-0.9 1 0
-0.95 1 0
-1 0.951882 0
-1 0.905617 0
-1 0.861133 0
-1 0.818361 0
-1 0.777235 0
-1 0.737692 0
-1 0.699672 0
-1 0.663115 0
-1 0.627966 0
-1 0.594169 0
-1 0.561674 0
-1 0.530429 0
-1 0.500387 0
-1 0.471502 0
-1 0.443728 0
-1 0.417024 0
-1 0.391347 0
-1 0.366659 0
-1 0.342921 0
-1 0.320097 0
-1 0.298152 0
-1 0.277051 0
-1 0.256763 0
-1 0.237256 0
-1 0.218499 0
-1 0.200465 0
-1 0.183124 0
-1 0.166452 0
-1 0.150421 0
-1 0.135007 0
-1 0.120186 0
-1 0.105936 0
-1 0.092235 0
-1 0.079061 0
-1 0.066394 0
-1 0.0542147 0
-1 0.0425043 0
-1 0.0312446 0
-1 0.0204183 0
-1 0.0100088 0
0.00921362 0.00379763 0
0.0184561 0.00752451 0
0.0277268 0.0111804 0
0.0370253 0.0147652 0
0.0463511 0.0182786 0
0.0557034 0.0217203 0
0.0650819 0.0250903 0
0.074486 0.0283883 0
0.083915 0.0316141 0
0.0933685 0.0347675 0
0.102846 0.0378484 0
0.112347 0.0408565 0
0.12187 0.0437917 0
0.131416 0.0466538 0
0.140983 0.0494427 0
0.150572 0.0521581 0
0.160181 0.0547999 0
0.16981 0.0573681 0
0.179458 0.0598623 0
0.189125 0.0622825 0
0.198811 0.0646285 0
0.208514 0.0669001 0
0.218234 0.0690974 0
0.227971 0.07122 0
0.237724 0.073268 0
0.247493 0.0752411 0
0.257276 0.0771393 0
0.267073 0.0789625 0
0.276884 0.0807105 0
0.286708 0.0823832 0
0.296545 0.0839806 0
0.306394 0.0855025 0
0.316254 0.0869488 0
0.326125 0.0883196 0
0.336006 0.0896146 0
0.345896 0.0908339 0
0.355796 0.0919773 0
0.365704 0.0930447 0
0.375621 0.0940362 0
0.385544 0.0949517 0
0.395474 0.095791 0
0.40541 0.0965542 0
0.415352 0.0972412 0
0.425299 0.097852 0
0.43525 0.0983865 0
0.445205 0.0988447 0
0.455164 0.0992266 0
0.465125 0.0995321 0
0.475088 0.0997613 0
0.485052 0.0999141 0
0.495017 0.0999904 0
0.504983 0.0999904 0
0.514948 0.0999141 0
0.524912 0.0997613 0
0.534875 0.0995321 0
0.544836 0.0992266 0
0.554795 0.0988447 0
0.56475 0.0983865 0
0.574701 0.097852 0
0.584648 0.0972412 0
0.59459 0.0965542 0
0.604526 0.095791 0
0.614456 0.0949517 0
0.624379 0.0940362 0
0.634296 0.0930447 0
0.644204 0.0919773 0
0.654104 0.0908339 0
0.663994 0.0896146 0
0.673875 0.0883196 0
0.683746 0.0869488 0
0.693606 0.0855025 0
0.703455 0.0839806 0
0.713292 0.0823832 0
0.723116 0.0807105 0
0.732927 0.0789625 0
0.742724 0.0771393 0
0.752508 0.0752411 0
0.762276 0.073268 0
0.772029 0.07122 0
0.781766 0.0690974 0
0.791486 0.0669001 0
0.801189 0.0646285 0
0.810875 0.0622825 0
0.820542 0.0598623 0
0.83019 0.0573681 0
0.839819 0.0547999 0
0.849428 0.0521581 0
0.859017 0.0494427 0
0.868584 0.0466538 0
0.87813 0.0437917 0
0.887653 0.0408565 0
0.897154 0.0378484 0
0.906631 0.0347675 0
0.916085 0.0316141 0
0.925514 0.0283883 0
0.934918 0.0250903 0
0.944297 0.0217203 0
0.953649 0.0182786 0
0.962975 0.0147652 0
0.972273 0.0111804 0
0.981544 0.00752451 0
0.990786 0.00379763 0
-1 0.951882 0.1
-1 0.905617 0.1
-1 0.861133 0.1
-1 0.818361 0.1
-1 0.777235 0.1
-1 0.737692 0.1
-1 0.699672 0.1
-1 0.663115 0.1
-1 0.627966 0.1
-1 0.594169 0.1
-1 0.561674 0.1
-1 0.530429 0.1
-1 0.500387 0.1
-1 0.471502 0.1
-1 0.443728 0.1
-1 0.417024 0.1
-1 0.391347 0.1
-1 0.366659 0.1
-1 0.342921 0.1
-1 0.320097 0.1
-1 0.298152 0.1
-1 0.277051 0.1
-1 0.256763 0.1
-1 0.237256 0.1
-1 0.218499 0.1
-1 0.200465 0.1
-1 0.183124 0.1
-1 0.166452 0.1
-1 0.150421 0.1
-1 0.135007 0.1
-1 0.120186 0.1
-1 0.105936 0.1
-1 0.092235 0.1
-1 0.079061 0.1
-1 0.066394 0.1
-1 0.0542147 0.1
-1 0.0425043 0.1
-1 0.0312446 0.1
-1 0.0204183 0.1
-1 0.0100088 0.1
-0.99 0 0.1
-0.98 0 0.1
-0.97 0 0.1
-0.96 0 0.1
-0.95 0 0.1
-0.94 0 0.1
-0.93 0 0.1
-0.92 0 0.1
-0.91 0 0.1
-0.9 0 0.1
-0.89 0 0.1
-0.88 0 0.1
-0.87 0 0.1
-0.86 0 0.1
-0.85 0 0.1
-0.84 0 0.1
-0.83 0 0.1
-0.82 0 0.1
-0.81 0 0.1
-0.8 0 0.1
-0.79 0 0.1
-0.78 0 0.1
-0.77 0 0.1
-0.76 0 0.1
-0.75 0 0.1
-0.74 0 0.1
-0.73 0 0.1
-0.72 0 0.1
-0.71 0 0.1
-0.7 0 0.1
-0.69 0 0.1
-0.68 0 0.1
-0.67 0 0.1
-0.66 0 0.1
-0.65 0 0.1
-0.64 0 0.1
-0.63 0 0.1
-0.62 0 0.1
-0.61 0 0.1
-0.6 0 0.1
-0.59 0 0.1
-0.58 0 0.1
-0.57 0 0.1
-0.56 0 0.1
-0.55 0 0.1
-0.54 0 0.1
-0.53 0 0.1
-0.52 0 0.1
-0.51 0 0.1
-0.5 0 0.1
-0.49 0 0.1
-0.48 0 0.1
-0.47 0 0.1
-0.46 0 0.1
-0.45 0 0.1
-0.44 0 0.1
-0.43 0 0.1
-0.42 0 0.1
-0.41 0 0.1
-0.4 0 0.1
-0.39 0 0.1
-0.38 0 0.1
-0.37 0 0.1
-0.36 0 0.1
-0.35 0 0.1
-0.34 0 0.1
-0.33 0 0.1
-0.32 0 0.1
-0.31 0 0.1
-0.3 0 0.1
-0.29 0 0.1
-0.28 0 0.1
-0.27 0 0.1
-0.26 0 0.1
-0.25 0 0.1
-0.24 0 0.1
-0.23 0 0.1
-0.22 0 0.1
-0.21 0 0.1
-0.2 0 0.1
-0.19 0 0.1
-0.18 0 0.1
-0.17 0 0.1
-0.16 0 0.1
-0.15 0 0.1
-0.14 0 0.1
-0.13 0 0.1
-0.12 0 0.1
-0.11 0 0.1
-0.1 0 0.1
-0.09 0 0.1
-0.08 0 0.1
-0.07 0 0.1
-0.06 0 0.1
-0.05 0 0.1
-0.04 0 0.1
-0.03 0 0.1
-0.02 0 0.1
-0.01 0 0.1
0.00921362 0.00379763 0.1
0.0184561 0.00752451 0.1
0.0277268 0.0111804 0.1
0.0370253 0.0147652 0.1
0.0463511 0.0182786 0.1
0.0557034 0.0217203 0.1
0.0650819 0.0250903 0.1
0.074486 0.0283883 0.1
0.083915 0.0316141 0.1
0.0933685 0.0347675 0.1
0.102846 0.0378484 0.1
0.112347 0.0408565 0.1
0.12187 0.0437917 0.1
0.131416 0.0466538 0.1
0.140983 0.0494427 0.1
0.150572 0.0521581 0.1
0.160181 0.0547999 0.1
0.16981 0.0573681 0.1
0.179458 0.0598623 0.1
0.189125 0.0622825 0.1
0.198811 0.0646285 0.1
0.208514 0.0669001 0.1
0.218234 0.0690974 0.1
0.227971 0.07122 0.1
0.237724 0.073268 0.1
0.247493 0.0752411 0.1
0.257276 0.0771393 0.1
0.267073 0.0789625 0.1
0.276884 0.0807105 0.1
0.286708 0.0823832 0.1
0.296545 0.0839806 0.1
0.306394 0.0855025 0.1
0.316254 0.0869488 0.1
0.326125 0.0883196 0.1
0.336006 0.0896146 0.1
0.345896 0.0908339 0.1
0.355796 0.0919773 0.1
0.365704 0.0930447 0.1
0.375621 0.0940362 0.1
0.385544 0.0949517 0.1
0.395474 0.095791 0.1
0.40541 0.0965542 0.1
0.415352 0.0972412 0.1
0.425299 0.097852 0.1
0.43525 0.0983865 0.1
0.445205 0.0988447 0.1
0.455164 0.0992266 0.1
0.465125 0.0995321 0.1
0.475088 0.0997613 0.1
0.485052 0.0999141 0.1
0.495017 0.0999904 0.1
0.504983 0.0999904 0.1
0.514948 0.0999141 0.1
0.524912 0.0997613 0.1
0.534875 0.0995321 0.1
0.544836 0.0992266 0.1
0.554795 0.0988447 0.1
0.56475 0.0983865 0.1
0.574701 0.097852 0.1
0.584648 0.0972412 0.1
0.59459 0.0965542 0.1
0.604526 0.095791 0.1
0.614456 0.0949517 0.1
0.624379 0.0940362 0.1
0.634296 0.0930447 0.1
0.644204 0.0919773 0.1
0.654104 0.0908339 0.1
0.663994 0.0896146 0.1
0.673875 0.0883196 0.1
0.683746 0.0869488 0.1
0.693606 0.0855025 0.1
0.703455 0.0839806 0.1
0.713292 0.0823832 0.1
0.723116 0.0807105 0.1
0.732927 0.0789625 0.1
0.742724 0.0771393 0.1
0.752508 0.0752411 0.1
0.762276 0.073268 0.1
0.772029 0.07122 0.1
0.781766 0.0690974 0.1
0.791486 0.0669001 0.1
0.801189 0.0646285 0.1
0.810875 0.0622825 0.1
0.820542 0.0598623 0.1
0.83019 0.0573681 0.1
0.839819 0.0547999 0.1
0.849428 0.0521581 0.1
0.859017 0.0494427 0.1
0.868584 0.0466538 0.1
0.87813 0.0437917 0.1
0.887653 0.0408565 0.1
0.897154 0.0378484 0.1
0.906631 0.0347675 0.1
0.916085 0.0316141 0.1
0.925514 0.0283883 0.1
0.934918 0.0250903 0.1
0.944297 0.0217203 0.1
0.953649 0.0182786 0.1
0.962975 0.0147652 0.1
0.972273 0.0111804 0.1
0.981544 0.00752451 0.1
0.990786 0.00379763 0.1
1.01 0 0.1
1.02 0 0.1
1.03 0 0.1
[...]
CELL_DATA 14313
SCALARS rho float
LOOKUP_TABLE default
0.911818
0.822637
0.810795
0.822089
0.906872
0.940461
0.936658
0.937204
0.809726
0.814355
0.940396
0.794951
0.80288
0.814392
0.935387
0.934072
0.808312
0.808518
0.934264
0.810492
0.940068
0.824751
0.936936
0.906978
0.936264
0.813922
0.898806
0.811203
0.822189
0.931367
0.938746
0.789319
0.803547
0.936308
0.80258
0.934032
0.870071
0.808424
0.936511
0.801868
0.901352
0.939798
0.823412
0.879651
0.931827
0.930249
0.935559
0.811798
0.922147
0.844417
0.868386
0.865864
0.833612
0.934072
0.931201
0.798858
0.931823
0.825219
0.80942
0.935974
0.940085
0.931961
0.789161
0.931366
0.939804
0.934238
0.845554
0.803201
0.936035
0.935398
0.794686
0.933949
0.805047
0.934221
0.87485
0.928596
0.823949
0.900413
0.88209
0.938984
0.842927
0.931526
0.929154
0.801755
0.927948
0.931848
0.940364
0.802381
0.927279
0.808479
0.80047
0.815551
0.80669
0.801465
0.875084
0.79892
0.93286
0.9375
0.801872
0.806121
0.92547
0.936645
0.936803
0.923757
0.899805
0.808349
0.801885
0.883322
0.933991
0.934159
0.813732
0.932488
0.932606
0.931868
0.801684
0.932602
0.931266
0.933967
0.801095
0.801626
0.93639
0.937842
0.938012
0.875717
0.837584
0.899847
0.917105
0.80237
0.932958
0.837491
0.935659
0.938587
0.938291
0.93734
0.932437
0.797963
0.82631
0.798193
0.931861
0.93207
0.936661
0.930722
0.801101
0.798697
0.804884
0.935713
0.803473
0.816497
0.916861
0.932047
0.801287
0.80174
0.936936
0.881682
0.930543
0.798638
0.891695
0.932142
0.936862
0.810972
0.931939
0.807741
0.83292
0.817249
0.932411
0.823637
0.822056
0.934747
0.933051
0.816577
0.874056
0.816477
0.886338
0.916445
0.931082
0.825005
0.931953
0.924295
0.932119
0.822872
0.93912
0.935642
0.909243
0.816212
0.800277
0.828156
0.935477
0.805236
0.807666
0.913942
0.813952
0.821794
0.816276
0.833905
0.935971
0.931725
0.806677
0.801897
0.930915
0.932139
0.9043
0.801884
0.933183
0.932844
0.933789
0.798383
0.817268
0.814136
0.937004
0.930081
0.805553
0.926407
0.917293
0.884123
0.93295
0.832538
0.936587
0.808903
0.933712
0.80313
0.801877
0.818015
0.930853
0.939753
0.92523
0.801825
0.932013
0.803401
0.937195
0.902984
0.834415
0.813984
0.882532
0.932839
0.803346
0.875605
0.93382
0.932874
0.93165
0.825208
0.813845
0.810963
0.897609
0.834912
0.932481
0.891833
0.803116
0.805734
0.934105
0.816283
0.834314
0.801728
0.822157
0.935434
0.802187
0.875903
0.926651
0.932443
0.932919
0.827436
0.812479
0.802146
0.924246
0.925701
0.914491
0.909262
0.81708
0.816238
0.817101
0.932968
0.93318
0.813231
0.802188
0.940627
0.811381
0.930731
0.916101
0.879525
0.811321
0.803275
0.832276
0.82406
0.815393
0.931987
0.932076
0.799467
0.940771
0.932879
0.812642
0.804829
0.801726
0.932159
0.933639
0.918767
0.806293
0.81339
0.842692
0.92453
0.836668
0.80128
0.789395
0.815795
0.933989
0.808175
0.802742
0.865471
0.863017
0.921787
0.807485
0.818446
0.799398
0.802089
0.866074
0.932395
0.820872
0.816927
0.940484
0.93343
0.803234
0.915337
0.933363
0.822566
0.934067
0.937886
0.933018
0.934741
0.906254
0.9305
0.80321
0.933316
0.933103
0.809325
0.818199
0.801166
0.801585
0.800918
0.936617
0.813394
0.808814
0.93399
0.803133
0.793169
0.821963
0.886092
0.933077
0.900561
0.812982
0.83156
0.935468
0.933117
0.803395
0.806338
0.937178
0.798523
0.932093
0.915618
0.932108
0.81071
0.936463
0.916832
0.934351
0.918273
0.939531
0.843068
0.803355
0.802075
0.81368
0.923092
0.907082
0.80152
0.937496
0.936799
0.932004
0.816171
0.817132
0.924696
0.898641
0.811441
0.812072
0.928007
0.933584
0.932646
0.821641
0.805551
0.8343
0.912374
0.841403
0.798835
0.820133
0.926375
0.93266
0.944426
0.817111
0.837402
0.934343
0.943565
0.932827
0.879487
0.804361
0.831823
0.927385
0.816409
0.885638
0.863018
0.899981
0.933527
0.802787
0.94424
0.932482
0.923961
0.807812
0.802698
0.888047
0.91217
0.932034
0.806331
0.801963
0.9337
0.93734
0.87784
0.870961
0.803145
0.80527
0.939372
0.939736
0.814024
0.940076
0.892711
0.813434
0.795287
0.801892
0.905385
0.932019
0.813171
0.935275
0.93957
0.900366
0.802586
0.800514
0.920011
0.938431
0.929483
0.9264
0.861116
0.801505
0.928497
0.81278
0.93069
0.806032
0.933855
0.808616
0.930109
0.930704
0.812429
0.939677
0.899092
0.932095
0.924674
0.812848
0.926396
0.791908
0.932614
0.825416
0.803617
0.86885
0.939886
0.808257
0.815628
0.823732
0.802557
0.795438
0.81073
0.926306
0.908576
0.939719
0.836685
0.804882
0.804649
0.82357
0.93129
0.90586
0.939779
0.937293
0.80141
0.932221
0.80284
0.802566
0.937209
0.858859
0.907721
0.891508
0.806145
0.932637
0.832392
0.80031
0.931943
0.940159
0.823158
0.88831
0.938415
0.804623
0.801983
0.920202
0.906617
0.935529
0.936963
0.822494
0.934695
0.816361
0.801367
0.935824
0.934257
0.803372
0.939766
0.842749
0.931465
0.931807
0.829767
0.801304
0.9346
0.793503
0.828039
0.929111
0.799091
0.806844
0.801463
0.933095
0.83475
0.801591
0.803189
0.816858
0.940553
0.819148
0.93855
0.820344
0.80302
0.804931
0.932739
0.932981
0.933887
0.924311
0.801764
0.802703
0.936108
0.810872
0.937111
0.839297
0.828313
0.80163
0.865605
0.810145
0.867151
0.929619
0.839896
0.802864
0.850449
0.906415
0.933777
0.932442
0.931693
0.923792
0.839517
0.821132
0.806273
0.931831
0.802282
0.816971
0.922035
0.814062
0.843931
0.931556
0.800403
0.931571
0.793595
0.807595
0.801757
0.812949
0.842843
0.879705
0.799239
0.939936
0.802237
0.836912
0.935948
0.847487
0.936897
0.814593
0.928263
0.93167
0.816959
0.927407
0.917115
0.801613
0.833142
0.840468
0.928847
0.800617
0.932245
0.834379
0.936534
0.940262
0.926758
0.933291
0.801671
0.931746
0.803295
0.931852
0.82376
0.819923
0.859274
0.842263
0.935063
0.934223
0.931831
0.877806
0.802263
0.815397
0.802379
0.824307
0.917515
0.928349
0.934861
0.932364
0.932767
0.933782
0.802088
0.808702
0.925946
0.834745
0.922055
0.930059
0.802126
0.814166
0.815404
0.801932
0.80601
0.93696
0.931045
0.801429
0.807477
0.934731
0.931498
0.801352
0.940078
0.822085
0.931716
0.847393
0.802831
0.794694
0.802446
0.934146
0.848947
0.803482
0.802517
0.861366
0.933016
0.933332
0.933582
0.803162
0.805278
0.798607
0.931806
0.802532
0.807024
0.813633
0.934298
0.928327
0.801842
0.803754
0.80327
0.79934
0.935858
0.801804
0.933854
0.83918
0.933736
0.807845
0.93739
0.934531
0.933709
0.830837
0.939762
0.80151
0.935545
0.876463
0.799011
0.843231
0.935454
0.789127
0.933097
0.856454
0.804791
0.82438
0.843473
0.859619
0.807845
0.93196
0.812321
0.808526
0.881187
0.801823
0.933837
0.90017
0.836934
0.801499
0.808813
0.923122
0.811695
0.818396
0.824426
0.801895
0.940668
0.805918
0.927229
0.872512
0.81331
0.845697
0.802442
0.933218
0.834551
0.934053
0.818043
0.931793
0.810754
0.933524
0.931125
0.80296
0.801856
0.932783
0.916725
0.799743
0.926129
0.856551
0.820865
0.856769
0.801607
0.801937
0.933806
0.820718
0.893127
0.931146
0.813845
0.802462
0.805347
0.806703
0.80616
0.872519
0.932492
0.936814
0.802993
0.887708
0.812504
0.865088
0.93263
0.802489
0.808423
0.932907
0.931733
0.844601
0.881613
0.932898
0.800987
0.88748
0.830324
0.934848
0.93518
0.940152
0.825912
0.901375
0.925396
0.931758
0.814269
0.859084
0.816204
0.936556
0.830266
0.810464
0.939457
0.926129
0.812764
0.936156
0.934122
0.801331
0.828527
0.798117
0.922905
0.930656
0.834517
0.802947
0.932192
0.836069
0.931226
0.840029
0.940318
0.874668
0.939772
0.936099
0.939335
0.792375
0.931954
0.820663
0.804213
0.800865
0.803005
0.933436
0.805281
0.929227
0.810546
0.857298
0.839639
0.802686
0.80204
0.938963
0.816701
0.821221
0.938162
0.914492
0.939327
0.931838
0.933987
0.932762
0.900521
0.83446
0.94018
0.835669
0.940334
0.802189
0.924139
0.891861
0.933969
0.932846
0.940472
0.931939
0.799155
0.93487
0.807171
0.816584
0.930971
0.935961
0.900557
0.797784
0.875225
0.822918
0.823215
0.913424
0.930993
0.938513
0.812321
0.932905
0.80295
0.919911
0.805915
0.801252
0.815625
0.939156
0.801848
0.802249
0.81723
0.840373
0.9339
0.79898
0.934528
0.933974
0.850053
0.813996
0.801754
0.932535
0.857147
0.82852
0.836518
0.858577
0.931043
0.811461
0.827554
0.831463
0.932039
0.938003
0.94807
0.801869
0.928372
0.936519
0.816961
0.936174
0.935373
0.939065
0.936459
0.940359
0.802519
0.932607
0.832045
0.931922
0.80104
0.92929
0.814354
0.931949
0.84965
0.84624
0.80026
0.93176
0.940629
0.806023
0.81346
0.823633
0.93355
0.834844
0.939966
0.934221
0.848172
0.931609
0.940036
0.936202
0.93089
0.932348
0.827438
0.802745
0.804436
0.814557
0.815979
0.800387
0.80351
0.932623
0.810367
0.806614
0.932328
0.939399
0.934022
0.83375
0.920161
0.818202
0.93335
0.814144
0.931687
0.802509
0.803808
0.937345
0.91455
0.924968
0.818613
0.820536
0.792258
0.839118
0.885984
0.842783
0.932155
0.833414
0.833862
0.885849
0.931435
0.815908
0.844906
0.939613
0.803199
0.940367
0.801892
0.846247
0.80088
0.806987
0.815547
0.939575
0.815565
0.809355
0.931047
0.941022
0.820978
0.812451
0.897717
0.936339
0.910277
0.934286
0.946396
0.801359
0.815219
0.801762
0.844947
0.806825
0.867187
0.794005
0.807622
0.932731
0.8431
0.802978
0.939935
0.931726
0.807344
0.800453
0.876849
0.824141
0.937218
0.798994
0.928515
0.798891
0.801812
0.925672
0.846409
0.932181
0.803311
0.84007
0.932396
0.809413
0.802404
0.93312
0.933215
0.931121
0.801508
0.914917
0.938331
0.916671
0.804098
0.934318
0.908891
0.831398
0.93587
0.931995
0.810548
0.806148
0.805611
0.926723
0.801415
0.860377
0.858246
0.940652
0.930848
0.939609
0.841052
0.911015
0.938605
0.914722
0.931112
0.932239
0.867766
0.938415
0.892044
0.81771
0.848218
0.803479
0.818428
0.803383
0.805427
0.936904
0.809115
0.802254
0.926941
0.867328
0.816794
0.931831
0.937337
0.910373
0.938274
0.846931
0.858652
0.93227
0.798808
0.932116
0.907526
0.803029
0.805637
0.934375
0.865279
0.802465
0.816904
0.939675
0.93343
0.828415
0.803308
0.873539
0.903316
0.856239
0.801893
0.807487
0.94018
0.931264
0.810863
0.940166
0.939741
0.865407
0.894225
0.805771
0.863001
0.933609
0.809822
0.934428
0.808288
0.932895
0.80298
0.858985
0.932665
0.932806
0.832192
0.932147
0.938094
0.936122
0.934976
0.927499
0.828093
0.932057
0.822875
0.803438
0.930282
0.806642
0.931631
0.805708
0.938581
0.806778
0.935326
0.93407
0.90756
0.809115
0.801469
0.803432
0.83301
0.933402
0.9407
0.932327
0.841961
0.82221
0.934414
0.932012
0.833071
0.79979
0.80491
0.801987
0.9345
0.803367
0.803747
0.933183
0.799654
0.811469
0.936979
0.803347
0.8016
0.800477
0.936394
0.802771
0.807989
0.802257
0.834742
0.933555
0.939152
0.935327
0.931117
0.932826
0.935138
0.939457
0.9365
0.931306
0.929457
0.806635
0.936282
0.835061
0.933546
0.803973
0.942563
0.801616
0.929333
0.803188
0.795804
0.915324
0.815145
0.821106
0.819751
0.814803
0.934266
0.808064
0.933702
0.840077
0.803566
0.935072
0.934088
0.801221
0.938004
0.849399
0.802778
0.829881
0.930609
0.802327
0.909614
0.804278
0.933325
0.936732
0.936409
0.809986
0.932189
0.93915
0.812084
0.801583
0.798587
0.806194
0.907566
0.810605
0.798421
0.842652
0.843663
0.806239
0.934464
0.803389
0.910883
0.810071
0.825311
0.801763
0.800799
0.932006
0.809159
0.816263
0.932281
0.809213
0.812283
0.930687
0.808943
0.939981
0.806287
0.804432
0.801872
0.939332
0.909199
0.931337
0.93324
0.932678
0.834389
0.811955
0.832452
0.927787
0.9314
0.896835
0.81958
0.871931
0.816829
0.811254
0.940238
0.803399
0.810915
0.837167
0.871184
0.925454
0.934479
0.818044
0.926827
0.930226
0.802357
0.801884
0.848631
0.927047
0.94027
0.802448
0.937334
0.797858
0.848582
0.817242
0.937077
0.834871
0.838638
0.922066
0.826659
0.862695
0.798994
0.803163
0.938594
0.817108
0.876355
0.939413
0.79604
0.801742
0.816531
0.822259
0.930604
0.870513
0.819756
0.807727
0.800893
0.802354
0.939749
0.859121
0.813753
0.799203
0.932774
0.844
0.802788
0.82574
0.92759
0.821028
0.802494
0.809406
0.835405
0.835183
0.795214
0.931996
0.935017
0.931439
0.839189
0.897272
0.859928
0.934289
0.932377
0.931038
0.813393
0.939786
0.860208
0.934385
0.811881
0.819896
0.802161
0.940157
0.798774
0.939196
0.817984
0.816948
0.932026
0.802355
0.935989
0.890337
0.818735
0.801995
0.891673
0.803513
0.932824
0.83638
0.795374
0.803103
0.798236
0.932119
0.812797
0.810575
0.890533
0.938652
0.806882
0.890515
0.938575
0.931538
0.933405
0.807382
0.914097
0.802073
0.804984
0.807477
0.93674
0.803911
0.867171
0.806316
0.805075
0.931286
0.926625
0.931276
0.935899
0.841132
0.858109
0.933818
0.916634
0.792092
0.851655
0.927992
0.928507
0.937955
0.911143
0.936978
0.930811
0.810599
0.837859
0.81635
0.791209
0.805437
0.9379
0.88979
0.857831
0.934882
0.861074
0.818332
0.931495
0.936637
0.866567
0.807468
0.902042
0.801859
0.792938
0.914246
0.799277
0.803703
0.799117
0.79744
0.796768
0.938155
0.911791
0.93225
0.81841
0.874789
0.912976
0.81419
0.936668
0.802981
0.831525
0.823285
0.93173
0.936375
0.840765
0.813585
0.803362
0.803105
0.932353
0.80744
0.932296
0.924102
0.921493
0.901158
0.938369
0.81165
0.80682
0.810123
0.809647
0.93295
0.805939
0.926871
0.927322
0.803143
0.932181
0.800156
0.914289
0.931336
0.937942
0.816881
0.913928
0.883693
0.933544
0.81707
0.805095
0.821153
0.794075
0.866484
0.803038
0.821971
0.802572
0.933125
0.815241
0.933953
0.813977
0.934142
0.897048
0.93939
0.820898
0.805044
0.826322
0.933703
0.931991
0.82359
0.936281
0.82595
0.928465
0.81385
0.802807
0.803406
0.870756
0.935415
0.939469
0.895162
0.805379
0.819814
0.850009
0.927945
0.815761
0.934564
0.939596
0.814782
0.934403
0.798707
0.838463
0.811417
0.798726
0.802747
0.802577
0.936327
0.801887
0.926867
0.813785
0.806825
0.938184
0.938316
0.802024
0.895954
0.932887
0.932374
0.846261
0.801833
0.816447
0.932434
0.820545
0.939423
0.908003
0.871656
0.808316
0.818275
0.881554
0.837486
0.813118
0.917305
0.801733
0.883103
0.795908
0.914813
0.803201
0.926554
0.924569
0.809201
0.825702
0.802014
0.808923
0.815352
0.938295
0.847624
0.803678
0.800641
0.929894
0.936924
0.932727
0.922697
0.835547
0.811458
0.831566
0.8331
0.811262
0.803095
0.932523
0.939441
0.93456
0.817948
0.932132
0.932214
0.849076
0.801842
0.791112
0.935258
0.88017
0.795874
0.822774
0.903268
0.877627
0.92299
0.858564
0.893711
0.811257
0.935666
0.869788
0.934711
0.808836
0.802068
0.802924
0.939544
0.936468
0.80234
0.819649
0.93276
0.801069
0.799687
0.817656
0.902156
0.907586
0.938062
0.801709
0.92846
0.940674
0.840671
0.818209
0.836086
0.938585
0.841026
0.836024
0.846094
0.932154
0.936146
0.880104
0.801629
0.936346
0.801869
0.831252
0.839706
0.936141
0.807032
0.936124
0.936464
0.846234
0.934574
0.806349
0.915481
0.811141
0.812927
0.91695
0.854189
0.890372
0.874394
0.931528
0.937314
0.932005
0.932264
0.803127
0.819129
0.804536
0.928112
0.800508
0.854565
0.813754
0.847092
0.911106
0.804684
0.803238
0.938073
0.932549
0.800896
0.828649
0.802136
0.864975
0.919857
0.816664
0.812717
0.825347
0.900686
0.940061
0.795082
0.90458
0.804245
0.926164
0.902326
0.833626
0.812989
0.802613
0.938166
0.941654
0.81589
0.93976
0.936706
0.801726
0.800361
0.93315
0.937027
0.928261
0.883577
0.807465
0.871275
0.94163
0.913432
0.934222
0.823126
0.802051
0.819031
0.840849
0.82773
0.931478
0.801197
0.931211
0.902125
0.801103
0.819771
0.916366
0.805377
0.888945
0.932088
0.805122
0.932205
0.934833
0.805068
0.929633
0.794423
0.938486
0.815662
0.935154
0.937105
0.900901
0.80224
0.804089
0.798008
0.802961
0.933207
0.839267
0.931993
0.886024
0.802317
0.821216
0.934471
0.939316
0.838178
0.810629
0.810994
0.820938
0.916907
0.798147
0.945391
0.801667
0.931605
0.900906
0.796911
0.801955
0.810194
0.795826
0.822706
0.804736
0.873511
0.803492
0.930194
0.801926
0.821248
0.798108
0.926211
0.93529
0.801499
0.937958
0.841017
0.938958
0.803146
0.81937
0.812927
0.935139
0.801713
0.802519
0.830098
0.7879
0.801461
0.867726
0.933544
0.919931
0.810891
0.932274
0.81337
0.801385
0.872664
0.935556
0.829606
0.851252
0.797652
0.806072
0.933661
0.931416
0.806169
0.909783
0.818698
0.934892
0.79637
0.892152
0.844133
0.802841
0.834894
0.897262
0.810071
0.939511
0.832045
0.819237
0.817488
0.791263
0.82167
0.808299
0.802293
0.929534
0.889523
0.817691
0.883052
0.932317
0.801484
0.815042
0.844353
0.92854
0.794193
0.934288
0.871291
0.802293
0.929562
0.939301
0.881257
0.937951
0.810097
0.930824
0.811256
0.932366
0.897312
0.93832
0.807607
0.936466
0.801495
0.931995
0.818836
0.932522
0.935785
0.830069
0.927466
0.839257
0.808556
0.841603
0.826486
0.805035
0.926939
0.804735
0.861703
0.91146
0.933326
0.820018
0.869724
0.80218
0.805705
0.820685
0.801311
0.822023
0.841521
0.840888
0.883382
0.933667
0.803722
0.92287
0.819477
0.922286
0.798471
0.935724
0.832215
0.827518
0.908782
0.837575
0.939744
0.815412
0.921837
0.80178
0.833965
0.803279
0.796933
0.933377
0.802709
0.931998
0.80618
0.802944
0.932159
0.841501
0.87509
0.896874
0.937024
0.8054
0.867976
0.814811
0.81685
0.802867
0.802277
0.806715
0.935236
0.867465
0.801604
0.791675
0.878715
0.81609
0.829435
0.819116
0.873202
0.789676
0.801485
0.80294
0.816583
0.931908
0.93068
0.801626
0.807485
0.934383
0.88241
0.850772
0.808125
0.933716
0.802694
0.857169
0.802536
0.936924
0.789342
0.931007
0.828318
0.807202
0.855416
0.81505
0.93215
0.797566
0.806345
0.801723
0.850554
0.931133
0.936147
0.93657
0.851512
0.932459
0.802922
0.803745
0.833414
0.83254
0.932788
0.807223
0.812965
0.824969
0.939377
0.936507
0.880249
0.827187
0.806637
0.936142
0.934449
0.819198
0.81313
0.932463
0.834653
0.809923
0.808829
0.933301
0.802533
0.808314
0.818025
0.934287
0.807862
0.829193
0.937033
0.932485
0.821825
0.810657
0.934608
0.815582
0.807221
0.922126
0.939973
0.803137
0.932286
0.819894
0.827837
0.817948
0.799307
0.895916
0.913602
0.938195
0.808948
0.805613
0.929983
0.791731
0.845441
0.931274
0.806541
0.940366
0.865995
0.820325
0.787855
0.888302
0.801584
0.838442
0.937503
0.937714
0.934591
0.801867
0.801928
0.800259
0.822394
0.933161
0.870234
0.827234
0.825985
0.932823
0.830481
0.814572
0.927814
0.912941
0.931678
0.932833
0.820348
0.893642
0.819603
0.800551
0.918096
0.808697
0.93344
0.934817
0.896148
0.804864
0.907522
0.84042
0.930751
0.813753
0.915871
0.848014
0.799789
0.807491
0.932985
0.934924
0.940052
0.812315
0.935159
0.81058
0.918564
0.932393
0.82731
0.803153
0.882459
0.792481
0.824003
0.934823
0.801503
0.805873
0.808529
0.942467
0.802472
0.79695
0.93159
0.940912
0.801678
0.929842
0.922147
0.932148
0.806026
0.819882
0.820924
0.80157
0.931448
0.797943
0.919077
0.936662
0.816395
0.935416
0.909289
0.803636
0.860071
0.812305
0.798409
0.819058
0.938896
0.793388
0.918368
0.94046
0.815642
0.805366
0.939597
0.912319
0.928679
0.817498
0.841063
0.802835
0.816986
0.802787
0.819114
0.817086
0.802241
0.793777
0.822082
0.812962
0.808097
0.80084
0.906003
0.932476
0.823651
0.886653
0.934665
0.932124
0.936968
0.925085
0.932955
0.922375
0.804551
0.932
0.808168
0.804378
0.931544
0.802607
0.918618
0.802732
0.801517
0.840454
0.801631
0.812735
0.833386
0.92318
0.806088
0.803114
0.809906
0.878829
0.813691
0.932106
0.817385
0.816202
0.931985
0.807842
0.799995
0.932123
0.886423
0.809977
0.934234
0.816268
0.92491
0.832909
0.809857
0.932018
0.909166
0.8018
0.80212
0.933864
0.803874
0.802588
0.838457
0.932579
0.917998
0.80409
0.932815
0.844641
0.933374
0.926265
0.810918
0.807365
0.801542
0.80498
0.934415
0.929584
0.932216
0.800885
0.927697
0.933284
0.812381
0.799201
0.933654
0.805502
0.819032
0.857681
0.91227
0.933812
0.931552
0.910083
0.903929
0.816277
0.823359
0.809471
0.93689
0.835117
0.809643
0.80715
0.932011
0.808093
0.932051
0.934335
0.801786
0.870124
0.855833
0.802793
0.806061
0.869463
0.935756
0.854191
0.933756
0.892153
0.932276
0.950372
0.815744
0.801933
0.911221
0.810203
0.862588
0.813259
0.931078
0.805749
0.92761
0.817776
0.801857
0.808487
0.915312
0.801366
0.938037
0.815381
0.794621
0.807722
0.80298
0.880613
0.7995
0.789765
0.817838
0.912763
0.891443
0.926293
0.915605
0.937167
0.934394
0.936353
0.937791
0.950304
0.820369
0.79945
0.827836
0.799503
0.801513
0.803835
0.882182
0.802017
0.8122
0.845093
0.928753
0.899905
0.815573
0.937599
0.937724
0.899257
0.821714
0.806491
0.908979
0.88373
0.799998
0.818331
0.895982
0.801574
0.804288
0.872682
0.932566
0.802434
0.825844
0.939477
0.82101
0.928916
0.797842
0.84888
0.86694
0.805279
0.940741
0.805103
0.886265
0.920606
0.814995
0.919169
0.813393
0.855215
0.807439
0.934479
0.932606
0.935223
0.815836
0.816801
0.944389
0.80632
0.939352
0.81283
0.838747
0.827443
0.837794
0.859433
0.832176
0.905868
0.925666
0.803218
0.934602
0.922247
0.810623
0.940858
0.843733
0.932127
0.933594
0.93181
0.932116
0.933666
0.934985
0.934886
0.940555