# vtk DataFile Version 1.0
unstructured grid
ascii
DATASET UNSTRUCTURED_GRID
points 14760 float
-1 0 0
-1 1 0
2 0 0
2 1 0
0 0 0
1 0 0
-1 1 0.1
-1 0 0.1
0 0 0.1
1 0 0.1
2 0 0.1
2 1 0.1
-0.99 0 0
-0.98 0 0
-0.97 0 0
-0.96 0 0
-0.95 0 0
-0.94 0 0
-0.93 0 0
-0.92 0 0
-0.91 0 0
-0.9 0 0
-0.89 0 0
-0.88 0 0
-0.87 0 0
-0.86 0 0
-0.85 0 0
-0.84 0 0
-0.83 0 0
-0.82 0 0
-0.81 0 0
-0.8 0 0
-0.79 0 0
-0.78 0 0
-0.77 0 0
-0.76 0 0
-0.75 0 0
-0.74 0 0
-0.73 0 0
-0.72 0 0
-0.71 0 0
-0.7 0 0
-0.69 0 0
-0.68 0 0
-0.67 0 0
-0.66 0 0
-0.65 0 0
-0.64 0 0
-0.63 0 0
-0.62 0 0
-0.61 0 0
-0.6 0 0
-0.59 0 0
-0.58 0 0
-0.57 0 0
-0.56 0 0
-0.55 0 0
-0.54 0 0
-0.53 0 0
-0.52 0 0
-0.51 0 0
-0.5 0 0
-0.49 0 0
-0.48 0 0
-0.47 0 0
-0.46 0 0
-0.45 0 0
-0.44 0 0
-0.43 0 0
-0.42 0 0
-0.41 0 0
-0.4 0 0
-0.39 0 0
-0.38 0 0
-0.37 0 0
-0.36 0 0
-0.35 0 0
-0.34 0 0
-0.33 0 0
-0.32 0 0
-0.31 0 0
-0.3 0 0
-0.29 0 0
-0.28 0 0
-0.27 0 0
-0.26 0 0
-0.25 0 0
-0.24 0 0
-0.23 0 0
-0.22 0 0
-0.21 0 0
-0.2 0 0
-0.19 0 0
-0.18 0 0
-0.17 0 0
-0.16 0 0
-0.15 0 0
-0.14 0 0
-0.13 0 0
-0.12 0 0
-0.11 0 0
-0.1 0 0
-0.09 0 0
-0.08 0 0
-0.07 0 0
-0.06 0 0
-0.05 0 0
-0.04 0 0
-0.03 0 0
-0.02 0 0
-0.01 0 0
1.01 0 0
1.02 0 0
1.03 0 0
1.04 0 0
1.05 0 0
1.06 0 0
1.07 0 0
1.08 0 0
1.09 0 0
1.1 0 0
1.11 0 0
1.12 0 0
1.13 0 0
1.14 0 0
1.15 0 0
1.16 0 0
1.17 0 0
1.18 0 0
1.19 0 0
1.2 0 0
1.21 0 0
1.22 0 0
1.23 0 0
1.24 0 0
1.25 0 0
1.26 0 0
1.27 0 0
1.28 0 0
1.29 0 0
1.3 0 0
1.31 0 0
1.32 0 0
1.33 0 0
1.34 0 0
1.35 0 0
1.36 0 0
1.37 0 0
1.38 0 0
1.39 0 0
1.4 0 0
1.41 0 0
1.42 0 0
1.43 0 0
1.44 0 0
1.45 0 0
1.46 0 0
1.47 0 0
1.48 0 0
1.49 0 0
1.5 0 0
1.51 0 0
1.52 0 0
1.53 0 0
1.54 0 0
1.55 0 0
1.56 0 0
1.57 0 0
1.58 0 0
1.59 0 0
1.6 0 0
1.61 0 0
1.62 0 0
1.63 0 0
1.64 0 0
1.65 0 0
1.66 0 0
1.67 0 0
1.68 0 0
1.69 0 0
1.7 0 0
1.71 0 0
1.72 0 0
1.73 0 0
1.74 0 0
1.75 0 0
1.76 0 0
1.77 0 0
1.78 0 0
1.79 0 0
1.8 0 0
1.81 0 0
1.82 0 0
1.83 0 0
1.84 0 0
1.85 0 0
1.86 0 0
1.87 0 0
1.88 0 0
1.89 0 0
1.9 0 0
1.91 0 0
1.92 0 0
1.93 0 0
1.94 0 0
1.95 0 0
1.96 0 0
1.97 0 0
1.98 0 0
1.99 0 0
2 0.0100088 0
2 0.0204183 0
2 0.0312446 0
2 0.0425043 0
2 0.0542147 0
2 0.066394 0
2 0.079061 0
2 0.092235 0
2 0.105936 0
2 0.120186 0
2 0.135007 0
2 0.150421 0
2 0.166452 0
2 0.183124 0
2 0.200465 0
2 0.218499 0
2 0.237256 0
2 0.256763 0
2 0.277051 0
2 0.298152 0
2 0.320097 0
2 0.342921 0
2 0.366659 0
2 0.391347 0
2 0.417024 0
2 0.443728 0
2 0.471502 0
2 0.500387 0
2 0.530429 0
2 0.561674 0
2 0.594169 0
2 0.627966 0
2 0.663115 0
2 0.699672 0
2 0.737692 0
2 0.777235 0
2 0.818361 0
2 0.861133 0
2 0.905617 0
2 0.951882 0
1.95 1 0
1.9 1 0
1.85 1 0
1.8 1 0
1.75 1 0
1.7 1 0
1.65 1 0
1.6 1 0
1.55 1 0
1.5 1 0
1.45 1 0
1.4 1 0
1.35 1 0
1.3 1 0
1.25 1 0
1.2 1 0
1.15 1 0
1.1 1 0
1.05 1 0
1 1 0
0.95 1 0
0.9 1 0
0.85 1 0
0.8 1 0
0.75 1 0
0.7 1 0
0.65 1 0
0.6 1 0
0.55 1 0
0.5 1 0
0.45 1 0
0.4 1 0
0.35 1 0
0.3 1 0
0.25 1 0
0.2 1 0
0.15 1 0
0.1 1 0
0.05 1 0
3.69793e-12 1 0
-0.05 1 0
-0.1 1 0
-0.15 1 0
-0.2 1 0
-0.25 1 0
-0.3 1 0
-0.35 1 0
-0.4 1 0
-0.45 1 0
-0.5 1 0
-0.55 1 0
-0.6 1 0
-0.65 1 0
-0.7 1 0
-0.75 1 0
-0.8 1 0
-0.85 1 0
-0.9 1 0
-0.95 1 0
-1 0.951882 0
-1 0.905617 0
-1 0.861133 0
-1 0.818361 0
-1 0.777235 0
-1 0.737692 0
-1 0.699672 0
-1 0.663115 0
-1 0.627966 0
-1 0.594169 0
-1 0.561674 0
-1 0.530429 0
-1 0.500387 0
-1 0.471502 0
-1 0.443728 0
-1 0.417024 0
-1 0.391347 0
-1 0.366659 0
-1 0.342921 0
-1 0.320097 0
-1 0.298152 0
-1 0.277051 0
-1 0.256763 0
-1 0.237256 0
-1 0.218499 0
-1 0.200465 0
-1 0.183124 0
-1 0.166452 0
-1 0.150421 0
-1 0.135007 0
-1 0.120186 0
-1 0.105936 0
-1 0.092235 0
-1 0.079061 0
-1 0.066394 0
-1 0.0542147 0
-1 0.0425043 0
-1 0.0312446 0
-1 0.0204183 0
-1 0.0100088 0
0.00921362 0.00379763 0
0.0184561 0.00752451 0
0.0277268 0.0111804 0
0.0370253 0.0147652 0
0.0463511 0.0182786 0
0.0557034 0.0217203 0
0.0650819 0.0250903 0
0.074486 0.0283883 0
0.083915 0.0316141 0
0.0933685 0.0347675 0
0.102846 0.0378484 0
0.112347 0.0408565 0
0.12187 0.0437917 0
0.131416 0.0466538 0
0.140983 0.0494427 0
0.150572 0.0521581 0
0.160181 0.0547999 0
0.16981 0.0573681 0
0.179458 0.0598623 0
0.189125 0.0622825 0
0.198811 0.0646285 0
0.208514 0.0669001 0
0.218234 0.0690974 0
0.227971 0.07122 0
0.237724 0.073268 0
0.247493 0.0752411 0
0.257276 0.0771393 0
0.267073 0.0789625 0
0.276884 0.0807105 0
0.286708 0.0823832 0
0.296545 0.0839806 0
0.306394 0.0855025 0
0.316254 0.0869488 0
0.326125 0.0883196 0
0.336006 0.0896146 0
0.345896 0.0908339 0
0.355796 0.0919773 0
0.365704 0.0930447 0
0.375621 0.0940362 0
0.385544 0.0949517 0
0.395474 0.095791 0
0.40541 0.0965542 0
0.415352 0.0972412 0
0.425299 0.097852 0
0.43525 0.0983865 0
0.445205 0.0988447 0
0.455164 0.0992266 0
0.465125 0.0995321 0
0.475088 0.0997613 0
0.485052 0.0999141 0
0.495017 0.0999904 0
0.504983 0.0999904 0
0.514948 0.0999141 0
0.524912 0.0997613 0
0.534875 0.0995321 0
0.544836 0.0992266 0
0.554795 0.0988447 0
0.56475 0.0983865 0
0.574701 0.097852 0
0.584648 0.0972412 0
0.59459 0.0965542 0
0.604526 0.095791 0
0.614456 0.0949517 0
0.624379 0.0940362 0
0.634296 0.0930447 0
0.644204 0.0919773 0
0.654104 0.0908339 0
0.663994 0.0896146 0
0.673875 0.0883196 0
0.683746 0.0869488 0
0.693606 0.0855025 0
0.703455 0.0839806 0
0.713292 0.0823832 0
0.723116 0.0807105 0
0.732927 0.0789625 0
0.742724 0.0771393 0
0.752508 0.0752411 0
0.762276 0.073268 0
0.772029 0.07122 0
0.781766 0.0690974 0
0.791486 0.0669001 0
0.801189 0.0646285 0
0.810875 0.0622825 0
0.820542 0.0598623 0
0.83019 0.0573681 0
0.839819 0.0547999 0
0.849428 0.0521581 0
0.859017 0.0494427 0
0.868584 0.0466538 0
0.87813 0.0437917 0
0.887653 0.0408565 0
0.897154 0.0378484 0
0.906631 0.0347675 0
0.916085 0.0316141 0
0.925514 0.0283883 0
0.934918 0.0250903 0
0.944297 0.0217203 0
0.953649 0.0182786 0
0.962975 0.0147652 0
0.972273 0.0111804 0
0.981544 0.00752451 0
0.990786 0.00379763 0
-1 0.951882 0.1
-1 0.905617 0.1
-1 0.861133 0.1
-1 0.818361 0.1
-1 0.777235 0.1
-1 0.737692 0.1
-1 0.699672 0.1
-1 0.663115 0.1
-1 0.627966 0.1
-1 0.594169 0.1
-1 0.561674 0.1
-1 0.530429 0.1
-1 0.500387 0.1
-1 0.471502 0.1
-1 0.443728 0.1
-1 0.417024 0.1
-1 0.391347 0.1
-1 0.366659 0.1
-1 0.342921 0.1
-1 0.320097 0.1
-1 0.298152 0.1
-1 0.277051 0.1
-1 0.256763 0.1
-1 0.237256 0.1
-1 0.218499 0.1
-1 0.200465 0.1
-1 0.183124 0.1
-1 0.166452 0.1
-1 0.150421 0.1
-1 0.135007 0.1
-1 0.120186 0.1
-1 0.105936 0.1
-1 0.092235 0.1
-1 0.079061 0.1
-1 0.066394 0.1
-1 0.0542147 0.1
-1 0.0425043 0.1
-1 0.0312446 0.1
-1 0.0204183 0.1
-1 0.0100088 0.1
-0.99 0 0.1
-0.98 0 0.1
-0.97 0 0.1
-0.96 0 0.1
-0.95 0 0.1
-0.94 0 0.1
-0.93 0 0.1
-0.92 0 0.1
-0.91 0 0.1
-0.9 0 0.1
-0.89 0 0.1
-0.88 0 0.1
-0.87 0 0.1
-0.86 0 0.1
-0.85 0 0.1
-0.84 0 0.1
-0.83 0 0.1
-0.82 0 0.1
-0.81 0 0.1
-0.8 0 0.1
-0.79 0 0.1
-0.78 0 0.1
-0.77 0 0.1
-0.76 0 0.1
-0.75 0 0.1
-0.74 0 0.1
-0.73 0 0.1
-0.72 0 0.1
-0.71 0 0.1
-0.7 0 0.1
-0.69 0 0.1
-0.68 0 0.1
-0.67 0 0.1
-0.66 0 0.1
-0.65 0 0.1
-0.64 0 0.1
-0.63 0 0.1
-0.62 0 0.1
-0.61 0 0.1
-0.6 0 0.1
-0.59 0 0.1
-0.58 0 0.1
-0.57 0 0.1
-0.56 0 0.1
-0.55 0 0.1
-0.54 0 0.1
-0.53 0 0.1
-0.52 0 0.1
-0.51 0 0.1
-0.5 0 0.1
-0.49 0 0.1
-0.48 0 0.1
-0.47 0 0.1
-0.46 0 0.1
-0.45 0 0.1
-0.44 0 0.1
-0.43 0 0.1
-0.42 0 0.1
-0.41 0 0.1
-0.4 0 0.1
-0.39 0 0.1
-0.38 0 0.1
-0.37 0 0.1
-0.36 0 0.1
-0.35 0 0.1
-0.34 0 0.1
-0.33 0 0.1
-0.32 0 0.1
-0.31 0 0.1
-0.3 0 0.1
-0.29 0 0.1
-0.28 0 0.1
-0.27 0 0.1
-0.26 0 0.1
-0.25 0 0.1
-0.24 0 0.1
-0.23 0 0.1
-0.22 0 0.1
-0.21 0 0.1
-0.2 0 0.1
-0.19 0 0.1
-0.18 0 0.1
-0.17 0 0.1
-0.16 0 0.1
-0.15 0 0.1
-0.14 0 0.1
-0.13 0 0.1
-0.12 0 0.1
-0.11 0 0.1
-0.1 0 0.1
-0.09 0 0.1
-0.08 0 0.1
-0.07 0 0.1
-0.06 0 0.1
-0.05 0 0.1
-0.04 0 0.1
-0.03 0 0.1
-0.02 0 0.1
-0.01 0 0.1
0.00921362 0.00379763 0.1
0.0184561 0.00752451 0.1
0.0277268 0.0111804 0.1
0.0370253 0.0147652 0.1
0.0463511 0.0182786 0.1
0.0557034 0.0217203 0.1
0.0650819 0.0250903 0.1
0.074486 0.0283883 0.1
0.083915 0.0316141 0.1
0.0933685 0.0347675 0.1
0.102846 0.0378484 0.1
0.112347 0.0408565 0.1
0.12187 0.0437917 0.1
0.131416 0.0466538 0.1
0.140983 0.0494427 0.1
0.150572 0.0521581 0.1
0.160181 0.0547999 0.1
0.16981 0.0573681 0.1
0.179458 0.0598623 0.1
0.189125 0.0622825 0.1
0.198811 0.0646285 0.1
0.208514 0.0669001 0.1
0.218234 0.0690974 0.1
0.227971 0.07122 0.1
0.237724 0.073268 0.1
0.247493 0.0752411 0.1
0.257276 0.0771393 0.1
0.267073 0.0789625 0.1
0.276884 0.0807105 0.1
0.286708 0.0823832 0.1
0.296545 0.0839806 0.1
0.306394 0.0855025 0.1
0.316254 0.0869488 0.1
0.326125 0.0883196 0.1
0.336006 0.0896146 0.1
0.345896 0.0908339 0.1
0.355796 0.0919773 0.1
0.365704 0.0930447 0.1
0.375621 0.0940362 0.1
0.385544 0.0949517 0.1
0.395474 0.095791 0.1
0.40541 0.0965542 0.1
0.415352 0.0972412 0.1
0.425299 0.097852 0.1
0.43525 0.0983865 0.1
0.445205 0.0988447 0.1
0.455164 0.0992266 0.1
0.465125 0.0995321 0.1
0.475088 0.0997613 0.1
0.485052 0.0999141 0.1
0.495017 0.0999904 0.1
0.504983 0.0999904 0.1
0.514948 0.0999141 0.1
0.524912 0.0997613 0.1
0.534875 0.0995321 0.1
0.544836 0.0992266 0.1
0.554795 0.0988447 0.1
0.56475 0.0983865 0.1
0.574701 0.097852 0.1
0.584648 0.0972412 0.1
0.59459 0.0965542 0.1
0.604526 0.095791 0.1
0.614456 0.0949517 0.1
0.624379 0.0940362 0.1
0.634296 0.0930447 0.1
0.644204 0.0919773 0.1
0.654104 0.0908339 0.1
0.663994 0.0896146 0.1
0.673875 0.0883196 0.1
0.683746 0.0869488 0.1
0.693606 0.0855025 0.1
0.703455 0.0839806 0.1
0.713292 0.0823832 0.1
0.723116 0.0807105 0.1
0.732927 0.0789625 0.1
0.742724 0.0771393 0.1
0.752508 0.0752411 0.1
0.762276 0.073268 0.1
0.772029 0.07122 0.1
0.781766 0.0690974 0.1
0.791486 0.0669001 0.1
0.801189 0.0646285 0.1
0.810875 0.0622825 0.1
0.820542 0.0598623 0.1
0.83019 0.0573681 0.1
0.839819 0.0547999 0.1
0.849428 0.0521581 0.1
0.859017 0.0494427 0.1
0.868584 0.0466538 0.1
0.87813 0.0437917 0.1
0.887653 0.0408565 0.1
0.897154 0.0378484 0.1
0.906631 0.0347675 0.1
0.916085 0.0316141 0.1
0.925514 0.0283883 0.1
0.934918 0.0250903 0.1
0.944297 0.0217203 0.1
0.953649 0.0182786 0.1
0.962975 0.0147652 0.1
0.972273 0.0111804 0.1
0.981544 0.00752451 0.1
0.990786 0.00379763 0.1
1.01 0 0.1
1.02 0 0.1
1.03 0 0.1
[...]
CELL_DATA 14313
SCALARS rho float
LOOKUP_TABLE default
0.781293
0.824166
0.805879
0.537416
0.766226
0.811719
0.812391
0.812276
0.810996
0.815109
0.811955
0.798864
0.796952
0.517094
0.812761
0.831834
0.808749
0.807701
0.809977
0.805335
0.810622
0.813911
0.812323
0.765965
0.811952
0.814613
0.742351
0.709798
0.823688
0.824283
0.811817
0.794465
0.799452
0.811923
0.80466
0.810574
0.679627
0.808886
0.811509
0.802339
0.75248
0.81029
0.54162
0.701908
0.817532
0.83567
0.810775
0.777383
0.804367
0.850914
0.675325
0.653135
0.589014
0.810486
0.819584
0.782631
0.817518
0.814666
0.81079
0.812231
0.811826
0.818313
0.794442
0.839159
0.81025
0.813209
0.852655
0.783864
0.840503
0.812753
0.798297
0.831396
0.486912
0.837149
0.725788
0.806865
0.82454
0.747038
0.696356
0.811293
0.591786
0.824635
0.833084
0.803465
0.805475
0.819196
0.811701
0.804444
0.826519
0.806984
0.779841
0.522361
0.807287
0.797847
0.725723
0.803827
0.814541
0.80883
0.803209
0.48853
0.80696
0.809538
0.812357
0.814167
0.748357
0.809279
0.80261
0.699474
0.834389
0.809893
0.813843
0.824792
0.811997
0.819227
0.804155
0.827331
0.819733
0.836161
0.778669
0.798682
0.811469
0.808885
0.859385
0.720611
0.843302
0.753314
0.789499
0.804443
0.814551
0.842814
0.809341
0.811852
0.860685
0.812148
0.823173
0.782596
0.806894
0.79222
0.817568
0.817223
0.812391
0.816664
0.803385
0.803428
0.796521
0.838975
0.80594
0.760641
0.795472
0.81725
0.797144
0.803529
0.812325
0.708898
0.821114
0.803715
0.723015
0.821002
0.811943
0.811846
0.81833
0.8087
0.646127
0.75743
0.823016
0.824326
0.713829
0.812545
0.827939
0.815359
0.688534
0.816209
0.712868
0.787849
0.808829
0.826009
0.808033
0.815389
0.820852
0.741454
0.811257
0.809409
0.773436
0.771851
0.790476
0.810958
0.812745
0.796971
0.496242
0.787177
0.757428
0.742635
0.770201
0.713002
0.812204
0.814837
0.807241
0.803378
0.806012
0.816721
0.760034
0.802878
0.828414
0.814764
0.83338
0.80334
0.816549
0.814212
0.811894
0.834527
0.803944
0.811121
0.795906
0.700833
0.81397
0.820592
0.809485
0.807115
0.834455
0.802851
0.802608
0.819195
0.805923
0.855278
0.809542
0.8031
0.817851
0.802463
0.812276
0.757171
0.635231
0.81504
0.697406
0.826785
0.802373
0.721122
0.811884
0.813941
0.814789
0.826182
0.791669
0.71052
0.74758
0.594817
0.814936
0.723729
0.799231
0.807085
0.837654
0.815018
0.574928
0.80403
0.72858
0.837267
0.80116
0.694594
0.811307
0.826973
0.814514
0.55674
0.813247
0.801104
0.798844
0.805965
0.788335
0.77382
0.815707
0.815523
0.529099
0.814547
0.813695
0.772108
0.802032
0.811933
0.780472
0.817195
0.782957
0.709025
0.802801
0.805815
0.567323
0.54328
0.756176
0.807885
0.820372
0.790051
0.81158
0.814738
0.776033
0.805929
0.803486
0.816612
0.829406
0.793093
0.80829
0.811477
0.631286
0.818855
0.699247
0.797197
0.793268
0.777558
0.835557
0.809317
0.796577
0.676178
0.667953
0.803559
0.805636
0.819612
0.804223
0.798328
0.651998
0.815046
0.822058
0.818089
0.811956
0.812805
0.799372
0.790897
0.814102
0.569634
0.80788
0.812145
0.814347
0.812516
0.765239
0.821475
0.801497
0.81414
0.812995
0.753867
0.75239
0.803401
0.803482
0.524332
0.81237
0.811877
0.807068
0.811745
0.803302
0.800942
0.728005
0.711869
0.814318
0.748318
0.757921
0.818399
0.83742
0.814122
0.802145
0.808484
0.812189
0.803448
0.81698
0.782494
0.816911
0.811767
0.810664
0.795071
0.810374
0.792094
0.811763
0.589591
0.799517
0.800363
0.811854
0.813427
0.767552
0.801597
0.812134
0.812356
0.817964
0.770212
0.818265
0.808312
0.752467
0.76169
0.812867
0.805747
0.829128
0.824672
0.82315
0.804269
0.594007
0.778949
0.600187
0.803376
0.802916
0.800724
0.814208
0.874005
0.525917
0.593317
0.838267
0.871966
0.811791
0.690081
0.801936
0.716051
0.806785
0.815689
0.706939
0.650794
0.751069
0.812862
0.475826
0.873536
0.824322
0.798439
0.80877
0.47867
0.739586
0.781686
0.817531
0.804611
0.800521
0.830184
0.812246
0.705467
0.684829
0.801539
0.806054
0.809232
0.811514
0.808785
0.811835
0.735483
0.791164
0.797179
0.802497
0.764013
0.817605
0.807871
0.812793
0.811551
0.755056
0.805598
0.804073
0.793193
0.812067
0.815647
0.806891
0.657137
0.78744
0.817452
0.812823
0.812206
0.807346
0.812644
0.804145
0.821118
0.82147
0.613262
0.855119
0.743989
0.820554
0.804902
0.746999
0.824464
0.80089
0.825412
0.548298
0.799427
0.679034
0.811913
0.809212
0.521718
0.799904
0.804624
0.798
0.802074
0.800609
0.772211
0.811775
0.592331
0.805706
0.806084
0.799184
0.818269
0.764907
0.811909
0.80928
0.797832
0.816159
0.796451
0.802847
0.812267
0.634062
0.769239
0.733867
0.490034
0.824677
0.568057
0.802607
0.818762
0.856584
0.702879
0.739529
0.812065
0.806093
0.800883
0.793659
0.765863
0.810841
0.812333
0.797075
0.81305
0.816381
0.471686
0.812298
0.813197
0.806331
0.810028
0.60411
0.81513
0.821488
0.705438
0.788762
0.813105
0.80103
0.828124
0.831297
0.804077
0.742448
0.472921
0.813806
0.570949
0.798706
0.803323
0.774704
0.811938
0.750379
0.811234
0.806572
0.803355
0.485781
0.814203
0.827381
0.830529
0.814731
0.803473
0.803219
0.812327
0.758508
0.847301
0.836795
0.709126
0.798583
0.653321
0.778009
0.667461
0.816029
0.836048
0.798895
0.637643
0.765756
0.813608
0.824395
0.83255
0.813604
0.670112
0.537487
0.804562
0.815851
0.801288
0.81577
0.804692
0.771592
0.851078
0.815177
0.804039
0.8167
0.799
0.744026
0.797948
0.811332
0.596466
0.689081
0.803309
0.810679
0.804802
0.574992
0.811524
0.604731
0.812337
0.76755
0.816849
0.816254
0.753535
0.806507
0.792357
0.805146
0.836821
0.837114
0.831278
0.804779
0.816074
0.579375
0.812372
0.856762
0.825056
0.82924
0.804195
0.820733
0.799287
0.839794
0.808746
0.814376
0.672471
0.630356
0.835702
0.813305
0.840648
0.715777
0.801183
0.763444
0.797163
0.809565
0.79311
0.806999
0.81302
0.822648
0.828066
0.830033
0.805409
0.750127
0.804062
0.729275
0.79315
0.821477
0.800899
0.815028
0.758204
0.805057
0.804317
0.846954
0.809029
0.803408
0.805984
0.834259
0.83132
0.803585
0.856282
0.795919
0.820017
0.661405
0.803161
0.800237
0.798774
0.831679
0.608718
0.806328
0.805549
0.658446
0.814516
0.829297
0.813787
0.80338
0.806028
0.802498
0.816022
0.798847
0.720558
0.513431
0.813335
0.805589
0.801777
0.8045
0.802961
0.803679
0.810666
0.798037
0.813663
0.583187
0.812758
0.809401
0.811825
0.842326
0.81366
0.83419
0.811342
0.797605
0.812731
0.682353
0.803724
0.850166
0.812764
0.793004
0.81413
0.63384
0.805452
0.566129
0.662079
0.673271
0.809548
0.815452
0.812429
0.497048
0.694419
0.803465
0.830745
0.747302
0.831306
0.805156
0.804683
0.796681
0.694102
0.751225
0.547159
0.802755
0.81161
0.804247
0.820833
0.669805
0.620455
0.853935
0.801499
0.813978
0.728934
0.813492
0.526254
0.820788
0.703171
0.813785
0.81747
0.80166
0.80211
0.825129
0.794841
0.803598
0.803855
0.631251
0.806582
0.653047
0.798746
0.798177
0.813672
0.815322
0.72907
0.815349
0.755802
0.803153
0.721514
0.804949
0.745965
0.67144
0.824502
0.812345
0.799068
0.726302
0.811339
0.658343
0.810869
0.802913
0.728416
0.825822
0.816309
0.637315
0.695983
0.825748
0.803655
0.725557
0.833639
0.834696
0.836089
0.811701
0.548094
0.751016
0.820989
0.820276
0.520845
0.639952
0.815562
0.812405
0.721725
0.778369
0.811993
0.807029
0.757912
0.812131
0.81345
0.80357
0.728659
0.802231
0.79687
0.812043
0.576816
0.805557
0.821741
0.574176
0.818118
0.845288
0.811958
0.676554
0.811688
0.811571
0.811795
0.801158
0.818673
0.80324
0.806681
0.804852
0.80331
0.813462
0.484886
0.809849
0.809659
0.691759
0.603054
0.786076
0.798292
0.812034
0.753271
0.56382
0.81138
0.783464
0.812005
0.82146
0.813441
0.825054
0.748285
0.590165
0.811477
0.839034
0.811953
0.709516
0.803442
0.727258
0.813096
0.81103
0.811862
0.817312
0.801246
0.813019
0.80833
0.757548
0.816198
0.81258
0.751721
0.791885
0.710718
0.558237
0.733485
0.781522
0.815775
0.811267
0.810608
0.810536
0.803294
0.795343
0.808061
0.707456
0.753412
0.811535
0.803421
0.804823
0.818332
0.604035
0.813511
0.803891
0.843515
0.807798
0.636197
0.793674
0.803804
0.842443
0.690615
0.561725
0.576919
0.635163
0.817567
0.804492
0.56023
0.585231
0.819908
0.812135
0.889275
0.804801
0.829414
0.812378
0.769437
0.810751
0.812543
0.812026
0.810585
0.811958
0.797964
0.812127
0.640623
0.815677
0.803628
0.809595
0.75668
0.81711
0.610869
0.855381
0.803927
0.826968
0.811953
0.807995
0.748096
0.822212
0.811874
0.837181
0.811741
0.812467
0.641085
0.826725
0.810095
0.812332
0.836573
0.822523
0.553697
0.79641
0.802722
0.810879
0.816938
0.803936
0.800164
0.815159
0.765061
0.804907
0.815805
0.863434
0.831111
0.586641
0.796017
0.754059
0.81398
0.761468
0.819345
0.80483
0.806382
0.812184
0.789097
0.805572
0.815457
0.821812
0.787329
0.668293
0.733709
0.69773
0.81408
0.83584
0.837776
0.733425
0.808805
0.753938
0.60955
0.811979
0.799415
0.811741
0.803573
0.630718
0.802212
0.776477
0.736714
0.810709
0.74464
0.807547
0.816404
0.859713
0.809622
0.807081
0.739928
0.812439
0.775831
0.839351
0.883734
0.796968
0.520401
0.799626
0.607516
0.76925
0.657207
0.799151
0.494472
0.814943
0.84971
0.805924
0.810563
0.819654
0.80279
0.803252
0.69658
0.82289
0.811882
0.804147
0.806561
0.792423
0.803557
0.806776
0.628289
0.816476
0.801962
0.845135
0.80794
0.804361
0.801436
0.81292
0.813034
0.807497
0.803531
0.787493
0.812098
0.795245
0.801686
0.813207
0.771735
0.566968
0.812607
0.8181
0.803971
0.724661
0.801124
0.807663
0.80348
0.698154
0.872987
0.811553
0.816668
0.811982
0.847666
0.77813
0.812054
0.787587
0.815783
0.821986
0.663158
0.812091
0.728526
0.818986
0.718097
0.799421
0.751133
0.802466
0.570533
0.809149
0.735109
0.476176
0.820124
0.661756
0.769067
0.817168
0.812248
0.776501
0.811188
0.718609
0.638049
0.826116
0.698097
0.816645
0.767307
0.801591
0.807923
0.813202
0.652156
0.804306
0.774856
0.809523
0.812003
0.828938
0.806108
0.687456
0.755415
0.651266
0.798123
0.802962
0.811889
0.815349
0.811887
0.811463
0.809304
0.663375
0.73123
0.487433
0.696288
0.813823
0.808058
0.83292
0.8094
0.814629
0.710221
0.87393
0.815102
0.826136
0.571365
0.822822
0.812106
0.840634
0.845506
0.826515
0.829972
0.82012
0.54034
0.805724
0.814861
0.716102
0.8167
0.801256
0.81204
0.80793
0.812529
0.812595
0.767115
0.721331
0.797945
0.80029
0.571586
0.813945
0.858975
0.815242
0.658567
0.822432
0.813049
0.819468
0.835125
0.686838
0.486314
0.804841
0.839803
0.806058
0.803874
0.814141
0.801558
0.81241
0.809444
0.799905
0.80424
0.804679
0.812395
0.805551
0.806157
0.798529
0.836055
0.830629
0.853169
0.812818
0.807333
0.81439
0.812906
0.811994
0.810943
0.81551
0.833935
0.808596
0.811028
0.600564
0.830475
0.71108
0.86814
0.803615
0.833232
0.798993
0.786067
0.785664
0.740041
0.821105
0.810926
0.811452
0.813308
0.775807
0.807799
0.584184
0.806066
0.812916
0.813072
0.795669
0.811982
0.610999
0.783469
0.558175
0.820717
0.796851
0.774497
0.801848
0.813601
0.812352
0.812386
0.737946
0.808199
0.811839
0.810311
0.803645
0.803812
0.747304
0.767233
0.809232
0.803723
0.696173
0.597793
0.489613
0.840987
0.80606
0.778551
0.781187
0.824227
0.80357
0.80396
0.817964
0.779209
0.756999
0.816083
0.807434
0.811101
0.83717
0.804822
0.811656
0.808246
0.483329
0.803439
0.81181
0.773684
0.819352
0.814135
0.825536
0.599283
0.710368
0.572884
0.828223
0.815538
0.743248
0.81182
0.676684
0.813677
0.810601
0.811809
0.803074
0.811822
0.576819
0.686291
0.806085
0.813225
0.793688
0.801236
0.830992
0.798655
0.802994
0.642822
0.807724
0.811871
0.80427
0.81218
0.802738
0.616864
0.814214
0.812297
0.572351
0.696988
0.793085
0.828111
0.697377
0.803994
0.793629
0.812053
0.756554
0.684884
0.810352
0.795892
0.799274
0.766328
0.540502
0.820183
0.673448
0.747618
0.731335
0.803967
0.797269
0.811371
0.659986
0.76754
0.803967
0.81492
0.592534
0.798864
0.825728
0.807137
0.539018
0.805592
0.783399
0.707001
0.705725
0.800393
0.819059
0.812929
0.808603
0.699374
0.7396
0.641378
0.832269
0.842855
0.816834
0.788149
0.86519
0.696701
0.813275
0.76672
0.790202
0.795518
0.811885
0.803982
0.811511
0.787077
0.755207
0.819686
0.7967
0.842086
0.719292
0.791382
0.805514
0.723212
0.803204
0.814415
0.575887
0.801941
0.798932
0.802791
0.821127
0.764235
0.800157
0.722577
0.812065
0.808824
0.725159
0.812066
0.816149
0.828601
0.80558
0.787085
0.797613
0.80561
0.726568
0.81238
0.801136
0.677484
0.80688
0.780257
0.831853
0.820842
0.818945
0.839259
0.848193
0.698992
0.813652
0.795507
0.787292
0.617471
0.816898
0.803609
0.81215
0.776121
0.853435
0.832762
0.781788
0.841972
0.779768
0.800633
0.771937
0.812141
0.721653
0.635736
0.844167
0.660907
0.792805
0.839691
0.812362
0.671092
0.80923
0.751864
0.803964
0.798998
0.781305
0.804154
0.801034
0.802791
0.801889
0.785597
0.811948
0.781394
0.816203
0.80746
0.712592
0.783824
0.815135
0.812384
0.805483
0.563961
0.825077
0.812802
0.811975
0.703322
0.804764
0.801085
0.801282
0.815838
0.746208
0.815921
0.800537
0.80455
0.755174
0.81141
0.812734
0.80589
0.768978
0.80788
0.812921
0.80804
0.815789
0.808294
0.806062
0.822884
0.804596
0.788724
0.806186
0.812117
0.818142
0.778704
0.703507
0.81371
0.81217
0.800725
0.742421
0.788794
0.654032
0.803389
0.540119
0.803166
0.814358
0.774878
0.834554
0.515059
0.809412
0.738414
0.810405
0.534161
0.804338
0.827794
0.813262
0.818678
0.734221
0.840898
0.553491
0.823502
0.702405
0.799533
0.477245
0.669823
0.812497
0.811984
0.7417
0.800956
0.820842
0.611996
0.821962
0.770915
0.833455
0.811989
0.814106
0.81308
0.803825
0.836775
0.810645
0.803756
0.475882
0.803107
0.843456
0.802222
0.801313
0.767565
0.805393
0.81193
0.812084
0.79657
0.734283
0.810378
0.815443
0.602954
0.80416
0.536389
0.815604
0.539421
0.811928
0.770366
0.682483
0.733492
0.783085
0.713001
0.841484
0.813698
0.796864
0.803969
0.703304
0.802554
0.789431
0.802441
0.814938
0.80169
0.731455
0.697835
0.800587
0.772266
0.518843
0.811145
0.663145
0.794096
0.705667
0.825004
0.809381
0.825011
0.810173
0.837146
0.807226
0.579838
0.829201
0.806983
0.801524
0.815382
0.81192
0.812543
0.814564
0.82509
0.81634
0.617993
0.804746
0.800655
0.812841
0.692149
0.80231
0.823218
0.756353
0.68854
0.80749
0.688263
0.731653
0.810023
0.812656
0.668505
0.841444
0.766921
0.80539
0.796417
0.809734
0.844464
0.801058
0.538686
0.814841
0.708319
0.518059
0.77818
0.758088
0.769508
0.812137
0.803516
0.816348
0.811951
0.585753
0.787492
0.831208
0.812034
0.591132
0.72145
0.634779
0.81661
0.810407
0.6909
0.803981
0.812113
0.799303
0.834183
0.605992
0.840308
0.740162
0.811907
0.812416
0.669077
0.812481
0.721
0.791795
0.716532
0.811859
0.784418
0.633859
0.724137
0.712294
0.833115
0.809353
0.819278
0.82199
0.803343
0.808507
0.802793
0.8176
0.803251
0.686978
0.80343
0.60344
0.776687
0.807174
0.802291
0.812109
0.824222
0.803327
0.716854
0.710544
0.667151
0.790256
0.816695
0.749076
0.57914
0.751454
0.810191
0.801851
0.760172
0.803568
0.823119
0.753203
0.568728
0.701949
0.798594
0.812108
0.864271
0.814574
0.81171
0.851795
0.799548
0.801845
0.814355
0.812207
0.805317
0.717579
0.809142
0.695403
0.862209
0.778637
0.813381
0.573708
0.796474
0.529084
0.583172
0.584721
0.807878
0.80363
0.809233
0.75811
0.803553
0.532141
0.78219
0.802893
0.734508
0.814294
0.80161
0.815797
0.842863
0.509964
0.812006
0.80208
0.80954
0.816717
0.812827
0.812294
0.754105
0.797131
0.798785
0.803231
0.797549
0.810683
0.845272
0.818523
0.723656
0.804674
0.60681
0.813159
0.812005
0.586482
0.766825
0.766892
0.536195
0.784239
0.803638
0.878247
0.798345
0.81307
0.755167
0.79441
0.797024
0.809218
0.782663
0.541865
0.711313
0.680369
0.781034
0.81462
0.802883
0.821806
0.790222
0.801795
0.812753
0.798061
0.852129
0.70448
0.811819
0.78066
0.530832
0.51555
0.812865
0.803541
0.805438
0.560297
0.79698
0.803739
0.659071
0.813692
0.790588
0.806529
0.814779
0.532624
0.724575
0.718716
0.812417
0.831983
0.629855
0.789818
0.717123
0.813564
0.827231
0.779416
0.773126
0.535032
0.81149
0.802406
0.723618
0.851981
0.805813
0.722632
0.739823
0.763848
0.810765
0.563348
0.796693
0.737953
0.800323
0.821824
0.720266
0.799157
0.811728
0.716479
0.813001
0.705927
0.815955
0.798186
0.759667
0.689765
0.808882
0.799998
0.813336
0.669523
0.805369
0.804831
0.811557
0.699411
0.812111
0.808367
0.83173
0.648005
0.815462
0.740726
0.811901
0.805698
0.842178
0.803681
0.81889
0.749013
0.815155
0.838767
0.832793
0.816424
0.845561
0.752307
0.847715
0.82597
0.803822
0.825725
0.8056
0.646563
0.778049
0.813896
0.746778
0.6951
0.798437
0.804061
0.679692
0.797419
0.537863
0.848426
0.695981
0.706177
0.813538
0.774453
0.806872
0.798927
0.806935
0.803886
0.811996
0.835605
0.729951
0.77212
0.58813
0.809981
0.777012
0.810887
0.805112
0.569956
0.802904
0.802529
0.807466
0.798618
0.816705
0.808149
0.709911
0.823102
0.847883
0.684376
0.74359
0.81215
0.80091
0.712265
0.814264
0.754317
0.79678
0.802898
0.805359
0.837124
0.668666
0.723323
0.800798
0.701946
0.772635
0.832128
0.531901
0.691202
0.799579
0.804285
0.803363
0.741752
0.822355
0.806868
0.80366
0.808126
0.813274
0.696045
0.649101
0.809672
0.813777
0.799227
0.871429
0.802718
0.812336
0.799044
0.809935
0.811249
0.808361
0.652954
0.81474
0.816558
0.803437
0.801857
0.799366
0.617235
0.80969
0.810491
0.812399
0.862273
0.814404
0.801484
0.480498
0.83632
0.692491
0.826371
0.805759
0.813775
0.823993
0.809068
0.812048
0.730904
0.55127
0.491552
0.81231
0.808938
0.533985
0.795556
0.81447
0.833257
0.50392
0.809571
0.813411
0.802255
0.809076
0.530132
0.813097
0.808243
0.559863
0.812191
0.815241
0.538672
0.80875
0.812647
0.775822
0.806268
0.811161
0.80948
0.798985
0.825857
0.533734
0.830158
0.815799
0.804067
0.742058
0.786177
0.811338
0.809383
0.802099
0.815924
0.800702
0.656984
0.806148
0.579012
0.811944
0.659807
0.746283
0.796996
0.718251
0.803542
0.579657
0.849721
0.812186
0.812318
0.799252
0.802703
0.803181
0.813636
0.814345
0.670061
0.71763
0.72618
0.81476
0.721308
0.57327
0.817384
0.783701
0.827861
0.811675
0.809376
0.732475
0.535779
0.798717
0.790026
0.496054
0.81383
0.81299
0.735571
0.805906
0.768495
0.606957
0.809938
0.814641
0.788627
0.609741
0.802307
0.782958
0.826332
0.812958
0.810367
0.811892
0.812818
0.71577
0.800066
0.815722
0.694625
0.4804
0.732894
0.798802
0.730752
0.812995
0.798107
0.805522
0.782562
0.867317
0.803554
0.801669
0.825761
0.859317
0.804614
0.815682
0.794323
0.815892
0.789153
0.743987
0.811908
0.80426
0.816214
0.803248
0.790802
0.842783
0.766086
0.812715
0.773364
0.803719
0.642505
0.50931
0.800984
0.802162
0.809511
0.798148
0.799671
0.811906
0.772902
0.804614
0.811988
0.782191
0.816902
0.777164
0.593283
0.805043
0.760902
0.776194
0.750445
0.763665
0.793916
0.788571
0.823027
0.78751
0.809419
0.803367
0.765112
0.815505
0.542191
0.729495
0.810531
0.813986
0.811395
0.802319
0.812826
0.810518
0.80575
0.821148
0.809684
0.782945
0.816597
0.801684
0.790469
0.795889
0.805166
0.586078
0.803621
0.792168
0.574424
0.81318
0.807233
0.806045
0.810757
0.702312
0.754894
0.8211
0.774895
0.811385
0.816316
0.722259
0.80448
0.824096
0.720034
0.799424
0.809505
0.778564
0.804715
0.836956
0.801902
0.817315
0.772519
0.805336
0.800293
0.813067
0.802103
0.797887
0.588644
0.815207
0.786715
0.806632
0.825614
0.691052
0.828542
0.819961
0.505225
0.806382
0.804451
0.801465
0.812256
0.824235
0.82405
0.804908
0.805902
0.814157
0.813368
0.80352
0.812557
0.804727
0.749247
0.708179
0.780897
0.813654
0.81208
0.775855
0.757778
0.813922
0.824931
0.810517
0.812207
0.691441
0.500665
0.74778
0.817524
0.806713
0.816233
0.844186
0.799871
0.714838
0.654176
0.799654
0.804689
0.694185
0.812656
0.671106
0.836806
0.729214
0.812844
0.895252
0.815606
0.800804
0.777727
0.811097
0.681439
0.814184
0.808211
0.79151
0.805601
0.779414
0.800647
0.810029
0.780454
0.803575
0.852059
0.776996
0.802131
0.492801
0.803171
0.693878
0.804096
0.794447
0.788574
0.78361
0.722207
0.802087
0.788176
0.84445
0.813274
0.812431
0.811769
0.895509
0.746403
0.802733
0.730805
0.803157
0.798358
0.804498
0.716733
0.800921
0.805497
0.638995
0.808654
0.748569
0.533889
0.846505
0.847327
0.750016
0.810757
0.794669
0.772015
0.731719
0.775987
0.785477
0.736215
0.80385
0.804416
0.719439
0.815302
0.804976
0.55676
0.811981
0.821436
0.813239
0.803505
0.610664
0.714956
0.80627
0.85917
0.483652
0.724507
0.806455
0.815953
0.796439
0.713238
0.710648
0.809021
0.813223
0.815
0.837073
0.745184
0.754373
0.87574
0.806862
0.809207
0.795166
0.637392
0.597347
0.585947
0.656968
0.586117
0.764188
0.800715
0.803378
0.812258
0.809123
0.811474
0.860154
0.715369
0.82386
0.813882
0.817081
0.81663
0.81381
0.812955
0.811566
0.811929
0.65675
0.802372