# vtk DataFile Version 1.0
unstructured grid
ascii
DATASET UNSTRUCTURED_GRID
points 14760 float
-1 0 0
-1 1 0
2 0 0
2 1 0
0 0 0
1 0 0
-1 1 0.1
-1 0 0.1
0 0 0.1
1 0 0.1
2 0 0.1
2 1 0.1
-0.99 0 0
-0.98 0 0
-0.97 0 0
-0.96 0 0
-0.95 0 0
-0.94 0 0
-0.93 0 0
-0.92 0 0
-0.91 0 0
-0.9 0 0
-0.89 0 0
-0.88 0 0
-0.87 0 0
-0.86 0 0
-0.85 0 0
-0.84 0 0
-0.83 0 0
-0.82 0 0
-0.81 0 0
-0.8 0 0
-0.79 0 0
-0.78 0 0
-0.77 0 0
-0.76 0 0
-0.75 0 0
-0.74 0 0
-0.73 0 0
-0.72 0 0
-0.71 0 0
-0.7 0 0
-0.69 0 0
-0.68 0 0
-0.67 0 0
-0.66 0 0
-0.65 0 0
-0.64 0 0
-0.63 0 0
-0.62 0 0
-0.61 0 0
-0.6 0 0
-0.59 0 0
-0.58 0 0
-0.57 0 0
-0.56 0 0
-0.55 0 0
-0.54 0 0
-0.53 0 0
-0.52 0 0
-0.51 0 0
-0.5 0 0
-0.49 0 0
-0.48 0 0
-0.47 0 0
-0.46 0 0
-0.45 0 0
-0.44 0 0
-0.43 0 0
-0.42 0 0
-0.41 0 0
-0.4 0 0
-0.39 0 0
-0.38 0 0
-0.37 0 0
-0.36 0 0
-0.35 0 0
-0.34 0 0
-0.33 0 0
-0.32 0 0
-0.31 0 0
-0.3 0 0
-0.29 0 0
-0.28 0 0
-0.27 0 0
-0.26 0 0
-0.25 0 0
-0.24 0 0
-0.23 0 0
-0.22 0 0
-0.21 0 0
-0.2 0 0
-0.19 0 0
-0.18 0 0
-0.17 0 0
-0.16 0 0
-0.15 0 0
-0.14 0 0
-0.13 0 0
-0.12 0 0
-0.11 0 0
-0.1 0 0
-0.09 0 0
-0.08 0 0
-0.07 0 0
-0.06 0 0
-0.05 0 0
-0.04 0 0
-0.03 0 0
-0.02 0 0
-0.01 0 0
1.01 0 0
1.02 0 0
1.03 0 0
1.04 0 0
1.05 0 0
1.06 0 0
1.07 0 0
1.08 0 0
1.09 0 0
1.1 0 0
1.11 0 0
1.12 0 0
1.13 0 0
1.14 0 0
1.15 0 0
1.16 0 0
1.17 0 0
1.18 0 0
1.19 0 0
1.2 0 0
1.21 0 0
1.22 0 0
1.23 0 0
1.24 0 0
1.25 0 0
1.26 0 0
1.27 0 0
1.28 0 0
1.29 0 0
1.3 0 0
1.31 0 0
1.32 0 0
1.33 0 0
1.34 0 0
1.35 0 0
1.36 0 0
1.37 0 0
1.38 0 0
1.39 0 0
1.4 0 0
1.41 0 0
1.42 0 0
1.43 0 0
1.44 0 0
1.45 0 0
1.46 0 0
1.47 0 0
1.48 0 0
1.49 0 0
1.5 0 0
1.51 0 0
1.52 0 0
1.53 0 0
1.54 0 0
1.55 0 0
1.56 0 0
1.57 0 0
1.58 0 0
1.59 0 0
1.6 0 0
1.61 0 0
1.62 0 0
1.63 0 0
1.64 0 0
1.65 0 0
1.66 0 0
1.67 0 0
1.68 0 0
1.69 0 0
1.7 0 0
1.71 0 0
1.72 0 0
1.73 0 0
1.74 0 0
1.75 0 0
1.76 0 0
1.77 0 0
1.78 0 0
1.79 0 0
1.8 0 0
1.81 0 0
1.82 0 0
1.83 0 0
1.84 0 0
1.85 0 0
1.86 0 0
1.87 0 0
1.88 0 0
1.89 0 0
1.9 0 0
1.91 0 0
1.92 0 0
1.93 0 0
1.94 0 0
1.95 0 0
1.96 0 0
1.97 0 0
1.98 0 0
1.99 0 0
2 0.0100088 0
2 0.0204183 0
2 0.0312446 0
2 0.0425043 0
2 0.0542147 0
2 0.066394 0
2 0.079061 0
2 0.092235 0
2 0.105936 0
2 0.120186 0
2 0.135007 0
2 0.150421 0
2 0.166452 0
2 0.183124 0
2 0.200465 0
2 0.218499 0
2 0.237256 0
2 0.256763 0
2 0.277051 0
2 0.298152 0
2 0.320097 0
2 0.342921 0
2 0.366659 0
2 0.391347 0
2 0.417024 0
2 0.443728 0
2 0.471502 0
2 0.500387 0
2 0.530429 0
2 0.561674 0
2 0.594169 0
2 0.627966 0
2 0.663115 0
2 0.699672 0
2 0.737692 0
2 0.777235 0
2 0.818361 0
2 0.861133 0
2 0.905617 0
2 0.951882 0
1.95 1 0
1.9 1 0
1.85 1 0
1.8 1 0
1.75 1 0
1.7 1 0
1.65 1 0
1.6 1 0
1.55 1 0
1.5 1 0
1.45 1 0
1.4 1 0
1.35 1 0
1.3 1 0
1.25 1 0
1.2 1 0
1.15 1 0
1.1 1 0
1.05 1 0
1 1 0
0.95 1 0
0.9 1 0
0.85 1 0
0.8 1 0
0.75 1 0
0.7 1 0
0.65 1 0
0.6 1 0
0.55 1 0
0.5 1 0
0.45 1 0
0.4 1 0
0.35 1 0
0.3 1 0
0.25 1 0
0.2 1 0
0.15 1 0
0.1 1 0
0.05 1 0
3.69793e-12 1 0
-0.05 1 0
-0.1 1 0
-0.15 1 0
-0.2 1 0
-0.25 1 0
-0.3 1 0
-0.35 1 0
-0.4 1 0
-0.45 1 0
-0.5 1 0
-0.55 1 0
-0.6 1 0
-0.65 1 0
-0.7 1 0
-0.75 1 0
-0.8 1 0
-0.85 1 0
-0.9 1 0
-0.95 1 0
-1 0.951882 0
-1 0.905617 0
-1 0.861133 0
-1 0.818361 0
-1 0.777235 0
-1 0.737692 0
-1 0.699672 0
-1 0.663115 0
-1 0.627966 0
-1 0.594169 0
-1 0.561674 0
-1 0.530429 0
-1 0.500387 0
-1 0.471502 0
-1 0.443728 0
-1 0.417024 0
-1 0.391347 0
-1 0.366659 0
-1 0.342921 0
-1 0.320097 0
-1 0.298152 0
-1 0.277051 0
-1 0.256763 0
-1 0.237256 0
-1 0.218499 0
-1 0.200465 0
-1 0.183124 0
-1 0.166452 0
-1 0.150421 0
-1 0.135007 0
-1 0.120186 0
-1 0.105936 0
-1 0.092235 0
-1 0.079061 0
-1 0.066394 0
-1 0.0542147 0
-1 0.0425043 0
-1 0.0312446 0
-1 0.0204183 0
-1 0.0100088 0
0.00921362 0.00379763 0
0.0184561 0.00752451 0
0.0277268 0.0111804 0
0.0370253 0.0147652 0
0.0463511 0.0182786 0
0.0557034 0.0217203 0
0.0650819 0.0250903 0
0.074486 0.0283883 0
0.083915 0.0316141 0
0.0933685 0.0347675 0
0.102846 0.0378484 0
0.112347 0.0408565 0
0.12187 0.0437917 0
0.131416 0.0466538 0
0.140983 0.0494427 0
0.150572 0.0521581 0
0.160181 0.0547999 0
0.16981 0.0573681 0
0.179458 0.0598623 0
0.189125 0.0622825 0
0.198811 0.0646285 0
0.208514 0.0669001 0
0.218234 0.0690974 0
0.227971 0.07122 0
0.237724 0.073268 0
0.247493 0.0752411 0
0.257276 0.0771393 0
0.267073 0.0789625 0
0.276884 0.0807105 0
0.286708 0.0823832 0
0.296545 0.0839806 0
0.306394 0.0855025 0
0.316254 0.0869488 0
0.326125 0.0883196 0
0.336006 0.0896146 0
0.345896 0.0908339 0
0.355796 0.0919773 0
0.365704 0.0930447 0
0.375621 0.0940362 0
0.385544 0.0949517 0
0.395474 0.095791 0
0.40541 0.0965542 0
0.415352 0.0972412 0
0.425299 0.097852 0
0.43525 0.0983865 0
0.445205 0.0988447 0
0.455164 0.0992266 0
0.465125 0.0995321 0
0.475088 0.0997613 0
0.485052 0.0999141 0
0.495017 0.0999904 0
0.504983 0.0999904 0
0.514948 0.0999141 0
0.524912 0.0997613 0
0.534875 0.0995321 0
0.544836 0.0992266 0
0.554795 0.0988447 0
0.56475 0.0983865 0
0.574701 0.097852 0
0.584648 0.0972412 0
0.59459 0.0965542 0
0.604526 0.095791 0
0.614456 0.0949517 0
0.624379 0.0940362 0
0.634296 0.0930447 0
0.644204 0.0919773 0
0.654104 0.0908339 0
0.663994 0.0896146 0
0.673875 0.0883196 0
0.683746 0.0869488 0
0.693606 0.0855025 0
0.703455 0.0839806 0
0.713292 0.0823832 0
0.723116 0.0807105 0
0.732927 0.0789625 0
0.742724 0.0771393 0
0.752508 0.0752411 0
0.762276 0.073268 0
0.772029 0.07122 0
0.781766 0.0690974 0
0.791486 0.0669001 0
0.801189 0.0646285 0
0.810875 0.0622825 0
0.820542 0.0598623 0
0.83019 0.0573681 0
0.839819 0.0547999 0
0.849428 0.0521581 0
0.859017 0.0494427 0
0.868584 0.0466538 0
0.87813 0.0437917 0
0.887653 0.0408565 0
0.897154 0.0378484 0
0.906631 0.0347675 0
0.916085 0.0316141 0
0.925514 0.0283883 0
0.934918 0.0250903 0
0.944297 0.0217203 0
0.953649 0.0182786 0
0.962975 0.0147652 0
0.972273 0.0111804 0
0.981544 0.00752451 0
0.990786 0.00379763 0
-1 0.951882 0.1
-1 0.905617 0.1
-1 0.861133 0.1
-1 0.818361 0.1
-1 0.777235 0.1
-1 0.737692 0.1
-1 0.699672 0.1
-1 0.663115 0.1
-1 0.627966 0.1
-1 0.594169 0.1
-1 0.561674 0.1
-1 0.530429 0.1
-1 0.500387 0.1
-1 0.471502 0.1
-1 0.443728 0.1
-1 0.417024 0.1
-1 0.391347 0.1
-1 0.366659 0.1
-1 0.342921 0.1
-1 0.320097 0.1
-1 0.298152 0.1
-1 0.277051 0.1
-1 0.256763 0.1
-1 0.237256 0.1
-1 0.218499 0.1
-1 0.200465 0.1
-1 0.183124 0.1
-1 0.166452 0.1
-1 0.150421 0.1
-1 0.135007 0.1
-1 0.120186 0.1
-1 0.105936 0.1
-1 0.092235 0.1
-1 0.079061 0.1
-1 0.066394 0.1
-1 0.0542147 0.1
-1 0.0425043 0.1
-1 0.0312446 0.1
-1 0.0204183 0.1
-1 0.0100088 0.1
-0.99 0 0.1
-0.98 0 0.1
-0.97 0 0.1
-0.96 0 0.1
-0.95 0 0.1
-0.94 0 0.1
-0.93 0 0.1
-0.92 0 0.1
-0.91 0 0.1
-0.9 0 0.1
-0.89 0 0.1
-0.88 0 0.1
-0.87 0 0.1
-0.86 0 0.1
-0.85 0 0.1
-0.84 0 0.1
-0.83 0 0.1
-0.82 0 0.1
-0.81 0 0.1
-0.8 0 0.1
-0.79 0 0.1
-0.78 0 0.1
-0.77 0 0.1
-0.76 0 0.1
-0.75 0 0.1
-0.74 0 0.1
-0.73 0 0.1
-0.72 0 0.1
-0.71 0 0.1
-0.7 0 0.1
-0.69 0 0.1
-0.68 0 0.1
-0.67 0 0.1
-0.66 0 0.1
-0.65 0 0.1
-0.64 0 0.1
-0.63 0 0.1
-0.62 0 0.1
-0.61 0 0.1
-0.6 0 0.1
-0.59 0 0.1
-0.58 0 0.1
-0.57 0 0.1
-0.56 0 0.1
-0.55 0 0.1
-0.54 0 0.1
-0.53 0 0.1
-0.52 0 0.1
-0.51 0 0.1
-0.5 0 0.1
-0.49 0 0.1
-0.48 0 0.1
-0.47 0 0.1
-0.46 0 0.1
-0.45 0 0.1
-0.44 0 0.1
-0.43 0 0.1
-0.42 0 0.1
-0.41 0 0.1
-0.4 0 0.1
-0.39 0 0.1
-0.38 0 0.1
-0.37 0 0.1
-0.36 0 0.1
-0.35 0 0.1
-0.34 0 0.1
-0.33 0 0.1
-0.32 0 0.1
-0.31 0 0.1
-0.3 0 0.1
-0.29 0 0.1
-0.28 0 0.1
-0.27 0 0.1
-0.26 0 0.1
-0.25 0 0.1
-0.24 0 0.1
-0.23 0 0.1
-0.22 0 0.1
-0.21 0 0.1
-0.2 0 0.1
-0.19 0 0.1
-0.18 0 0.1
-0.17 0 0.1
-0.16 0 0.1
-0.15 0 0.1
-0.14 0 0.1
-0.13 0 0.1
-0.12 0 0.1
-0.11 0 0.1
-0.1 0 0.1
-0.09 0 0.1
-0.08 0 0.1
-0.07 0 0.1
-0.06 0 0.1
-0.05 0 0.1
-0.04 0 0.1
-0.03 0 0.1
-0.02 0 0.1
-0.01 0 0.1
0.00921362 0.00379763 0.1
0.0184561 0.00752451 0.1
0.0277268 0.0111804 0.1
0.0370253 0.0147652 0.1
0.0463511 0.0182786 0.1
0.0557034 0.0217203 0.1
0.0650819 0.0250903 0.1
0.074486 0.0283883 0.1
0.083915 0.0316141 0.1
0.0933685 0.0347675 0.1
0.102846 0.0378484 0.1
0.112347 0.0408565 0.1
0.12187 0.0437917 0.1
0.131416 0.0466538 0.1
0.140983 0.0494427 0.1
0.150572 0.0521581 0.1
0.160181 0.0547999 0.1
0.16981 0.0573681 0.1
0.179458 0.0598623 0.1
0.189125 0.0622825 0.1
0.198811 0.0646285 0.1
0.208514 0.0669001 0.1
0.218234 0.0690974 0.1
0.227971 0.07122 0.1
0.237724 0.073268 0.1
0.247493 0.0752411 0.1
0.257276 0.0771393 0.1
0.267073 0.0789625 0.1
0.276884 0.0807105 0.1
0.286708 0.0823832 0.1
0.296545 0.0839806 0.1
0.306394 0.0855025 0.1
0.316254 0.0869488 0.1
0.326125 0.0883196 0.1
0.336006 0.0896146 0.1
0.345896 0.0908339 0.1
0.355796 0.0919773 0.1
0.365704 0.0930447 0.1
0.375621 0.0940362 0.1
0.385544 0.0949517 0.1
0.395474 0.095791 0.1
0.40541 0.0965542 0.1
0.415352 0.0972412 0.1
0.425299 0.097852 0.1
0.43525 0.0983865 0.1
0.445205 0.0988447 0.1
0.455164 0.0992266 0.1
0.465125 0.0995321 0.1
0.475088 0.0997613 0.1
0.485052 0.0999141 0.1
0.495017 0.0999904 0.1
0.504983 0.0999904 0.1
0.514948 0.0999141 0.1
0.524912 0.0997613 0.1
0.534875 0.0995321 0.1
0.544836 0.0992266 0.1
0.554795 0.0988447 0.1
0.56475 0.0983865 0.1
0.574701 0.097852 0.1
0.584648 0.0972412 0.1
0.59459 0.0965542 0.1
0.604526 0.095791 0.1
0.614456 0.0949517 0.1
0.624379 0.0940362 0.1
0.634296 0.0930447 0.1
0.644204 0.0919773 0.1
0.654104 0.0908339 0.1
0.663994 0.0896146 0.1
0.673875 0.0883196 0.1
0.683746 0.0869488 0.1
0.693606 0.0855025 0.1
0.703455 0.0839806 0.1
0.713292 0.0823832 0.1
0.723116 0.0807105 0.1
0.732927 0.0789625 0.1
0.742724 0.0771393 0.1
0.752508 0.0752411 0.1
0.762276 0.073268 0.1
0.772029 0.07122 0.1
0.781766 0.0690974 0.1
0.791486 0.0669001 0.1
0.801189 0.0646285 0.1
0.810875 0.0622825 0.1
0.820542 0.0598623 0.1
0.83019 0.0573681 0.1
0.839819 0.0547999 0.1
0.849428 0.0521581 0.1
0.859017 0.0494427 0.1
0.868584 0.0466538 0.1
0.87813 0.0437917 0.1
0.887653 0.0408565 0.1
0.897154 0.0378484 0.1
0.906631 0.0347675 0.1
0.916085 0.0316141 0.1
0.925514 0.0283883 0.1
0.934918 0.0250903 0.1
0.944297 0.0217203 0.1
0.953649 0.0182786 0.1
0.962975 0.0147652 0.1
0.972273 0.0111804 0.1
0.981544 0.00752451 0.1
0.990786 0.00379763 0.1
1.01 0 0.1
1.02 0 0.1
1.03 0 0.1
[...]
CELL_DATA 14313
SCALARS rho float
LOOKUP_TABLE default
0.792648
0.826521
0.807771
0.581279
0.782082
0.823931
0.824469
0.824386
0.81237
0.817005
0.824162
0.800723
0.80094
0.654456
0.824736
0.841025
0.810655
0.809328
0.821956
0.80727
0.822858
0.815665
0.824417
0.781893
0.824009
0.816516
0.755615
0.698147
0.825982
0.833933
0.823996
0.796752
0.804216
0.823981
0.805938
0.822496
0.704832
0.810768
0.82359
0.804062
0.766608
0.822534
0.584709
0.723893
0.828523
0.84307
0.822814
0.782134
0.814672
0.85609
0.700875
0.674022
0.651821
0.822413
0.830039
0.787181
0.828508
0.816489
0.812139
0.824261
0.824032
0.829236
0.796736
0.846336
0.822493
0.825045
0.85802
0.78814
0.848802
0.824728
0.800232
0.840626
0.648838
0.845458
0.750963
0.818455
0.828272
0.76007
0.713291
0.823491
0.620479
0.834272
0.840579
0.804298
0.817134
0.829945
0.823913
0.805715
0.834458
0.80869
0.78493
0.655402
0.809122
0.802087
0.750978
0.804617
0.826099
0.821077
0.804703
0.650354
0.817805
0.821712
0.824444
0.823156
0.76277
0.810879
0.804513
0.715928
0.843094
0.82187
0.815306
0.834752
0.823656
0.829977
0.805129
0.836848
0.830183
0.844551
0.784009
0.802625
0.823546
0.821138
0.865397
0.746317
0.847609
0.770037
0.801338
0.80572
0.826129
0.847158
0.821468
0.824025
0.8666
0.824266
0.833425
0.787145
0.811693
0.795178
0.828559
0.828334
0.824469
0.827436
0.803603
0.80403
0.799086
0.847434
0.807083
0.767576
0.805723
0.828354
0.801611
0.804254
0.82442
0.729544
0.831061
0.804528
0.737863
0.831547
0.824039
0.813473
0.829246
0.810294
0.703333
0.765202
0.833288
0.827949
0.725899
0.824456
0.837503
0.819066
0.712198
0.817713
0.730244
0.799889
0.820556
0.829784
0.819952
0.824339
0.831416
0.755375
0.823458
0.821533
0.785058
0.772758
0.793722
0.815935
0.824726
0.799495
0.594817
0.798036
0.767918
0.756399
0.774419
0.739059
0.824233
0.826105
0.809109
0.804179
0.81803
0.827915
0.773484
0.804586
0.837936
0.826309
0.842192
0.803983
0.818071
0.815705
0.823998
0.842056
0.807412
0.821488
0.806204
0.717286
0.825568
0.825799
0.821658
0.810599
0.843055
0.805632
0.804138
0.820788
0.817944
0.86231
0.819847
0.804598
0.82886
0.803328
0.824386
0.770743
0.697921
0.816651
0.714324
0.836491
0.803298
0.746783
0.823709
0.825533
0.826051
0.829921
0.794496
0.696631
0.765481
0.661251
0.826382
0.738525
0.803937
0.808565
0.845832
0.818727
0.612518
0.805093
0.739897
0.845932
0.804468
0.717197
0.821732
0.836503
0.826082
0.612979
0.814671
0.804409
0.810799
0.817054
0.799095
0.785417
0.817279
0.817057
0.640708
0.826126
0.82535
0.777533
0.803884
0.824143
0.784746
0.827888
0.796247
0.73255
0.804945
0.806957
0.605914
0.584689
0.766962
0.819817
0.831004
0.793341
0.823798
0.826289
0.780814
0.807573
0.804326
0.827824
0.838898
0.804662
0.809568
0.815343
0.684966
0.827216
0.731251
0.801662
0.795776
0.781068
0.84406
0.810812
0.800694
0.705832
0.699711
0.813924
0.809166
0.821261
0.805394
0.802988
0.672961
0.826463
0.824349
0.819676
0.824164
0.824542
0.804071
0.800933
0.825779
0.678987
0.82001
0.824288
0.825947
0.824425
0.778925
0.831329
0.803074
0.825808
0.824674
0.755488
0.762667
0.803691
0.803749
0.660984
0.824445
0.815459
0.810534
0.823599
0.80576
0.802226
0.739113
0.729272
0.825927
0.761246
0.7687
0.823526
0.846067
0.825748
0.80559
0.809723
0.824299
0.804724
0.828132
0.795823
0.828073
0.813293
0.822772
0.805411
0.822338
0.803768
0.823962
0.618268
0.802307
0.803163
0.815681
0.822198
0.780341
0.803464
0.82426
0.824443
0.828955
0.774578
0.820009
0.818649
0.770156
0.763806
0.814291
0.817384
0.838655
0.834713
0.825403
0.807511
0.659737
0.79181
0.642386
0.804721
0.804813
0.812795
0.82574
0.879567
0.57397
0.643633
0.846419
0.8776
0.823499
0.707287
0.806035
0.740332
0.818156
0.81897
0.722689
0.674639
0.766199
0.824604
0.65856
0.879116
0.834371
0.810416
0.810361
0.646309
0.760925
0.79304
0.828591
0.808095
0.804039
0.839552
0.824363
0.729353
0.710841
0.803095
0.807858
0.821504
0.823722
0.810546
0.824041
0.753731
0.794067
0.79932
0.804038
0.777675
0.828653
0.809683
0.824756
0.823755
0.772396
0.806654
0.804863
0.805178
0.824232
0.826201
0.818011
0.687156
0.791154
0.827351
0.814306
0.823536
0.808822
0.824441
0.808992
0.830911
0.831403
0.6819
0.862155
0.757137
0.831162
0.815892
0.746333
0.832529
0.80195
0.835301
0.589084
0.804218
0.70582
0.824114
0.8108
0.641289
0.803299
0.805901
0.800027
0.804254
0.812684
0.784491
0.823976
0.642054
0.807526
0.807591
0.802905
0.828972
0.777797
0.824109
0.821494
0.80229
0.827437
0.800595
0.803713
0.824377
0.656588
0.781659
0.752544
0.61689
0.834716
0.610904
0.804249
0.829613
0.863531
0.721466
0.760879
0.824228
0.807581
0.804184
0.805594
0.780779
0.822879
0.824428
0.801404
0.824946
0.819101
0.656461
0.824316
0.825033
0.807586
0.822279
0.645907
0.82631
0.831821
0.731696
0.792267
0.82499
0.802309
0.833298
0.839043
0.80494
0.743196
0.645625
0.825445
0.607524
0.802887
0.803741
0.775879
0.824147
0.759608
0.82342
0.808437
0.803791
0.616767
0.825747
0.837025
0.839897
0.823788
0.804235
0.803796
0.824368
0.760508
0.854819
0.841997
0.732968
0.802528
0.674367
0.782892
0.691631
0.826561
0.841997
0.80363
0.679678
0.780705
0.825369
0.834415
0.840835
0.822719
0.714768
0.583086
0.808051
0.827046
0.804582
0.819542
0.814909
0.776941
0.856104
0.82637
0.804823
0.827724
0.800755
0.744506
0.802603
0.814928
0.632034
0.706455
0.804724
0.822912
0.805864
0.609133
0.823568
0.631447
0.824429
0.773768
0.826786
0.827362
0.75598
0.817914
0.803516
0.806136
0.840896
0.843005
0.838907
0.805809
0.827365
0.618693
0.824441
0.863708
0.833115
0.838641
0.805179
0.831179
0.802233
0.847007
0.810494
0.816082
0.708405
0.683728
0.844523
0.825139
0.847743
0.740687
0.804531
0.770284
0.801226
0.811376
0.804217
0.818525
0.824938
0.83297
0.837508
0.839458
0.806719
0.751514
0.815535
0.751012
0.805683
0.831173
0.803354
0.816789
0.767509
0.806425
0.807797
0.854482
0.820739
0.80362
0.809266
0.843228
0.839742
0.804142
0.86325
0.800206
0.830579
0.70657
0.803723
0.801832
0.80341
0.840921
0.634988
0.807613
0.80662
0.68854
0.826104
0.838704
0.82551
0.803767
0.807861
0.80401
0.827196
0.803491
0.713007
0.567701
0.825179
0.817299
0.804129
0.806473
0.805746
0.805026
0.822735
0.802684
0.825433
0.617056
0.824537
0.810729
0.823952
0.849875
0.825412
0.836874
0.823554
0.801861
0.824721
0.699942
0.805009
0.856185
0.824745
0.795542
0.825756
0.658669
0.807385
0.667582
0.708921
0.709327
0.810845
0.826722
0.813877
0.596514
0.711556
0.804173
0.840056
0.76065
0.836329
0.806141
0.809451
0.808773
0.689859
0.762498
0.604455
0.804117
0.823827
0.807731
0.829715
0.68879
0.683436
0.859199
0.804771
0.82563
0.750775
0.8253
0.574556
0.831241
0.689307
0.825503
0.828245
0.803194
0.804249
0.835131
0.804737
0.805016
0.815397
0.656451
0.808379
0.689623
0.802936
0.802832
0.825438
0.816998
0.744152
0.82642
0.755887
0.803848
0.715602
0.80844
0.747693
0.690232
0.834519
0.824432
0.803789
0.74642
0.814561
0.681202
0.822618
0.803767
0.723525
0.835735
0.827424
0.687647
0.713043
0.835673
0.804246
0.745612
0.836195
0.843625
0.844877
0.82391
0.588945
0.76401
0.82925
0.830811
0.666545
0.662941
0.818802
0.824476
0.743919
0.783156
0.824185
0.818046
0.76871
0.824176
0.825267
0.804038
0.747851
0.803756
0.80889
0.82338
0.6158
0.806675
0.83217
0.608078
0.828826
0.851135
0.824163
0.694579
0.823892
0.823621
0.823988
0.802173
0.82954
0.805057
0.808016
0.805886
0.803773
0.825171
0.661843
0.821178
0.812562
0.726697
0.649324
0.789989
0.802947
0.824214
0.755537
0.678443
0.82355
0.795897
0.824194
0.831808
0.825239
0.835064
0.761064
0.653932
0.823692
0.842021
0.82416
0.693441
0.814532
0.743418
0.824897
0.822788
0.824072
0.828371
0.803015
0.824937
0.809835
0.759412
0.82711
0.824606
0.766912
0.794881
0.737603
0.669141
0.747343
0.794053
0.82675
0.823453
0.814217
0.822342
0.803772
0.806816
0.80929
0.691959
0.754639
0.823731
0.804231
0.805899
0.819996
0.650871
0.825296
0.804748
0.85088
0.819928
0.678
0.796327
0.80497
0.849451
0.725671
0.613652
0.612678
0.657644
0.828299
0.806506
0.617237
0.658004
0.830607
0.824282
0.893701
0.80581
0.837264
0.824447
0.771203
0.822837
0.824515
0.824208
0.822694
0.824164
0.801733
0.823781
0.70091
0.826916
0.804245
0.820962
0.756772
0.828198
0.634958
0.860888
0.804679
0.836255
0.824162
0.809239
0.7475
0.827246
0.823667
0.840101
0.823948
0.824318
0.68685
0.835998
0.822345
0.824377
0.843998
0.832861
0.593526
0.800578
0.806369
0.815761
0.818542
0.8047
0.802503
0.826628
0.773325
0.808379
0.827144
0.869225
0.840416
0.649499
0.807417
0.762166
0.82566
0.769836
0.83001
0.805991
0.807713
0.824303
0.799199
0.816518
0.817107
0.824079
0.790942
0.713533
0.755737
0.73142
0.825516
0.841168
0.841917
0.755406
0.820587
0.755239
0.649407
0.824174
0.802344
0.823952
0.804186
0.676709
0.803958
0.781956
0.737252
0.822934
0.745608
0.811056
0.827308
0.866425
0.811393
0.80892
0.753285
0.824495
0.786818
0.847305
0.888487
0.801404
0.572166
0.803466
0.647349
0.776674
0.678016
0.800892
0.649622
0.826451
0.855846
0.807236
0.822799
0.830283
0.807641
0.803502
0.719181
0.827928
0.823998
0.805113
0.818174
0.795359
0.804222
0.817714
0.674606
0.827708
0.805478
0.851037
0.819914
0.806343
0.804724
0.8246
0.824721
0.819374
0.804074
0.798896
0.824258
0.805089
0.805802
0.82505
0.785255
0.605241
0.824624
0.829068
0.806019
0.720298
0.805954
0.81873
0.803829
0.730826
0.880527
0.823772
0.827479
0.824177
0.852352
0.789281
0.824224
0.798927
0.826789
0.832385
0.684262
0.824253
0.744605
0.820704
0.745176
0.804176
0.762323
0.805688
0.670031
0.821356
0.732152
0.642072
0.829048
0.682886
0.770787
0.82821
0.824365
0.788338
0.823367
0.745469
0.661064
0.835741
0.662042
0.827841
0.781468
0.803155
0.809143
0.825057
0.673272
0.805694
0.775903
0.821788
0.823777
0.834022
0.807444
0.710942
0.767761
0.687764
0.802778
0.807806
0.824094
0.82645
0.813413
0.823679
0.821577
0.6876
0.746279
0.662726
0.728502
0.825552
0.811561
0.842031
0.810911
0.82619
0.683892
0.881634
0.826582
0.835955
0.615004
0.83303
0.824257
0.848935
0.852703
0.834552
0.833807
0.830789
0.586363
0.807161
0.825769
0.704632
0.827737
0.806075
0.82421
0.809436
0.824499
0.824423
0.782512
0.712602
0.802185
0.802606
0.61566
0.825632
0.865712
0.826626
0.707077
0.826052
0.824911
0.830231
0.840531
0.663389
0.633034
0.80586
0.847752
0.807192
0.8063
0.825783
0.803314
0.813815
0.821637
0.802476
0.805179
0.805738
0.824455
0.806633
0.807916
0.803184
0.838928
0.839864
0.860353
0.824786
0.819223
0.825945
0.824853
0.824186
0.823043
0.826606
0.841407
0.809865
0.82311
0.669789
0.839737
0.685433
0.874051
0.80446
0.840761
0.803772
0.789973
0.797811
0.740101
0.824678
0.812703
0.816256
0.825145
0.781343
0.819907
0.618306
0.807454
0.824859
0.824888
0.798258
0.824131
0.635737
0.78781
0.596217
0.830754
0.801022
0.785519
0.805963
0.825286
0.824434
0.824447
0.73572
0.82012
0.824028
0.813951
0.804455
0.804971
0.749136
0.782569
0.812473
0.804589
0.730333
0.633581
0.595712
0.848728
0.807182
0.789648
0.785517
0.82601
0.804195
0.804689
0.828955
0.784007
0.758771
0.827384
0.810928
0.81433
0.844474
0.806747
0.823865
0.8095
0.63042
0.804193
0.824004
0.785662
0.829896
0.825783
0.835422
0.668159
0.699491
0.619139
0.836025
0.826651
0.759435
0.813585
0.69814
0.818563
0.813377
0.824017
0.805864
0.813456
0.611662
0.712321
0.817081
0.825095
0.795892
0.813306
0.839083
0.803302
0.804648
0.68865
0.818874
0.824078
0.805661
0.824298
0.803102
0.65403
0.819118
0.824399
0.610352
0.730264
0.805631
0.831869
0.729442
0.805148
0.796497
0.824222
0.759373
0.704283
0.822585
0.798255
0.802926
0.771292
0.595508
0.830324
0.694949
0.759465
0.728333
0.804705
0.801324
0.823583
0.69473
0.773857
0.805185
0.826436
0.621606
0.803585
0.827462
0.818491
0.600979
0.806909
0.787486
0.735701
0.734747
0.802007
0.829882
0.824864
0.8204
0.731822
0.753521
0.66544
0.841451
0.849783
0.827676
0.791333
0.870849
0.729671
0.825131
0.77395
0.794297
0.798143
0.82409
0.804927
0.823707
0.789276
0.764986
0.830418
0.800893
0.850109
0.734508
0.793365
0.806749
0.737841
0.805972
0.82597
0.610528
0.803201
0.803704
0.80314
0.83164
0.772113
0.802495
0.738917
0.824236
0.810098
0.741753
0.824235
0.827229
0.838163
0.807359
0.797395
0.801634
0.807537
0.721822
0.824462
0.805405
0.705904
0.808759
0.785116
0.84012
0.829549
0.829534
0.847726
0.85287
0.73182
0.82542
0.805531
0.790912
0.641635
0.826731
0.815609
0.824295
0.78923
0.859997
0.840744
0.785998
0.847668
0.783353
0.801567
0.778692
0.824285
0.738151
0.659902
0.851539
0.692696
0.79492
0.846832
0.824437
0.698433
0.810526
0.764631
0.805155
0.800698
0.794375
0.805145
0.805247
0.804301
0.803409
0.789591
0.824105
0.79239
0.827484
0.809314
0.739326
0.79433
0.816779
0.824462
0.80691
0.600944
0.827445
0.824263
0.824036
0.734601
0.806763
0.802904
0.805101
0.827182
0.747336
0.827241
0.812166
0.814613
0.771791
0.823585
0.814126
0.808803
0.775928
0.811379
0.824577
0.809288
0.82545
0.819413
0.807156
0.833091
0.805643
0.799211
0.81823
0.824263
0.819778
0.792504
0.721
0.82543
0.813857
0.80553
0.753649
0.792197
0.67497
0.803772
0.585533
0.803803
0.82598
0.778039
0.843212
0.664196
0.821421
0.752411
0.822638
0.579554
0.807222
0.831534
0.82502
0.829559
0.748171
0.849206
0.61006
0.832306
0.698354
0.804046
0.659995
0.690495
0.824471
0.824176
0.759096
0.80577
0.823116
0.63677
0.830868
0.771961
0.842513
0.824184
0.81722
0.82494
0.804666
0.841225
0.81349
0.804977
0.653062
0.803788
0.85136
0.804004
0.813379
0.773974
0.808661
0.824087
0.824245
0.800861
0.748084
0.822191
0.826824
0.629477
0.805229
0.675101
0.82699
0.6397
0.824121
0.783412
0.706488
0.730877
0.784926
0.735192
0.847187
0.81562
0.806855
0.805032
0.720835
0.803707
0.799938
0.803374
0.824656
0.813222
0.727658
0.721489
0.804108
0.778582
0.568384
0.823325
0.707975
0.796925
0.689296
0.834002
0.821575
0.835016
0.819543
0.840221
0.812108
0.651467
0.832164
0.811871
0.805191
0.826809
0.824113
0.824432
0.816197
0.834859
0.827597
0.655302
0.805736
0.801604
0.824803
0.709523
0.803535
0.826819
0.769035
0.707304
0.81747
0.72377
0.747252
0.813217
0.824656
0.689395
0.849192
0.774816
0.806403
0.800552
0.82199
0.852244
0.803036
0.638066
0.826359
0.676305
0.65866
0.779489
0.775018
0.781905
0.824287
0.803851
0.826447
0.82416
0.616155
0.789649
0.835514
0.824204
0.627365
0.745487
0.683161
0.82782
0.822505
0.708154
0.804944
0.824171
0.803447
0.838168
0.654969
0.848672
0.74015
0.823954
0.82448
0.712897
0.824372
0.713623
0.801771
0.707237
0.815065
0.797615
0.665881
0.740778
0.738893
0.841259
0.821565
0.830069
0.832399
0.803752
0.810362
0.806445
0.827354
0.80481
0.723349
0.805511
0.630261
0.789684
0.808376
0.805535
0.82426
0.834314
0.803543
0.738695
0.678088
0.694792
0.802848
0.81942
0.748381
0.678395
0.766516
0.82244
0.803111
0.77282
0.806512
0.831322
0.76563
0.604005
0.69704
0.80207
0.824261
0.870493
0.818286
0.823914
0.858517
0.803384
0.803608
0.825978
0.824308
0.817048
0.739195
0.810441
0.723319
0.868719
0.792359
0.825214
0.680484
0.800773
0.574078
0.613751
0.677695
0.819752
0.804127
0.820939
0.775076
0.804029
0.588847
0.795824
0.806954
0.75517
0.825699
0.806173
0.8271
0.850422
0.667215
0.823139
0.802807
0.821781
0.818232
0.824778
0.824399
0.770029
0.801234
0.801088
0.803885
0.801341
0.822512
0.849779
0.829428
0.744561
0.80583
0.69055
0.825027
0.824194
0.626346
0.774393
0.774377
0.596596
0.797473
0.804498
0.883471
0.802798
0.824477
0.771854
0.797017
0.801234
0.81215
0.787201
0.588929
0.690631
0.70114
0.785814
0.825538
0.8041
0.82351
0.793475
0.813669
0.824717
0.802506
0.859143
0.735433
0.824004
0.785506
0.587382
0.670039
0.824814
0.80432
0.806811
0.600938
0.798719
0.804517
0.67979
0.825412
0.803132
0.811418
0.826187
0.674771
0.723329
0.74538
0.82441
0.835888
0.66743
0.793117
0.706536
0.825308
0.83635
0.784359
0.786641
0.626066
0.823443
0.802864
0.738378
0.857301
0.806889
0.74624
0.754167
0.77266
0.822989
0.599452
0.798645
0.740737
0.801523
0.825414
0.711293
0.803612
0.822875
0.731709
0.81471
0.724636
0.827279
0.802402
0.760207
0.726313
0.820197
0.801607
0.825179
0.690172
0.806419
0.816821
0.823754
0.71846
0.824257
0.811862
0.839879
0.682288
0.826843
0.755009
0.824064
0.809255
0.850329
0.804496
0.829739
0.755476
0.826596
0.847283
0.835194
0.826168
0.850082
0.754186
0.853559
0.831096
0.807064
0.833748
0.807406
0.66866
0.790503
0.825571
0.756508
0.724102
0.803095
0.807536
0.705258
0.801961
0.58355
0.852794
0.730194
0.724983
0.825282
0.780686
0.816919
0.800878
0.816789
0.804825
0.82401
0.839632
0.748832
0.784413
0.627902
0.822231
0.78071
0.819799
0.806126
0.606388
0.803506
0.802954
0.819579
0.802084
0.827857
0.809402
0.69146
0.833262
0.853543
0.704955
0.759805
0.824252
0.805738
0.740557
0.817238
0.764913
0.799278
0.80386
0.807126
0.845749
0.692947
0.721736
0.801857
0.724313
0.77648
0.834281
0.577348
0.716654
0.800827
0.805205
0.803814
0.743487
0.832562
0.818759
0.804352
0.809614
0.825131
0.713007
0.692364
0.810992
0.825523
0.802381
0.878752
0.805193
0.824429
0.800408
0.821549
0.816062
0.809862
0.690922
0.816261
0.827772
0.80432
0.806683
0.802991
0.64444
0.821343
0.822587
0.82447
0.869297
0.82588
0.803437
0.647722
0.83891
0.725668
0.836139
0.809037
0.815533
0.829059
0.821346
0.824119
0.75441
0.593588
0.655619
0.824351
0.821009
0.603619
0.79815
0.825943
0.836264
0.622794
0.811271
0.825098
0.805061
0.81077
0.642537
0.824941
0.809754
0.600054
0.824292
0.826669
0.593857
0.812389
0.82454
0.77861
0.809182
0.820085
0.821751
0.802159
0.835541
0.580898
0.833558
0.817408
0.804957
0.75934
0.796587
0.823509
0.811277
0.806654
0.826581
0.801835
0.704458
0.818191
0.671714
0.824151
0.682821
0.757087
0.798737
0.735249
0.803982
0.611878
0.856973
0.824321
0.824216
0.80342
0.804046
0.803428
0.81538
0.825971
0.690925
0.738248
0.743141
0.826297
0.743434
0.681412
0.827062
0.794971
0.83695
0.823388
0.81121
0.748004
0.627958
0.800898
0.802162
0.650933
0.825528
0.824903
0.749279
0.807589
0.780536
0.6565
0.821504
0.816376
0.80017
0.639057
0.803963
0.787235
0.836176
0.824882
0.822609
0.813395
0.824768
0.703688
0.809961
0.827088
0.722728
0.64313
0.755984
0.800511
0.745078
0.824908
0.80255
0.807214
0.786812
0.873321
0.803818
0.803191
0.835208
0.866059
0.805598
0.826342
0.806639
0.827173
0.792593
0.752041
0.813666
0.805212
0.827261
0.803879
0.803042
0.850891
0.771169
0.824692
0.784641
0.806189
0.664734
0.583296
0.802738
0.804131
0.821764
0.800032
0.809595
0.824114
0.77724
0.8075
0.824183
0.793198
0.826969
0.778898
0.632442
0.80653
0.763297
0.782027
0.759869
0.766364
0.79675
0.792004
0.824695
0.790747
0.810777
0.803632
0.778865
0.82691
0.589953
0.750846
0.822511
0.825422
0.823509
0.81388
0.824485
0.819729
0.807306
0.831613
0.811024
0.787332
0.827624
0.804944
0.80265
0.798488
0.806437
0.621146
0.804548
0.795074
0.621261
0.822166
0.808712
0.807154
0.812156
0.724791
0.754918
0.831614
0.777145
0.813104
0.827506
0.714482
0.805555
0.834053
0.739438
0.801786
0.821515
0.781896
0.815806
0.840596
0.804096
0.8284
0.783854
0.806351
0.80313
0.824854
0.805821
0.801659
0.629033
0.82666
0.799632
0.807804
0.835535
0.72722
0.838106
0.828719
0.624348
0.809312
0.805409
0.806034
0.824136
0.833275
0.83405
0.806051
0.817464
0.825816
0.814924
0.804113
0.824333
0.807622
0.755927
0.73862
0.792894
0.82542
0.823574
0.787249
0.770334
0.815537
0.827277
0.812048
0.8243
0.726247
0.611118
0.74936
0.828579
0.809922
0.827452
0.851395
0.803243
0.742495
0.692324
0.804121
0.807955
0.723145
0.824664
0.711069
0.845021
0.745562
0.824395
0.899404
0.8171
0.804106
0.790226
0.812714
0.715099
0.815823
0.820008
0.79465
0.817182
0.78146
0.803955
0.811345
0.794265
0.804158
0.859109
0.780781
0.80286
0.657255
0.805627
0.711159
0.805
0.796764
0.790885
0.794887
0.736892
0.813935
0.79977
0.852437
0.825133
0.824488
0.823915
0.899619
0.757351
0.804291
0.749525
0.80353
0.802537
0.806525
0.739433
0.804234
0.807455
0.68935
0.82004
0.762948
0.673724
0.854288
0.855015
0.766242
0.812576
0.797455
0.785034
0.754523
0.781959
0.789374
0.750498
0.804819
0.806791
0.746005
0.826744
0.806053
0.619812
0.824173
0.824646
0.824018
0.804398
0.640239
0.743084
0.807821
0.865889
0.654344
0.74546
0.815545
0.817542
0.807416
0.706069
0.740491
0.810352
0.825092
0.826474
0.845703
0.746349
0.765038
0.881065
0.808764
0.821479
0.797804
0.695649
0.684443
0.625722
0.690836
0.65976
0.780135
0.812657
0.805839
0.824157
0.818563
0.812858
0.86676
0.742899
0.833866
0.825605
0.828127
0.827827
0.825545
0.824887
0.823518
0.824138
0.708092
0.813009