# vtk DataFile Version 1.0
unstructured grid
ascii
DATASET UNSTRUCTURED_GRID
points 14760 float
-1 0 0
-1 1 0
2 0 0
2 1 0
0 0 0
1 0 0
-1 1 0.1
-1 0 0.1
0 0 0.1
1 0 0.1
2 0 0.1
2 1 0.1
-0.99 0 0
-0.98 0 0
-0.97 0 0
-0.96 0 0
-0.95 0 0
-0.94 0 0
-0.93 0 0
-0.92 0 0
-0.91 0 0
-0.9 0 0
-0.89 0 0
-0.88 0 0
-0.87 0 0
-0.86 0 0
-0.85 0 0
-0.84 0 0
-0.83 0 0
-0.82 0 0
-0.81 0 0
-0.8 0 0
-0.79 0 0
-0.78 0 0
-0.77 0 0
-0.76 0 0
-0.75 0 0
-0.74 0 0
-0.73 0 0
-0.72 0 0
-0.71 0 0
-0.7 0 0
-0.69 0 0
-0.68 0 0
-0.67 0 0
-0.66 0 0
-0.65 0 0
-0.64 0 0
-0.63 0 0
-0.62 0 0
-0.61 0 0
-0.6 0 0
-0.59 0 0
-0.58 0 0
-0.57 0 0
-0.56 0 0
-0.55 0 0
-0.54 0 0
-0.53 0 0
-0.52 0 0
-0.51 0 0
-0.5 0 0
-0.49 0 0
-0.48 0 0
-0.47 0 0
-0.46 0 0
-0.45 0 0
-0.44 0 0
-0.43 0 0
-0.42 0 0
-0.41 0 0
-0.4 0 0
-0.39 0 0
-0.38 0 0
-0.37 0 0
-0.36 0 0
-0.35 0 0
-0.34 0 0
-0.33 0 0
-0.32 0 0
-0.31 0 0
-0.3 0 0
-0.29 0 0
-0.28 0 0
-0.27 0 0
-0.26 0 0
-0.25 0 0
-0.24 0 0
-0.23 0 0
-0.22 0 0
-0.21 0 0
-0.2 0 0
-0.19 0 0
-0.18 0 0
-0.17 0 0
-0.16 0 0
-0.15 0 0
-0.14 0 0
-0.13 0 0
-0.12 0 0
-0.11 0 0
-0.1 0 0
-0.09 0 0
-0.08 0 0
-0.07 0 0
-0.06 0 0
-0.05 0 0
-0.04 0 0
-0.03 0 0
-0.02 0 0
-0.01 0 0
1.01 0 0
1.02 0 0
1.03 0 0
1.04 0 0
1.05 0 0
1.06 0 0
1.07 0 0
1.08 0 0
1.09 0 0
1.1 0 0
1.11 0 0
1.12 0 0
1.13 0 0
1.14 0 0
1.15 0 0
1.16 0 0
1.17 0 0
1.18 0 0
1.19 0 0
1.2 0 0
1.21 0 0
1.22 0 0
1.23 0 0
1.24 0 0
1.25 0 0
1.26 0 0
1.27 0 0
1.28 0 0
1.29 0 0
1.3 0 0
1.31 0 0
1.32 0 0
1.33 0 0
1.34 0 0
1.35 0 0
1.36 0 0
1.37 0 0
1.38 0 0
1.39 0 0
1.4 0 0
1.41 0 0
1.42 0 0
1.43 0 0
1.44 0 0
1.45 0 0
1.46 0 0
1.47 0 0
1.48 0 0
1.49 0 0
1.5 0 0
1.51 0 0
1.52 0 0
1.53 0 0
1.54 0 0
1.55 0 0
1.56 0 0
1.57 0 0
1.58 0 0
1.59 0 0
1.6 0 0
1.61 0 0
1.62 0 0
1.63 0 0
1.64 0 0
1.65 0 0
1.66 0 0
1.67 0 0
1.68 0 0
1.69 0 0
1.7 0 0
1.71 0 0
1.72 0 0
1.73 0 0
1.74 0 0
1.75 0 0
1.76 0 0
1.77 0 0
1.78 0 0
1.79 0 0
1.8 0 0
1.81 0 0
1.82 0 0
1.83 0 0
1.84 0 0
1.85 0 0
1.86 0 0
1.87 0 0
1.88 0 0
1.89 0 0
1.9 0 0
1.91 0 0
1.92 0 0
1.93 0 0
1.94 0 0
1.95 0 0
1.96 0 0
1.97 0 0
1.98 0 0
1.99 0 0
2 0.0100088 0
2 0.0204183 0
2 0.0312446 0
2 0.0425043 0
2 0.0542147 0
2 0.066394 0
2 0.079061 0
2 0.092235 0
2 0.105936 0
2 0.120186 0
2 0.135007 0
2 0.150421 0
2 0.166452 0
2 0.183124 0
2 0.200465 0
2 0.218499 0
2 0.237256 0
2 0.256763 0
2 0.277051 0
2 0.298152 0
2 0.320097 0
2 0.342921 0
2 0.366659 0
2 0.391347 0
2 0.417024 0
2 0.443728 0
2 0.471502 0
2 0.500387 0
2 0.530429 0
2 0.561674 0
2 0.594169 0
2 0.627966 0
2 0.663115 0
2 0.699672 0
2 0.737692 0
2 0.777235 0
2 0.818361 0
2 0.861133 0
2 0.905617 0
2 0.951882 0
1.95 1 0
1.9 1 0
1.85 1 0
1.8 1 0
1.75 1 0
1.7 1 0
1.65 1 0
1.6 1 0
1.55 1 0
1.5 1 0
1.45 1 0
1.4 1 0
1.35 1 0
1.3 1 0
1.25 1 0
1.2 1 0
1.15 1 0
1.1 1 0
1.05 1 0
1 1 0
0.95 1 0
0.9 1 0
0.85 1 0
0.8 1 0
0.75 1 0
0.7 1 0
0.65 1 0
0.6 1 0
0.55 1 0
0.5 1 0
0.45 1 0
0.4 1 0
0.35 1 0
0.3 1 0
0.25 1 0
0.2 1 0
0.15 1 0
0.1 1 0
0.05 1 0
3.69793e-12 1 0
-0.05 1 0
-0.1 1 0
-0.15 1 0
-0.2 1 0
-0.25 1 0
-0.3 1 0
-0.35 1 0
-0.4 1 0
-0.45 1 0
-0.5 1 0
-0.55 1 0
-0.6 1 0
-0.65 1 0
-0.7 1 0
-0.75 1 0
-0.8 1 0
-0.85 1 0
-0.9 1 0
-0.95 1 0
-1 0.951882 0
-1 0.905617 0
-1 0.861133 0
-1 0.818361 0
-1 0.777235 0
-1 0.737692 0
-1 0.699672 0
-1 0.663115 0
-1 0.627966 0
-1 0.594169 0
-1 0.561674 0
-1 0.530429 0
-1 0.500387 0
-1 0.471502 0
-1 0.443728 0
-1 0.417024 0
-1 0.391347 0
-1 0.366659 0
-1 0.342921 0
-1 0.320097 0
-1 0.298152 0
-1 0.277051 0
-1 0.256763 0
-1 0.237256 0
-1 0.218499 0
-1 0.200465 0
-1 0.183124 0
-1 0.166452 0
-1 0.150421 0
-1 0.135007 0
-1 0.120186 0
-1 0.105936 0
-1 0.092235 0
-1 0.079061 0
-1 0.066394 0
-1 0.0542147 0
-1 0.0425043 0
-1 0.0312446 0
-1 0.0204183 0
-1 0.0100088 0
0.00921362 0.00379763 0
0.0184561 0.00752451 0
0.0277268 0.0111804 0
0.0370253 0.0147652 0
0.0463511 0.0182786 0
0.0557034 0.0217203 0
0.0650819 0.0250903 0
0.074486 0.0283883 0
0.083915 0.0316141 0
0.0933685 0.0347675 0
0.102846 0.0378484 0
0.112347 0.0408565 0
0.12187 0.0437917 0
0.131416 0.0466538 0
0.140983 0.0494427 0
0.150572 0.0521581 0
0.160181 0.0547999 0
0.16981 0.0573681 0
0.179458 0.0598623 0
0.189125 0.0622825 0
0.198811 0.0646285 0
0.208514 0.0669001 0
0.218234 0.0690974 0
0.227971 0.07122 0
0.237724 0.073268 0
0.247493 0.0752411 0
0.257276 0.0771393 0
0.267073 0.0789625 0
0.276884 0.0807105 0
0.286708 0.0823832 0
0.296545 0.0839806 0
0.306394 0.0855025 0
0.316254 0.0869488 0
0.326125 0.0883196 0
0.336006 0.0896146 0
0.345896 0.0908339 0
0.355796 0.0919773 0
0.365704 0.0930447 0
0.375621 0.0940362 0
0.385544 0.0949517 0
0.395474 0.095791 0
0.40541 0.0965542 0
0.415352 0.0972412 0
0.425299 0.097852 0
0.43525 0.0983865 0
0.445205 0.0988447 0
0.455164 0.0992266 0
0.465125 0.0995321 0
0.475088 0.0997613 0
0.485052 0.0999141 0
0.495017 0.0999904 0
0.504983 0.0999904 0
0.514948 0.0999141 0
0.524912 0.0997613 0
0.534875 0.0995321 0
0.544836 0.0992266 0
0.554795 0.0988447 0
0.56475 0.0983865 0
0.574701 0.097852 0
0.584648 0.0972412 0
0.59459 0.0965542 0
0.604526 0.095791 0
0.614456 0.0949517 0
0.624379 0.0940362 0
0.634296 0.0930447 0
0.644204 0.0919773 0
0.654104 0.0908339 0
0.663994 0.0896146 0
0.673875 0.0883196 0
0.683746 0.0869488 0
0.693606 0.0855025 0
0.703455 0.0839806 0
0.713292 0.0823832 0
0.723116 0.0807105 0
0.732927 0.0789625 0
0.742724 0.0771393 0
0.752508 0.0752411 0
0.762276 0.073268 0
0.772029 0.07122 0
0.781766 0.0690974 0
0.791486 0.0669001 0
0.801189 0.0646285 0
0.810875 0.0622825 0
0.820542 0.0598623 0
0.83019 0.0573681 0
0.839819 0.0547999 0
0.849428 0.0521581 0
0.859017 0.0494427 0
0.868584 0.0466538 0
0.87813 0.0437917 0
0.887653 0.0408565 0
0.897154 0.0378484 0
0.906631 0.0347675 0
0.916085 0.0316141 0
0.925514 0.0283883 0
0.934918 0.0250903 0
0.944297 0.0217203 0
0.953649 0.0182786 0
0.962975 0.0147652 0
0.972273 0.0111804 0
0.981544 0.00752451 0
0.990786 0.00379763 0
-1 0.951882 0.1
-1 0.905617 0.1
-1 0.861133 0.1
-1 0.818361 0.1
-1 0.777235 0.1
-1 0.737692 0.1
-1 0.699672 0.1
-1 0.663115 0.1
-1 0.627966 0.1
-1 0.594169 0.1
-1 0.561674 0.1
-1 0.530429 0.1
-1 0.500387 0.1
-1 0.471502 0.1
-1 0.443728 0.1
-1 0.417024 0.1
-1 0.391347 0.1
-1 0.366659 0.1
-1 0.342921 0.1
-1 0.320097 0.1
-1 0.298152 0.1
-1 0.277051 0.1
-1 0.256763 0.1
-1 0.237256 0.1
-1 0.218499 0.1
-1 0.200465 0.1
-1 0.183124 0.1
-1 0.166452 0.1
-1 0.150421 0.1
-1 0.135007 0.1
-1 0.120186 0.1
-1 0.105936 0.1
-1 0.092235 0.1
-1 0.079061 0.1
-1 0.066394 0.1
-1 0.0542147 0.1
-1 0.0425043 0.1
-1 0.0312446 0.1
-1 0.0204183 0.1
-1 0.0100088 0.1
-0.99 0 0.1
-0.98 0 0.1
-0.97 0 0.1
-0.96 0 0.1
-0.95 0 0.1
-0.94 0 0.1
-0.93 0 0.1
-0.92 0 0.1
-0.91 0 0.1
-0.9 0 0.1
-0.89 0 0.1
-0.88 0 0.1
-0.87 0 0.1
-0.86 0 0.1
-0.85 0 0.1
-0.84 0 0.1
-0.83 0 0.1
-0.82 0 0.1
-0.81 0 0.1
-0.8 0 0.1
-0.79 0 0.1
-0.78 0 0.1
-0.77 0 0.1
-0.76 0 0.1
-0.75 0 0.1
-0.74 0 0.1
-0.73 0 0.1
-0.72 0 0.1
-0.71 0 0.1
-0.7 0 0.1
-0.69 0 0.1
-0.68 0 0.1
-0.67 0 0.1
-0.66 0 0.1
-0.65 0 0.1
-0.64 0 0.1
-0.63 0 0.1
-0.62 0 0.1
-0.61 0 0.1
-0.6 0 0.1
-0.59 0 0.1
-0.58 0 0.1
-0.57 0 0.1
-0.56 0 0.1
-0.55 0 0.1
-0.54 0 0.1
-0.53 0 0.1
-0.52 0 0.1
-0.51 0 0.1
-0.5 0 0.1
-0.49 0 0.1
-0.48 0 0.1
-0.47 0 0.1
-0.46 0 0.1
-0.45 0 0.1
-0.44 0 0.1
-0.43 0 0.1
-0.42 0 0.1
-0.41 0 0.1
-0.4 0 0.1
-0.39 0 0.1
-0.38 0 0.1
-0.37 0 0.1
-0.36 0 0.1
-0.35 0 0.1
-0.34 0 0.1
-0.33 0 0.1
-0.32 0 0.1
-0.31 0 0.1
-0.3 0 0.1
-0.29 0 0.1
-0.28 0 0.1
-0.27 0 0.1
-0.26 0 0.1
-0.25 0 0.1
-0.24 0 0.1
-0.23 0 0.1
-0.22 0 0.1
-0.21 0 0.1
-0.2 0 0.1
-0.19 0 0.1
-0.18 0 0.1
-0.17 0 0.1
-0.16 0 0.1
-0.15 0 0.1
-0.14 0 0.1
-0.13 0 0.1
-0.12 0 0.1
-0.11 0 0.1
-0.1 0 0.1
-0.09 0 0.1
-0.08 0 0.1
-0.07 0 0.1
-0.06 0 0.1
-0.05 0 0.1
-0.04 0 0.1
-0.03 0 0.1
-0.02 0 0.1
-0.01 0 0.1
0.00921362 0.00379763 0.1
0.0184561 0.00752451 0.1
0.0277268 0.0111804 0.1
0.0370253 0.0147652 0.1
0.0463511 0.0182786 0.1
0.0557034 0.0217203 0.1
0.0650819 0.0250903 0.1
0.074486 0.0283883 0.1
0.083915 0.0316141 0.1
0.0933685 0.0347675 0.1
0.102846 0.0378484 0.1
0.112347 0.0408565 0.1
0.12187 0.0437917 0.1
0.131416 0.0466538 0.1
0.140983 0.0494427 0.1
0.150572 0.0521581 0.1
0.160181 0.0547999 0.1
0.16981 0.0573681 0.1
0.179458 0.0598623 0.1
0.189125 0.0622825 0.1
0.198811 0.0646285 0.1
0.208514 0.0669001 0.1
0.218234 0.0690974 0.1
0.227971 0.07122 0.1
0.237724 0.073268 0.1
0.247493 0.0752411 0.1
0.257276 0.0771393 0.1
0.267073 0.0789625 0.1
0.276884 0.0807105 0.1
0.286708 0.0823832 0.1
0.296545 0.0839806 0.1
0.306394 0.0855025 0.1
0.316254 0.0869488 0.1
0.326125 0.0883196 0.1
0.336006 0.0896146 0.1
0.345896 0.0908339 0.1
0.355796 0.0919773 0.1
0.365704 0.0930447 0.1
0.375621 0.0940362 0.1
0.385544 0.0949517 0.1
0.395474 0.095791 0.1
0.40541 0.0965542 0.1
0.415352 0.0972412 0.1
0.425299 0.097852 0.1
0.43525 0.0983865 0.1
0.445205 0.0988447 0.1
0.455164 0.0992266 0.1
0.465125 0.0995321 0.1
0.475088 0.0997613 0.1
0.485052 0.0999141 0.1
0.495017 0.0999904 0.1
0.504983 0.0999904 0.1
0.514948 0.0999141 0.1
0.524912 0.0997613 0.1
0.534875 0.0995321 0.1
0.544836 0.0992266 0.1
0.554795 0.0988447 0.1
0.56475 0.0983865 0.1
0.574701 0.097852 0.1
0.584648 0.0972412 0.1
0.59459 0.0965542 0.1
0.604526 0.095791 0.1
0.614456 0.0949517 0.1
0.624379 0.0940362 0.1
0.634296 0.0930447 0.1
0.644204 0.0919773 0.1
0.654104 0.0908339 0.1
0.663994 0.0896146 0.1
0.673875 0.0883196 0.1
0.683746 0.0869488 0.1
0.693606 0.0855025 0.1
0.703455 0.0839806 0.1
0.713292 0.0823832 0.1
0.723116 0.0807105 0.1
0.732927 0.0789625 0.1
0.742724 0.0771393 0.1
0.752508 0.0752411 0.1
0.762276 0.073268 0.1
0.772029 0.07122 0.1
0.781766 0.0690974 0.1
0.791486 0.0669001 0.1
0.801189 0.0646285 0.1
0.810875 0.0622825 0.1
0.820542 0.0598623 0.1
0.83019 0.0573681 0.1
0.839819 0.0547999 0.1
0.849428 0.0521581 0.1
0.859017 0.0494427 0.1
0.868584 0.0466538 0.1
0.87813 0.0437917 0.1
0.887653 0.0408565 0.1
0.897154 0.0378484 0.1
0.906631 0.0347675 0.1
0.916085 0.0316141 0.1
0.925514 0.0283883 0.1
0.934918 0.0250903 0.1
0.944297 0.0217203 0.1
0.953649 0.0182786 0.1
0.962975 0.0147652 0.1
0.972273 0.0111804 0.1
0.981544 0.00752451 0.1
0.990786 0.00379763 0.1
1.01 0 0.1
1.02 0 0.1
1.03 0 0.1
[...]
CELL_DATA 14313
SCALARS rho float
LOOKUP_TABLE default
0.781284
0.824159
0.805876
0.537383
0.766212
0.811706
0.812379
0.812264
0.810994
0.815105
0.811942
0.798861
0.796939
0.51703
0.81275
0.831827
0.808744
0.807698
0.809966
0.805332
0.810609
0.813907
0.812311
0.765951
0.811941
0.814608
0.742341
0.709815
0.823682
0.824275
0.811805
0.794462
0.799439
0.811912
0.804657
0.810563
0.679606
0.808882
0.811498
0.802334
0.752469
0.810278
0.541588
0.701889
0.817523
0.835665
0.810764
0.777377
0.804359
0.850898
0.675304
0.653119
0.588961
0.810475
0.819575
0.782625
0.817509
0.814662
0.810787
0.812219
0.811813
0.818304
0.794439
0.839154
0.810238
0.813198
0.852638
0.783859
0.840497
0.812741
0.798294
0.831389
0.486848
0.837143
0.725759
0.806855
0.824529
0.747028
0.696343
0.811281
0.591765
0.824628
0.833079
0.803464
0.805466
0.819187
0.811688
0.804441
0.826513
0.806982
0.779835
0.522297
0.807283
0.797835
0.725694
0.803826
0.814531
0.808818
0.803205
0.488468
0.806952
0.809527
0.812346
0.81416
0.748346
0.809276
0.802605
0.699461
0.834383
0.809882
0.813841
0.824785
0.811987
0.819218
0.804153
0.827324
0.819725
0.836155
0.778663
0.79867
0.811458
0.808873
0.859381
0.720583
0.843289
0.753299
0.789489
0.80444
0.814541
0.842801
0.80933
0.811839
0.860682
0.812136
0.823165
0.78259
0.806882
0.792216
0.817559
0.817214
0.812379
0.816655
0.803384
0.803427
0.796517
0.838969
0.805938
0.760632
0.795464
0.817241
0.797131
0.803527
0.812314
0.708881
0.821107
0.803714
0.723003
0.820993
0.811932
0.811842
0.818321
0.808696
0.646019
0.75742
0.823008
0.824316
0.713804
0.812535
0.827932
0.815348
0.688514
0.816206
0.712854
0.78784
0.808819
0.825998
0.808023
0.815382
0.820843
0.741435
0.811245
0.809398
0.773427
0.771853
0.790472
0.810946
0.812734
0.796968
0.496193
0.787169
0.757414
0.742616
0.770197
0.712962
0.812192
0.814827
0.807237
0.803377
0.806001
0.816711
0.760024
0.802874
0.828407
0.814754
0.833373
0.803339
0.816545
0.814209
0.811882
0.834521
0.803934
0.811113
0.795899
0.70082
0.81396
0.820579
0.809473
0.807106
0.834449
0.802843
0.802603
0.81919
0.805913
0.855274
0.809535
0.803096
0.817842
0.80246
0.812265
0.757161
0.635131
0.815036
0.697393
0.826778
0.80237
0.721094
0.811873
0.813931
0.81478
0.826171
0.791665
0.710546
0.747564
0.594758
0.814926
0.723718
0.799218
0.807081
0.837648
0.815007
0.5749
0.804028
0.728562
0.837261
0.80115
0.694575
0.811299
0.826966
0.814503
0.556697
0.813244
0.801095
0.798835
0.805957
0.788327
0.773811
0.815703
0.81552
0.529043
0.814537
0.813685
0.772101
0.802029
0.811921
0.780467
0.817187
0.782946
0.709004
0.802797
0.805813
0.567293
0.543249
0.756163
0.807875
0.820363
0.790047
0.811567
0.814728
0.776028
0.805925
0.803484
0.816603
0.829398
0.793084
0.808288
0.811466
0.631228
0.818849
0.699196
0.797184
0.793265
0.777554
0.835551
0.809314
0.796564
0.676152
0.667925
0.803551
0.805626
0.819608
0.804222
0.798315
0.651981
0.815037
0.822052
0.818085
0.811944
0.812795
0.799359
0.79089
0.814092
0.569474
0.807869
0.812133
0.814337
0.812505
0.765228
0.821468
0.801492
0.81413
0.812985
0.753865
0.752376
0.803401
0.803482
0.522749
0.812358
0.811867
0.807058
0.811735
0.803296
0.80094
0.727988
0.711855
0.814308
0.748309
0.757908
0.818387
0.837413
0.814112
0.802135
0.808482
0.812177
0.803446
0.816971
0.782483
0.816902
0.811764
0.810652
0.795064
0.810363
0.792085
0.811751
0.58957
0.799508
0.800354
0.811844
0.813421
0.767542
0.801594
0.812122
0.812344
0.817955
0.770207
0.818261
0.808304
0.752451
0.761686
0.812864
0.805738
0.82912
0.824664
0.823144
0.80426
0.593949
0.778939
0.600152
0.803374
0.802913
0.800715
0.814198
0.874002
0.52588
0.593276
0.838261
0.871962
0.811781
0.690068
0.801925
0.716014
0.806776
0.81568
0.706927
0.650776
0.751056
0.812851
0.475728
0.873533
0.824314
0.79843
0.808766
0.478605
0.739564
0.781678
0.817522
0.804602
0.80051
0.830177
0.812234
0.705446
0.684807
0.801535
0.806049
0.809219
0.811502
0.808782
0.811823
0.735468
0.791161
0.797176
0.802492
0.764003
0.817596
0.807868
0.812782
0.811539
0.755041
0.805597
0.804072
0.793184
0.812055
0.815639
0.806882
0.657112
0.787435
0.817445
0.812821
0.812196
0.807342
0.812633
0.804132
0.82111
0.821462
0.612651
0.855114
0.743979
0.820546
0.804893
0.747007
0.824458
0.800888
0.825404
0.548268
0.799414
0.679011
0.811901
0.809209
0.52166
0.799895
0.804621
0.797997
0.802071
0.800599
0.772201
0.811762
0.592292
0.805701
0.806081
0.799174
0.81826
0.764897
0.811897
0.809268
0.797819
0.816149
0.796438
0.802845
0.812255
0.634045
0.769229
0.733851
0.489982
0.824669
0.568026
0.802605
0.818753
0.85658
0.702837
0.739507
0.812052
0.806089
0.800873
0.793649
0.76585
0.81083
0.812321
0.797066
0.813039
0.816373
0.471589
0.812287
0.813186
0.806329
0.810015
0.604075
0.815121
0.82148
0.705393
0.788758
0.813094
0.801029
0.82811
0.831292
0.804076
0.742448
0.472855
0.813796
0.570922
0.798693
0.803322
0.774705
0.811925
0.750367
0.811222
0.806569
0.803355
0.485728
0.814193
0.827373
0.830522
0.814724
0.803472
0.803217
0.812316
0.758504
0.847296
0.83678
0.709086
0.798571
0.653304
0.778003
0.667442
0.81602
0.836031
0.798882
0.637604
0.765743
0.813598
0.824387
0.832545
0.813597
0.670042
0.537451
0.804552
0.815842
0.801278
0.815759
0.804685
0.771586
0.851062
0.815167
0.804038
0.816691
0.798998
0.744028
0.797935
0.811322
0.596439
0.689068
0.803307
0.810667
0.8048
0.574968
0.811512
0.604711
0.812325
0.767542
0.816841
0.816245
0.753535
0.806498
0.792349
0.805144
0.836808
0.837098
0.831273
0.804777
0.816065
0.579342
0.81236
0.856758
0.825051
0.829233
0.804193
0.820724
0.799278
0.839789
0.808742
0.814373
0.672434
0.630299
0.835696
0.813294
0.840644
0.715752
0.801173
0.763436
0.797151
0.809561
0.793102
0.806989
0.813009
0.82264
0.828059
0.830025
0.805407
0.750125
0.804053
0.729245
0.79314
0.821469
0.800891
0.815024
0.758192
0.805054
0.804308
0.846949
0.809019
0.803408
0.805975
0.834253
0.831314
0.803584
0.856277
0.795911
0.820009
0.661348
0.803159
0.800235
0.798761
0.831672
0.608699
0.806326
0.805547
0.658422
0.814506
0.82929
0.813776
0.80338
0.806024
0.802495
0.816013
0.798834
0.720579
0.513391
0.813325
0.805579
0.80177
0.804495
0.802953
0.803677
0.810655
0.798024
0.813652
0.583162
0.812747
0.809399
0.811814
0.84232
0.81365
0.834182
0.81133
0.797593
0.81272
0.68234
0.803723
0.850149
0.812753
0.793001
0.81412
0.633822
0.805448
0.566032
0.662014
0.673233
0.809546
0.815442
0.812426
0.497
0.694406
0.803464
0.830738
0.747292
0.831292
0.805155
0.80467
0.796671
0.693986
0.75121
0.547116
0.802752
0.811597
0.804237
0.820827
0.66979
0.619915
0.853918
0.80149
0.813968
0.728904
0.813481
0.526217
0.820779
0.703141
0.813775
0.817461
0.801656
0.802104
0.825122
0.794833
0.803596
0.803846
0.631232
0.806579
0.653014
0.798734
0.798164
0.813661
0.815319
0.729058
0.815339
0.755807
0.803151
0.721545
0.80494
0.745974
0.671425
0.824494
0.812333
0.799055
0.726284
0.81133
0.658325
0.810859
0.80291
0.728436
0.825814
0.8163
0.637261
0.69597
0.825741
0.803654
0.72554
0.833631
0.83469
0.836082
0.811688
0.548063
0.751007
0.820983
0.820268
0.520748
0.639935
0.815553
0.812393
0.721692
0.778363
0.81198
0.80702
0.757898
0.81212
0.813439
0.80357
0.728631
0.802229
0.79686
0.812033
0.576785
0.805555
0.821733
0.574152
0.81811
0.845271
0.811945
0.67654
0.811675
0.811559
0.811782
0.801157
0.818664
0.803237
0.806679
0.804851
0.803309
0.813452
0.484772
0.80984
0.809652
0.691715
0.603015
0.786071
0.798279
0.812022
0.753272
0.563659
0.811368
0.783454
0.811993
0.821451
0.81343
0.825046
0.748275
0.59011
0.811464
0.839025
0.811941
0.709555
0.803433
0.727245
0.813085
0.81102
0.811849
0.817303
0.801243
0.813008
0.808326
0.757549
0.816189
0.812569
0.751708
0.791882
0.71069
0.55814
0.733465
0.781512
0.815766
0.811255
0.810598
0.810525
0.803294
0.795334
0.808059
0.707494
0.753414
0.811522
0.803419
0.804821
0.818327
0.603996
0.813501
0.80389
0.84351
0.807787
0.636159
0.79367
0.803801
0.842438
0.690572
0.561684
0.576893
0.635145
0.817558
0.804489
0.560186
0.585171
0.819899
0.812123
0.889273
0.804799
0.829409
0.812366
0.769437
0.81074
0.812532
0.812013
0.810573
0.811945
0.797952
0.812117
0.640512
0.815668
0.803627
0.809585
0.756684
0.817101
0.610852
0.855364
0.803925
0.826961
0.81194
0.807993
0.748103
0.822198
0.811863
0.837172
0.811729
0.812456
0.641039
0.826718
0.810082
0.812321
0.836568
0.822515
0.553667
0.796397
0.802711
0.810867
0.816934
0.803934
0.800156
0.815149
0.765051
0.804897
0.815795
0.863431
0.831104
0.586589
0.796009
0.754048
0.813969
0.761457
0.819336
0.804828
0.80638
0.812173
0.78909
0.805564
0.815453
0.821805
0.787324
0.668223
0.733687
0.69768
0.814071
0.835825
0.837763
0.733403
0.808795
0.75394
0.609516
0.811967
0.799405
0.811728
0.803572
0.630674
0.802209
0.77647
0.736718
0.810696
0.744643
0.807537
0.816395
0.859709
0.809619
0.807078
0.739918
0.812427
0.775823
0.839345
0.883731
0.796955
0.520363
0.799615
0.607483
0.76924
0.65719
0.799148
0.494411
0.814933
0.849692
0.805922
0.81055
0.819646
0.802777
0.803251
0.696561
0.822877
0.81187
0.804145
0.806551
0.79242
0.803556
0.806767
0.628245
0.816467
0.801952
0.845118
0.80793
0.804358
0.801427
0.81291
0.813024
0.807487
0.80353
0.787484
0.812086
0.795237
0.801674
0.813196
0.771725
0.566939
0.812595
0.818091
0.803968
0.724688
0.801111
0.807654
0.80348
0.698114
0.872964
0.811541
0.81666
0.811969
0.847651
0.778122
0.812042
0.787579
0.815774
0.821977
0.663142
0.812079
0.728514
0.818982
0.71806
0.799408
0.751118
0.802457
0.569074
0.809137
0.735123
0.476115
0.820117
0.661739
0.769067
0.817159
0.812236
0.776492
0.811175
0.718572
0.638031
0.826108
0.69801
0.816635
0.767295
0.801587
0.807921
0.813191
0.652139
0.804303
0.774857
0.809511
0.811993
0.828924
0.806106
0.687437
0.755405
0.651233
0.79811
0.802949
0.811876
0.81534
0.811883
0.811451
0.809292
0.663356
0.731218
0.487289
0.696251
0.813812
0.808049
0.832913
0.809396
0.814619
0.710262
0.873907
0.815092
0.826128
0.57133
0.822813
0.812094
0.840628
0.845501
0.82651
0.82996
0.820111
0.540304
0.805722
0.814853
0.716131
0.816691
0.801243
0.812028
0.807926
0.812517
0.812584
0.767101
0.721359
0.797932
0.800282
0.571552
0.813935
0.85897
0.815232
0.658499
0.822421
0.813039
0.819459
0.835109
0.686651
0.486258
0.804839
0.839798
0.806056
0.803867
0.814131
0.801556
0.812407
0.809432
0.799896
0.804238
0.804677
0.812383
0.805549
0.806154
0.798517
0.836047
0.830622
0.853164
0.812807
0.807323
0.81438
0.812895
0.811982
0.810931
0.815501
0.83393
0.808594
0.811016
0.600496
0.830468
0.71117
0.868137
0.803614
0.833227
0.79898
0.786062
0.785654
0.740047
0.821095
0.810922
0.811439
0.813297
0.7758
0.807788
0.58416
0.806064
0.812905
0.813061
0.795665
0.81197
0.61098
0.783463
0.558147
0.820709
0.796838
0.774489
0.801837
0.81359
0.81234
0.812375
0.737958
0.808188
0.811827
0.810301
0.803643
0.80381
0.747311
0.767219
0.809223
0.803721
0.696122
0.597766
0.489562
0.840981
0.806058
0.778543
0.781181
0.824222
0.803569
0.803959
0.817955
0.779203
0.757
0.816073
0.807424
0.811092
0.837166
0.804819
0.811643
0.808244
0.483274
0.803437
0.811798
0.773675
0.819344
0.814125
0.825528
0.599217
0.71038
0.572849
0.828218
0.815529
0.743235
0.811817
0.676667
0.813664
0.810594
0.811796
0.803067
0.811818
0.576794
0.686269
0.806076
0.813214
0.793686
0.801227
0.830986
0.798642
0.802989
0.642775
0.807716
0.811858
0.804267
0.812169
0.802737
0.616834
0.814201
0.812285
0.572323
0.696936
0.793074
0.8281
0.69734
0.803992
0.793625
0.81204
0.756553
0.684868
0.810339
0.795888
0.799263
0.766322
0.540461
0.820176
0.673431
0.747602
0.731344
0.803966
0.797257
0.811359
0.659954
0.767532
0.803965
0.81491
0.592513
0.798851
0.825723
0.807128
0.538974
0.80559
0.783393
0.706956
0.70568
0.800391
0.81905
0.812918
0.808593
0.699324
0.73959
0.64136
0.832262
0.84285
0.816825
0.788145
0.865187
0.696661
0.813264
0.766711
0.790195
0.795514
0.811872
0.803981
0.811498
0.787075
0.755195
0.819678
0.796687
0.842081
0.71928
0.79138
0.805512
0.7232
0.803196
0.814405
0.575862
0.80194
0.79892
0.802791
0.821118
0.764225
0.800154
0.722564
0.812053
0.808822
0.725146
0.812054
0.816139
0.828593
0.805577
0.787077
0.7976
0.805605
0.726583
0.812368
0.801124
0.677459
0.806876
0.780251
0.831847
0.820836
0.818936
0.839253
0.848178
0.698951
0.813642
0.7955
0.787288
0.617453
0.816891
0.803599
0.812138
0.77611
0.853431
0.832757
0.781783
0.841956
0.779764
0.800631
0.771929
0.812129
0.72164
0.635717
0.844162
0.660879
0.792803
0.839687
0.81235
0.671069
0.809228
0.751854
0.803961
0.798996
0.781294
0.804152
0.801022
0.802789
0.801887
0.785593
0.811936
0.781386
0.816193
0.807457
0.712564
0.783816
0.815131
0.812372
0.805481
0.563934
0.82507
0.812792
0.811963
0.703275
0.80476
0.801079
0.801271
0.815828
0.746207
0.815911
0.800528
0.804543
0.755159
0.811398
0.812732
0.805883
0.768969
0.807871
0.812911
0.808038
0.815782
0.808285
0.80606
0.822876
0.804595
0.788717
0.806176
0.812105
0.818138
0.778693
0.703493
0.8137
0.812167
0.800712
0.742406
0.78879
0.654015
0.803389
0.540082
0.803165
0.814348
0.774872
0.834547
0.514981
0.809401
0.738403
0.810393
0.534126
0.80433
0.827783
0.813251
0.81867
0.734201
0.840892
0.553447
0.823496
0.702369
0.79952
0.477134
0.669806
0.812486
0.811971
0.741686
0.800943
0.820836
0.611978
0.821956
0.770916
0.833448
0.811976
0.814098
0.813069
0.803824
0.836761
0.810638
0.803754
0.475809
0.803105
0.84345
0.802217
0.801303
0.767557
0.805384
0.811917
0.812072
0.796557
0.734273
0.810368
0.815433
0.602935
0.804158
0.536217
0.815594
0.539365
0.811916
0.770355
0.682463
0.733501
0.783084
0.712981
0.841468
0.813693
0.796857
0.803967
0.70329
0.802553
0.789423
0.802438
0.814931
0.80168
0.731472
0.697786
0.800577
0.772258
0.518806
0.811133
0.663088
0.794092
0.705699
0.824997
0.809369
0.825004
0.810166
0.837136
0.807213
0.579782
0.829192
0.80697
0.801514
0.815372
0.811908
0.812532
0.814561
0.825082
0.816331
0.617963
0.804744
0.800654
0.81283
0.692135
0.802308
0.823208
0.756343
0.688525
0.807483
0.68822
0.731641
0.810014
0.812645
0.668488
0.841439
0.766911
0.805388
0.796404
0.809722
0.844459
0.801055
0.538629
0.814831
0.708369
0.51577
0.77818
0.758073
0.769499
0.812125
0.803515
0.81634
0.811938
0.585731
0.78749
0.831195
0.812022
0.591104
0.721416
0.63473
0.8166
0.810396
0.690887
0.803979
0.812102
0.799291
0.834171
0.605951
0.840302
0.740165
0.811895
0.812404
0.669017
0.81247
0.721022
0.791788
0.716558
0.81185
0.784407
0.633834
0.724124
0.712266
0.833109
0.809341
0.819269
0.821982
0.803342
0.808504
0.802783
0.817593
0.803249
0.686932
0.803427
0.60342
0.776677
0.807172
0.802282
0.812097
0.824214
0.803327
0.716819
0.710591
0.667128
0.790245
0.816688
0.749084
0.578999
0.751442
0.810178
0.801849
0.760163
0.80356
0.823113
0.753193
0.568703
0.701912
0.798582
0.812096
0.864267
0.814564
0.811698
0.851791
0.799537
0.801843
0.814345
0.812195
0.805307
0.71756
0.809139
0.695376
0.862205
0.778626
0.81337
0.573537
0.79646
0.529049
0.58315
0.584601
0.807868
0.803629
0.809223
0.758095
0.803552
0.5321
0.782179
0.802882
0.734488
0.814285
0.801597
0.815787
0.842857
0.50888
0.811997
0.802079
0.809528
0.816713
0.812816
0.812282
0.754092
0.797118
0.798782
0.80323
0.797537
0.810673
0.845258
0.818514
0.723637
0.804672
0.606552
0.813148
0.811992
0.586451
0.766815
0.766882
0.536152
0.784228
0.803636
0.878244
0.798332
0.81306
0.755152
0.794406
0.797011
0.80921
0.782657
0.541828
0.711394
0.680353
0.781028
0.814611
0.80288
0.821802
0.790218
0.801786
0.812741
0.798048
0.852125
0.704434
0.811807
0.780654
0.530791
0.515413
0.812854
0.803539
0.805436
0.560266
0.796977
0.803738
0.659055
0.813681
0.790578
0.806516
0.814769
0.532345
0.724595
0.718686
0.812406
0.831971
0.629823
0.789814
0.717153
0.813554
0.827224
0.77941
0.773115
0.53498
0.811479
0.802405
0.723606
0.851965
0.805811
0.722599
0.739812
0.763837
0.810752
0.563322
0.796691
0.737953
0.800321
0.821813
0.720297
0.799144
0.811719
0.716467
0.812997
0.705912
0.815946
0.798174
0.75967
0.689712
0.808873
0.799996
0.813325
0.669506
0.805367
0.804821
0.811545
0.699396
0.812099
0.808357
0.831724
0.647367
0.815453
0.740715
0.811888
0.805689
0.842172
0.80368
0.818881
0.749005
0.815145
0.838761
0.832786
0.816417
0.845547
0.752307
0.847698
0.825956
0.803813
0.82572
0.805595
0.646546
0.778039
0.813885
0.746765
0.695071
0.798424
0.804051
0.679579
0.797406
0.537827
0.848412
0.695929
0.706162
0.813528
0.774446
0.806865
0.798925
0.806928
0.803885
0.811985
0.835593
0.729924
0.77211
0.588098
0.809968
0.777008
0.810881
0.80511
0.56993
0.802902
0.802528
0.807455
0.798607
0.816696
0.808147
0.709946
0.823094
0.847866
0.68436
0.743577
0.812138
0.800897
0.712232
0.814256
0.754304
0.796777
0.802895
0.805356
0.837118
0.668646
0.723347
0.800797
0.701927
0.772631
0.832122
0.531866
0.69118
0.799578
0.804284
0.803362
0.741754
0.822347
0.806858
0.803659
0.808123
0.813263
0.696032
0.649056
0.809669
0.813766
0.799217
0.871407
0.802711
0.812324
0.799042
0.809926
0.811238
0.808357
0.652918
0.814737
0.816549
0.803435
0.801844
0.799355
0.617215
0.80968
0.81048
0.812388
0.862252
0.814394
0.801481
0.480434
0.836312
0.692432
0.826363
0.805751
0.813771
0.823979
0.809056
0.812037
0.730878
0.551239
0.491481
0.812299
0.808927
0.533939
0.795552
0.81446
0.833248
0.503868
0.809567
0.813401
0.802247
0.809072
0.530076
0.813086
0.808241
0.559833
0.812179
0.815231
0.538632
0.80874
0.812636
0.775815
0.806261
0.811154
0.809467
0.798974
0.82585
0.533699
0.830148
0.815795
0.804065
0.742044
0.786169
0.811326
0.809378
0.802087
0.815916
0.800701
0.656924
0.806137
0.577647
0.811932
0.659789
0.746269
0.796994
0.718238
0.803541
0.579634
0.849716
0.812174
0.812307
0.79924
0.8027
0.80318
0.813632
0.814335
0.670044
0.717597
0.726154
0.81475
0.721275
0.572738
0.817376
0.783693
0.827854
0.811665
0.809372
0.732463
0.535728
0.798714
0.790017
0.495993
0.81382
0.812979
0.735561
0.805902
0.768486
0.606915
0.809928
0.814637
0.788618
0.60972
0.802305
0.782953
0.826324
0.812947
0.810354
0.811889
0.812806
0.715804
0.800059
0.815713
0.694568
0.480339
0.732869
0.7988
0.730731
0.812984
0.798094
0.80552
0.782556
0.867313
0.803554
0.801667
0.825754
0.859313
0.804612
0.815674
0.794313
0.815883
0.789148
0.743976
0.811904
0.804258
0.816205
0.803247
0.790792
0.842777
0.766081
0.812704
0.773356
0.803713
0.642488
0.509265
0.800981
0.802159
0.809498
0.798146
0.799664
0.811893
0.772897
0.804606
0.811975
0.782183
0.816894
0.777164
0.593252
0.805041
0.760901
0.776187
0.750432
0.763664
0.793913
0.788567
0.823023
0.787505
0.809416
0.803367
0.765102
0.815495
0.542154
0.729475
0.81052
0.813977
0.811383
0.80231
0.812815
0.810512
0.805747
0.82114
0.809682
0.782939
0.816588
0.801675
0.790459
0.795886
0.805164
0.586052
0.803619
0.792164
0.574389
0.813173
0.80723
0.806043
0.810755
0.702293
0.7549
0.821092
0.774893
0.811382
0.816307
0.722286
0.804478
0.824088
0.720017
0.79942
0.809494
0.778558
0.804707
0.836945
0.801899
0.817306
0.77251
0.805335
0.800285
0.813056
0.802093
0.797875
0.588611
0.815198
0.786705
0.80663
0.825607
0.690999
0.828535
0.819955
0.505174
0.806375
0.804449
0.801453
0.812245
0.824229
0.824043
0.804906
0.805892
0.814147
0.813364
0.803519
0.812547
0.804719
0.749239
0.708139
0.780888
0.813643
0.81207
0.775847
0.757768
0.813919
0.824924
0.810514
0.812195
0.691382
0.500615
0.747782
0.817515
0.806704
0.816224
0.844181
0.799861
0.714806
0.654139
0.799641
0.80468
0.694156
0.812645
0.67106
0.836801
0.729201
0.812834
0.89525
0.815603
0.800794
0.777717
0.811093
0.681405
0.81418
0.808201
0.791506
0.805592
0.779412
0.800637
0.810026
0.780443
0.803574
0.852054
0.776992
0.80213
0.492731
0.803164
0.693865
0.804095
0.794444
0.788572
0.783602
0.722195
0.802078
0.788168
0.844445
0.813263
0.81242
0.811757
0.895507
0.746388
0.802731
0.730778
0.803156
0.798345
0.804493
0.716712
0.800912
0.805493
0.63894
0.808644
0.748557
0.53373
0.8465
0.847322
0.750003
0.810753
0.794665
0.772005
0.731695
0.775979
0.785471
0.736204
0.803847
0.80441
0.719408
0.815292
0.804974
0.556713
0.811968
0.821427
0.81323
0.803504
0.610642
0.714922
0.806268
0.859166
0.483582
0.724488
0.806449
0.815949
0.796431
0.71325
0.710608
0.809018
0.813212
0.81499
0.837067
0.745187
0.754359
0.875737
0.806858
0.809195
0.795162
0.637314
0.597205
0.585915
0.656938
0.586055
0.764174
0.800706
0.803372
0.812248
0.809116
0.811471
0.86015
0.71533
0.823852
0.813872
0.817072
0.816621
0.8138
0.812943
0.811555