# vtk DataFile Version 1.0
unstructured grid
ascii
DATASET UNSTRUCTURED_GRID
points 14760 float
-1 0 0
-1 1 0
2 0 0
2 1 0
0 0 0
1 0 0
-1 1 0.1
-1 0 0.1
0 0 0.1
1 0 0.1
2 0 0.1
2 1 0.1
-0.99 0 0
-0.98 0 0
-0.97 0 0
-0.96 0 0
-0.95 0 0
-0.94 0 0
-0.93 0 0
-0.92 0 0
-0.91 0 0
-0.9 0 0
-0.89 0 0
-0.88 0 0
-0.87 0 0
-0.86 0 0
-0.85 0 0
-0.84 0 0
-0.83 0 0
-0.82 0 0
-0.81 0 0
-0.8 0 0
-0.79 0 0
-0.78 0 0
-0.77 0 0
-0.76 0 0
-0.75 0 0
-0.74 0 0
-0.73 0 0
-0.72 0 0
-0.71 0 0
-0.7 0 0
-0.69 0 0
-0.68 0 0
-0.67 0 0
-0.66 0 0
-0.65 0 0
-0.64 0 0
-0.63 0 0
-0.62 0 0
-0.61 0 0
-0.6 0 0
-0.59 0 0
-0.58 0 0
-0.57 0 0
-0.56 0 0
-0.55 0 0
-0.54 0 0
-0.53 0 0
-0.52 0 0
-0.51 0 0
-0.5 0 0
-0.49 0 0
-0.48 0 0
-0.47 0 0
-0.46 0 0
-0.45 0 0
-0.44 0 0
-0.43 0 0
-0.42 0 0
-0.41 0 0
-0.4 0 0
-0.39 0 0
-0.38 0 0
-0.37 0 0
-0.36 0 0
-0.35 0 0
-0.34 0 0
-0.33 0 0
-0.32 0 0
-0.31 0 0
-0.3 0 0
-0.29 0 0
-0.28 0 0
-0.27 0 0
-0.26 0 0
-0.25 0 0
-0.24 0 0
-0.23 0 0
-0.22 0 0
-0.21 0 0
-0.2 0 0
-0.19 0 0
-0.18 0 0
-0.17 0 0
-0.16 0 0
-0.15 0 0
-0.14 0 0
-0.13 0 0
-0.12 0 0
-0.11 0 0
-0.1 0 0
-0.09 0 0
-0.08 0 0
-0.07 0 0
-0.06 0 0
-0.05 0 0
-0.04 0 0
-0.03 0 0
-0.02 0 0
-0.01 0 0
1.01 0 0
1.02 0 0
1.03 0 0
1.04 0 0
1.05 0 0
1.06 0 0
1.07 0 0
1.08 0 0
1.09 0 0
1.1 0 0
1.11 0 0
1.12 0 0
1.13 0 0
1.14 0 0
1.15 0 0
1.16 0 0
1.17 0 0
1.18 0 0
1.19 0 0
1.2 0 0
1.21 0 0
1.22 0 0
1.23 0 0
1.24 0 0
1.25 0 0
1.26 0 0
1.27 0 0
1.28 0 0
1.29 0 0
1.3 0 0
1.31 0 0
1.32 0 0
1.33 0 0
1.34 0 0
1.35 0 0
1.36 0 0
1.37 0 0
1.38 0 0
1.39 0 0
1.4 0 0
1.41 0 0
1.42 0 0
1.43 0 0
1.44 0 0
1.45 0 0
1.46 0 0
1.47 0 0
1.48 0 0
1.49 0 0
1.5 0 0
1.51 0 0
1.52 0 0
1.53 0 0
1.54 0 0
1.55 0 0
1.56 0 0
1.57 0 0
1.58 0 0
1.59 0 0
1.6 0 0
1.61 0 0
1.62 0 0
1.63 0 0
1.64 0 0
1.65 0 0
1.66 0 0
1.67 0 0
1.68 0 0
1.69 0 0
1.7 0 0
1.71 0 0
1.72 0 0
1.73 0 0
1.74 0 0
1.75 0 0
1.76 0 0
1.77 0 0
1.78 0 0
1.79 0 0
1.8 0 0
1.81 0 0
1.82 0 0
1.83 0 0
1.84 0 0
1.85 0 0
1.86 0 0
1.87 0 0
1.88 0 0
1.89 0 0
1.9 0 0
1.91 0 0
1.92 0 0
1.93 0 0
1.94 0 0
1.95 0 0
1.96 0 0
1.97 0 0
1.98 0 0
1.99 0 0
2 0.0100088 0
2 0.0204183 0
2 0.0312446 0
2 0.0425043 0
2 0.0542147 0
2 0.066394 0
2 0.079061 0
2 0.092235 0
2 0.105936 0
2 0.120186 0
2 0.135007 0
2 0.150421 0
2 0.166452 0
2 0.183124 0
2 0.200465 0
2 0.218499 0
2 0.237256 0
2 0.256763 0
2 0.277051 0
2 0.298152 0
2 0.320097 0
2 0.342921 0
2 0.366659 0
2 0.391347 0
2 0.417024 0
2 0.443728 0
2 0.471502 0
2 0.500387 0
2 0.530429 0
2 0.561674 0
2 0.594169 0
2 0.627966 0
2 0.663115 0
2 0.699672 0
2 0.737692 0
2 0.777235 0
2 0.818361 0
2 0.861133 0
2 0.905617 0
2 0.951882 0
1.95 1 0
1.9 1 0
1.85 1 0
1.8 1 0
1.75 1 0
1.7 1 0
1.65 1 0
1.6 1 0
1.55 1 0
1.5 1 0
1.45 1 0
1.4 1 0
1.35 1 0
1.3 1 0
1.25 1 0
1.2 1 0
1.15 1 0
1.1 1 0
1.05 1 0
1 1 0
0.95 1 0
0.9 1 0
0.85 1 0
0.8 1 0
0.75 1 0
0.7 1 0
0.65 1 0
0.6 1 0
0.55 1 0
0.5 1 0
0.45 1 0
0.4 1 0
0.35 1 0
0.3 1 0
0.25 1 0
0.2 1 0
0.15 1 0
0.1 1 0
0.05 1 0
3.69793e-12 1 0
-0.05 1 0
-0.1 1 0
-0.15 1 0
-0.2 1 0
-0.25 1 0
-0.3 1 0
-0.35 1 0
-0.4 1 0
-0.45 1 0
-0.5 1 0
-0.55 1 0
-0.6 1 0
-0.65 1 0
-0.7 1 0
-0.75 1 0
-0.8 1 0
-0.85 1 0
-0.9 1 0
-0.95 1 0
-1 0.951882 0
-1 0.905617 0
-1 0.861133 0
-1 0.818361 0
-1 0.777235 0
-1 0.737692 0
-1 0.699672 0
-1 0.663115 0
-1 0.627966 0
-1 0.594169 0
-1 0.561674 0
-1 0.530429 0
-1 0.500387 0
-1 0.471502 0
-1 0.443728 0
-1 0.417024 0
-1 0.391347 0
-1 0.366659 0
-1 0.342921 0
-1 0.320097 0
-1 0.298152 0
-1 0.277051 0
-1 0.256763 0
-1 0.237256 0
-1 0.218499 0
-1 0.200465 0
-1 0.183124 0
-1 0.166452 0
-1 0.150421 0
-1 0.135007 0
-1 0.120186 0
-1 0.105936 0
-1 0.092235 0
-1 0.079061 0
-1 0.066394 0
-1 0.0542147 0
-1 0.0425043 0
-1 0.0312446 0
-1 0.0204183 0
-1 0.0100088 0
0.00921362 0.00379763 0
0.0184561 0.00752451 0
0.0277268 0.0111804 0
0.0370253 0.0147652 0
0.0463511 0.0182786 0
0.0557034 0.0217203 0
0.0650819 0.0250903 0
0.074486 0.0283883 0
0.083915 0.0316141 0
0.0933685 0.0347675 0
0.102846 0.0378484 0
0.112347 0.0408565 0
0.12187 0.0437917 0
0.131416 0.0466538 0
0.140983 0.0494427 0
0.150572 0.0521581 0
0.160181 0.0547999 0
0.16981 0.0573681 0
0.179458 0.0598623 0
0.189125 0.0622825 0
0.198811 0.0646285 0
0.208514 0.0669001 0
0.218234 0.0690974 0
0.227971 0.07122 0
0.237724 0.073268 0
0.247493 0.0752411 0
0.257276 0.0771393 0
0.267073 0.0789625 0
0.276884 0.0807105 0
0.286708 0.0823832 0
0.296545 0.0839806 0
0.306394 0.0855025 0
0.316254 0.0869488 0
0.326125 0.0883196 0
0.336006 0.0896146 0
0.345896 0.0908339 0
0.355796 0.0919773 0
0.365704 0.0930447 0
0.375621 0.0940362 0
0.385544 0.0949517 0
0.395474 0.095791 0
0.40541 0.0965542 0
0.415352 0.0972412 0
0.425299 0.097852 0
0.43525 0.0983865 0
0.445205 0.0988447 0
0.455164 0.0992266 0
0.465125 0.0995321 0
0.475088 0.0997613 0
0.485052 0.0999141 0
0.495017 0.0999904 0
0.504983 0.0999904 0
0.514948 0.0999141 0
0.524912 0.0997613 0
0.534875 0.0995321 0
0.544836 0.0992266 0
0.554795 0.0988447 0
0.56475 0.0983865 0
0.574701 0.097852 0
0.584648 0.0972412 0
0.59459 0.0965542 0
0.604526 0.095791 0
0.614456 0.0949517 0
0.624379 0.0940362 0
0.634296 0.0930447 0
0.644204 0.0919773 0
0.654104 0.0908339 0
0.663994 0.0896146 0
0.673875 0.0883196 0
0.683746 0.0869488 0
0.693606 0.0855025 0
0.703455 0.0839806 0
0.713292 0.0823832 0
0.723116 0.0807105 0
0.732927 0.0789625 0
0.742724 0.0771393 0
0.752508 0.0752411 0
0.762276 0.073268 0
0.772029 0.07122 0
0.781766 0.0690974 0
0.791486 0.0669001 0
0.801189 0.0646285 0
0.810875 0.0622825 0
0.820542 0.0598623 0
0.83019 0.0573681 0
0.839819 0.0547999 0
0.849428 0.0521581 0
0.859017 0.0494427 0
0.868584 0.0466538 0
0.87813 0.0437917 0
0.887653 0.0408565 0
0.897154 0.0378484 0
0.906631 0.0347675 0
0.916085 0.0316141 0
0.925514 0.0283883 0
0.934918 0.0250903 0
0.944297 0.0217203 0
0.953649 0.0182786 0
0.962975 0.0147652 0
0.972273 0.0111804 0
0.981544 0.00752451 0
0.990786 0.00379763 0
-1 0.951882 0.1
-1 0.905617 0.1
-1 0.861133 0.1
-1 0.818361 0.1
-1 0.777235 0.1
-1 0.737692 0.1
-1 0.699672 0.1
-1 0.663115 0.1
-1 0.627966 0.1
-1 0.594169 0.1
-1 0.561674 0.1
-1 0.530429 0.1
-1 0.500387 0.1
-1 0.471502 0.1
-1 0.443728 0.1
-1 0.417024 0.1
-1 0.391347 0.1
-1 0.366659 0.1
-1 0.342921 0.1
-1 0.320097 0.1
-1 0.298152 0.1
-1 0.277051 0.1
-1 0.256763 0.1
-1 0.237256 0.1
-1 0.218499 0.1
-1 0.200465 0.1
-1 0.183124 0.1
-1 0.166452 0.1
-1 0.150421 0.1
-1 0.135007 0.1
-1 0.120186 0.1
-1 0.105936 0.1
-1 0.092235 0.1
-1 0.079061 0.1
-1 0.066394 0.1
-1 0.0542147 0.1
-1 0.0425043 0.1
-1 0.0312446 0.1
-1 0.0204183 0.1
-1 0.0100088 0.1
-0.99 0 0.1
-0.98 0 0.1
-0.97 0 0.1
-0.96 0 0.1
-0.95 0 0.1
-0.94 0 0.1
-0.93 0 0.1
-0.92 0 0.1
-0.91 0 0.1
-0.9 0 0.1
-0.89 0 0.1
-0.88 0 0.1
-0.87 0 0.1
-0.86 0 0.1
-0.85 0 0.1
-0.84 0 0.1
-0.83 0 0.1
-0.82 0 0.1
-0.81 0 0.1
-0.8 0 0.1
-0.79 0 0.1
-0.78 0 0.1
-0.77 0 0.1
-0.76 0 0.1
-0.75 0 0.1
-0.74 0 0.1
-0.73 0 0.1
-0.72 0 0.1
-0.71 0 0.1
-0.7 0 0.1
-0.69 0 0.1
-0.68 0 0.1
-0.67 0 0.1
-0.66 0 0.1
-0.65 0 0.1
-0.64 0 0.1
-0.63 0 0.1
-0.62 0 0.1
-0.61 0 0.1
-0.6 0 0.1
-0.59 0 0.1
-0.58 0 0.1
-0.57 0 0.1
-0.56 0 0.1
-0.55 0 0.1
-0.54 0 0.1
-0.53 0 0.1
-0.52 0 0.1
-0.51 0 0.1
-0.5 0 0.1
-0.49 0 0.1
-0.48 0 0.1
-0.47 0 0.1
-0.46 0 0.1
-0.45 0 0.1
-0.44 0 0.1
-0.43 0 0.1
-0.42 0 0.1
-0.41 0 0.1
-0.4 0 0.1
-0.39 0 0.1
-0.38 0 0.1
-0.37 0 0.1
-0.36 0 0.1
-0.35 0 0.1
-0.34 0 0.1
-0.33 0 0.1
-0.32 0 0.1
-0.31 0 0.1
-0.3 0 0.1
-0.29 0 0.1
-0.28 0 0.1
-0.27 0 0.1
-0.26 0 0.1
-0.25 0 0.1
-0.24 0 0.1
-0.23 0 0.1
-0.22 0 0.1
-0.21 0 0.1
-0.2 0 0.1
-0.19 0 0.1
-0.18 0 0.1
-0.17 0 0.1
-0.16 0 0.1
-0.15 0 0.1
-0.14 0 0.1
-0.13 0 0.1
-0.12 0 0.1
-0.11 0 0.1
-0.1 0 0.1
-0.09 0 0.1
-0.08 0 0.1
-0.07 0 0.1
-0.06 0 0.1
-0.05 0 0.1
-0.04 0 0.1
-0.03 0 0.1
-0.02 0 0.1
-0.01 0 0.1
0.00921362 0.00379763 0.1
0.0184561 0.00752451 0.1
0.0277268 0.0111804 0.1
0.0370253 0.0147652 0.1
0.0463511 0.0182786 0.1
0.0557034 0.0217203 0.1
0.0650819 0.0250903 0.1
0.074486 0.0283883 0.1
0.083915 0.0316141 0.1
0.0933685 0.0347675 0.1
0.102846 0.0378484 0.1
0.112347 0.0408565 0.1
0.12187 0.0437917 0.1
0.131416 0.0466538 0.1
0.140983 0.0494427 0.1
0.150572 0.0521581 0.1
0.160181 0.0547999 0.1
0.16981 0.0573681 0.1
0.179458 0.0598623 0.1
0.189125 0.0622825 0.1
0.198811 0.0646285 0.1
0.208514 0.0669001 0.1
0.218234 0.0690974 0.1
0.227971 0.07122 0.1
0.237724 0.073268 0.1
0.247493 0.0752411 0.1
0.257276 0.0771393 0.1
0.267073 0.0789625 0.1
0.276884 0.0807105 0.1
0.286708 0.0823832 0.1
0.296545 0.0839806 0.1
0.306394 0.0855025 0.1
0.316254 0.0869488 0.1
0.326125 0.0883196 0.1
0.336006 0.0896146 0.1
0.345896 0.0908339 0.1
0.355796 0.0919773 0.1
0.365704 0.0930447 0.1
0.375621 0.0940362 0.1
0.385544 0.0949517 0.1
0.395474 0.095791 0.1
0.40541 0.0965542 0.1
0.415352 0.0972412 0.1
0.425299 0.097852 0.1
0.43525 0.0983865 0.1
0.445205 0.0988447 0.1
0.455164 0.0992266 0.1
0.465125 0.0995321 0.1
0.475088 0.0997613 0.1
0.485052 0.0999141 0.1
0.495017 0.0999904 0.1
0.504983 0.0999904 0.1
0.514948 0.0999141 0.1
0.524912 0.0997613 0.1
0.534875 0.0995321 0.1
0.544836 0.0992266 0.1
0.554795 0.0988447 0.1
0.56475 0.0983865 0.1
0.574701 0.097852 0.1
0.584648 0.0972412 0.1
0.59459 0.0965542 0.1
0.604526 0.095791 0.1
0.614456 0.0949517 0.1
0.624379 0.0940362 0.1
0.634296 0.0930447 0.1
0.644204 0.0919773 0.1
0.654104 0.0908339 0.1
0.663994 0.0896146 0.1
0.673875 0.0883196 0.1
0.683746 0.0869488 0.1
0.693606 0.0855025 0.1
0.703455 0.0839806 0.1
0.713292 0.0823832 0.1
0.723116 0.0807105 0.1
0.732927 0.0789625 0.1
0.742724 0.0771393 0.1
0.752508 0.0752411 0.1
0.762276 0.073268 0.1
0.772029 0.07122 0.1
0.781766 0.0690974 0.1
0.791486 0.0669001 0.1
0.801189 0.0646285 0.1
0.810875 0.0622825 0.1
0.820542 0.0598623 0.1
0.83019 0.0573681 0.1
0.839819 0.0547999 0.1
0.849428 0.0521581 0.1
0.859017 0.0494427 0.1
0.868584 0.0466538 0.1
0.87813 0.0437917 0.1
0.887653 0.0408565 0.1
0.897154 0.0378484 0.1
0.906631 0.0347675 0.1
0.916085 0.0316141 0.1
0.925514 0.0283883 0.1
0.934918 0.0250903 0.1
0.944297 0.0217203 0.1
0.953649 0.0182786 0.1
0.962975 0.0147652 0.1
0.972273 0.0111804 0.1
0.981544 0.00752451 0.1
0.990786 0.00379763 0.1
1.01 0 0.1
1.02 0 0.1
1.03 0 0.1
[...]
CELL_DATA 14313
SCALARS rho float
LOOKUP_TABLE default
0.781338
0.824198
0.805894
0.53759
0.766299
0.811783
0.81245
0.812336
0.811009
0.815133
0.812019
0.798876
0.797017
0.517428
0.812818
0.83187
0.808772
0.807714
0.810033
0.805351
0.810686
0.813933
0.812382
0.766039
0.812011
0.814636
0.742404
0.709717
0.823719
0.824321
0.811879
0.794479
0.799519
0.811982
0.804675
0.810629
0.679736
0.808908
0.811568
0.802363
0.752538
0.810354
0.541792
0.702004
0.817579
0.835696
0.810832
0.777414
0.804407
0.851
0.675435
0.653222
0.589291
0.810541
0.819627
0.782659
0.817565
0.814689
0.810802
0.812288
0.811889
0.818359
0.794457
0.839184
0.810314
0.813264
0.852745
0.783892
0.840534
0.81281
0.79831
0.831433
0.487242
0.83718
0.725939
0.806914
0.824597
0.74709
0.696425
0.811356
0.591896
0.824673
0.833111
0.803474
0.805525
0.819241
0.811765
0.804459
0.826547
0.806998
0.779873
0.522694
0.807309
0.797912
0.725875
0.803833
0.814593
0.808891
0.803229
0.488854
0.807004
0.809598
0.812417
0.814201
0.748416
0.809298
0.802636
0.699541
0.834423
0.809948
0.813857
0.824833
0.812049
0.819272
0.804165
0.827369
0.819776
0.836193
0.778703
0.798744
0.811527
0.808946
0.859405
0.720759
0.843372
0.75339
0.789547
0.804458
0.814603
0.842885
0.809399
0.811913
0.860705
0.812208
0.823215
0.782625
0.80695
0.79224
0.817615
0.817271
0.81245
0.816709
0.803387
0.803433
0.796539
0.839007
0.805949
0.760685
0.795511
0.817298
0.797211
0.803535
0.812385
0.708988
0.821154
0.803721
0.723075
0.821046
0.812002
0.811866
0.818376
0.808719
0.646682
0.75748
0.823059
0.824381
0.713955
0.812601
0.827977
0.815413
0.688637
0.816224
0.71294
0.787899
0.808881
0.826067
0.808087
0.815422
0.820896
0.741552
0.811319
0.809467
0.773481
0.771841
0.790497
0.811018
0.812802
0.796989
0.496497
0.787219
0.757496
0.742731
0.770225
0.713206
0.812261
0.814886
0.807264
0.803387
0.806065
0.816769
0.760089
0.802901
0.828452
0.814816
0.833414
0.803345
0.816564
0.814227
0.811953
0.834554
0.803994
0.811163
0.795946
0.7009
0.814023
0.820659
0.809544
0.807165
0.834488
0.80289
0.802629
0.819216
0.805977
0.855304
0.809583
0.80312
0.817899
0.802476
0.812336
0.757226
0.635744
0.81506
0.697475
0.826824
0.802388
0.72127
0.811938
0.813993
0.814838
0.826239
0.791688
0.710388
0.747663
0.595126
0.814987
0.723788
0.799297
0.807102
0.837685
0.815072
0.575075
0.804042
0.728669
0.837301
0.80121
0.694693
0.811349
0.827011
0.814566
0.556966
0.81326
0.801154
0.798895
0.806011
0.788377
0.773865
0.815723
0.815538
0.529391
0.814599
0.813748
0.772142
0.802045
0.811998
0.7805
0.81724
0.783014
0.709136
0.802817
0.805824
0.567477
0.543447
0.756247
0.807939
0.820417
0.790072
0.811645
0.81479
0.776064
0.805948
0.803495
0.816661
0.829443
0.79314
0.808301
0.811534
0.631585
0.818886
0.69951
0.797264
0.793284
0.777583
0.835589
0.809335
0.796644
0.676317
0.668101
0.8036
0.805686
0.819634
0.804232
0.798394
0.652085
0.815097
0.822088
0.818109
0.81202
0.812859
0.799438
0.790935
0.814156
0.570469
0.807936
0.812205
0.8144
0.812572
0.765296
0.821515
0.801522
0.814193
0.813048
0.75388
0.752459
0.803404
0.803485
0.532634
0.812429
0.811929
0.807117
0.8118
0.803335
0.800951
0.728093
0.711941
0.81437
0.748369
0.757991
0.818464
0.837453
0.814175
0.802196
0.808494
0.812249
0.803457
0.817029
0.782551
0.81696
0.811786
0.810722
0.795111
0.810429
0.792142
0.811826
0.589701
0.799564
0.800408
0.81191
0.813459
0.767604
0.80161
0.812195
0.812415
0.818011
0.770237
0.818287
0.808353
0.752551
0.76171
0.812881
0.805797
0.829166
0.824713
0.823181
0.804315
0.594309
0.779003
0.600372
0.803386
0.802932
0.800776
0.81426
0.874024
0.526113
0.593527
0.838298
0.871984
0.811844
0.690151
0.801997
0.716242
0.806833
0.815735
0.707002
0.650891
0.751132
0.812916
0.47635
0.873555
0.824363
0.79849
0.808789
0.479008
0.739701
0.781731
0.817579
0.804661
0.800575
0.830221
0.812306
0.705579
0.684947
0.801564
0.806075
0.809295
0.811578
0.8088
0.811899
0.735565
0.791184
0.797193
0.802518
0.76407
0.817653
0.807886
0.81285
0.811614
0.755139
0.805607
0.804079
0.793243
0.812129
0.815691
0.806937
0.657266
0.787464
0.817491
0.812837
0.812255
0.807363
0.812698
0.80421
0.821157
0.82151
0.616364
0.855144
0.744041
0.820599
0.804947
0.746956
0.824493
0.800897
0.825452
0.548459
0.799494
0.679153
0.811977
0.809231
0.522022
0.79995
0.804639
0.798013
0.802091
0.80066
0.77226
0.811838
0.592539
0.805727
0.806102
0.799235
0.818314
0.764959
0.811973
0.80934
0.797898
0.816208
0.796518
0.802859
0.812327
0.634156
0.769289
0.733952
0.490305
0.824718
0.568221
0.802619
0.818808
0.856609
0.703096
0.739644
0.812126
0.80611
0.800933
0.793708
0.765928
0.810898
0.812392
0.797119
0.813106
0.816417
0.472204
0.812356
0.813252
0.806341
0.810092
0.604291
0.815178
0.821531
0.705669
0.788785
0.813161
0.801039
0.828197
0.831325
0.804084
0.742448
0.473261
0.813859
0.571089
0.79877
0.803327
0.774698
0.812002
0.750442
0.811296
0.806589
0.803359
0.486058
0.814255
0.827419
0.830566
0.814765
0.803481
0.803224
0.812385
0.758528
0.847329
0.836878
0.709336
0.798645
0.653409
0.778041
0.667561
0.816072
0.83613
0.798962
0.637847
0.765822
0.813662
0.824435
0.832582
0.813638
0.670475
0.537676
0.804612
0.8159
0.801337
0.815825
0.804732
0.771626
0.851162
0.815225
0.804045
0.816747
0.799012
0.744016
0.798015
0.811384
0.596606
0.689152
0.80332
0.810743
0.804812
0.575121
0.811582
0.604835
0.812396
0.76759
0.816888
0.816302
0.753534
0.806555
0.792402
0.805153
0.836886
0.837197
0.831306
0.804786
0.816124
0.579546
0.812431
0.856787
0.825086
0.829278
0.804205
0.820776
0.799337
0.83982
0.808766
0.814394
0.672666
0.63065
0.835736
0.81336
0.840673
0.715907
0.801233
0.763488
0.797228
0.809586
0.793155
0.807048
0.813076
0.822691
0.828103
0.83007
0.805419
0.750137
0.80411
0.729429
0.793203
0.821515
0.800937
0.81505
0.758265
0.805067
0.804367
0.846981
0.80908
0.80341
0.80603
0.834294
0.831352
0.80359
0.856307
0.795963
0.820061
0.661701
0.803166
0.800248
0.79884
0.831715
0.608819
0.806338
0.805558
0.658577
0.814569
0.829334
0.81384
0.803384
0.80605
0.802508
0.816071
0.798913
0.720445
0.51364
0.813391
0.805639
0.801811
0.804524
0.803
0.803688
0.810724
0.798104
0.813717
0.583316
0.812812
0.809413
0.811885
0.842353
0.813714
0.83423
0.811405
0.797671
0.812789
0.682425
0.803734
0.850259
0.812821
0.79302
0.814183
0.633938
0.805475
0.566632
0.662418
0.673467
0.809559
0.815501
0.812442
0.497301
0.694489
0.803472
0.830782
0.747355
0.831384
0.805164
0.804748
0.796732
0.694686
0.751301
0.54738
0.802774
0.811674
0.804297
0.820867
0.669883
0.623193
0.854024
0.801548
0.814031
0.729089
0.813547
0.526449
0.820831
0.703331
0.813839
0.817515
0.801684
0.80214
0.82517
0.794878
0.803608
0.803903
0.631351
0.806598
0.653222
0.79881
0.798244
0.813726
0.81534
0.729131
0.815396
0.755774
0.803161
0.721353
0.804999
0.745927
0.671517
0.824543
0.812404
0.799135
0.726394
0.811383
0.658436
0.810922
0.802924
0.728311
0.825862
0.816357
0.637597
0.696053
0.825789
0.803659
0.725649
0.833677
0.834731
0.836123
0.811764
0.548257
0.751068
0.821019
0.82032
0.521354
0.640044
0.815607
0.812464
0.721895
0.778399
0.812056
0.807074
0.757982
0.812189
0.813505
0.803574
0.728801
0.802242
0.79692
0.812092
0.576979
0.805566
0.821784
0.574304
0.818163
0.845375
0.812021
0.676628
0.811751
0.811629
0.811857
0.801165
0.81872
0.803254
0.806692
0.80486
0.803314
0.813516
0.485495
0.809897
0.809698
0.691986
0.603255
0.786101
0.798358
0.812096
0.753269
0.564656
0.811441
0.783516
0.812068
0.821502
0.813496
0.825094
0.748336
0.590448
0.811541
0.83908
0.812017
0.709314
0.803487
0.727324
0.81315
0.811083
0.811926
0.817359
0.801258
0.813075
0.808348
0.757542
0.816244
0.812638
0.751785
0.791905
0.710865
0.558743
0.733588
0.781574
0.815821
0.811329
0.81066
0.810589
0.803299
0.79539
0.808071
0.707256
0.7534
0.811597
0.80343
0.804833
0.818353
0.604239
0.813566
0.803897
0.843542
0.807855
0.636399
0.793692
0.803818
0.842467
0.690841
0.561937
0.577056
0.635257
0.817612
0.804508
0.560461
0.585543
0.819953
0.812196
0.889288
0.804809
0.829443
0.812437
0.769436
0.81081
0.8126
0.812088
0.810643
0.812022
0.798026
0.812179
0.641198
0.815726
0.803633
0.809643
0.756657
0.817158
0.610962
0.855473
0.803932
0.827004
0.812017
0.808006
0.748061
0.822282
0.811928
0.837225
0.811805
0.812522
0.641328
0.826761
0.810159
0.812391
0.836599
0.822566
0.553855
0.796477
0.802775
0.810945
0.816959
0.803942
0.800203
0.815211
0.765114
0.804956
0.815855
0.863453
0.831147
0.586912
0.796064
0.754112
0.814033
0.761522
0.819389
0.804842
0.806393
0.812244
0.789136
0.805617
0.815474
0.821842
0.787351
0.668659
0.733826
0.697988
0.814131
0.835919
0.837843
0.733541
0.808857
0.753925
0.609723
0.812042
0.799465
0.811805
0.803578
0.630949
0.802224
0.776512
0.736692
0.810772
0.744623
0.807596
0.81645
0.859737
0.809638
0.807096
0.739981
0.812497
0.775873
0.83938
0.883748
0.797035
0.520598
0.799685
0.607686
0.769297
0.657293
0.799163
0.494793
0.814994
0.849802
0.805934
0.810627
0.819699
0.802855
0.803254
0.69668
0.82296
0.811942
0.804154
0.80661
0.792443
0.803563
0.80682
0.628519
0.816525
0.802014
0.845222
0.807995
0.804377
0.801486
0.812973
0.813087
0.80755
0.803535
0.787539
0.812159
0.795282
0.801747
0.813262
0.771792
0.567122
0.812664
0.818147
0.803988
0.724524
0.80119
0.807708
0.803483
0.698361
0.873108
0.811618
0.816714
0.812045
0.847744
0.778174
0.812116
0.787632
0.81583
0.822029
0.663245
0.812152
0.728593
0.819008
0.718291
0.799488
0.751208
0.802513
0.577941
0.809209
0.735032
0.476495
0.820158
0.661843
0.769067
0.817215
0.812308
0.776548
0.811249
0.7188
0.63814
0.826154
0.698622
0.816694
0.767367
0.801616
0.807933
0.813257
0.652244
0.804323
0.77485
0.809587
0.812057
0.829012
0.806119
0.687558
0.755463
0.651439
0.79819
0.803027
0.811952
0.815396
0.811905
0.811527
0.809368
0.663474
0.731291
0.488205
0.696482
0.813877
0.808108
0.832956
0.809418
0.814681
0.710006
0.874052
0.815153
0.826175
0.571547
0.822863
0.812167
0.840665
0.845532
0.826545
0.830031
0.820165
0.54053
0.805736
0.814907
0.715951
0.816748
0.801321
0.812102
0.807948
0.812585
0.81265
0.767184
0.721186
0.79801
0.800329
0.571766
0.813999
0.858999
0.815292
0.658919
0.822486
0.813105
0.819514
0.835203
0.687894
0.486605
0.80485
0.839833
0.806067
0.803905
0.814194
0.801571
0.812423
0.809504
0.799948
0.804248
0.804687
0.812453
0.80556
0.806171
0.798596
0.836099
0.830665
0.853195
0.812876
0.807386
0.814442
0.812963
0.812057
0.811002
0.815557
0.833961
0.808607
0.811086
0.600917
0.830511
0.710612
0.86816
0.803624
0.833259
0.79906
0.786092
0.785713
0.740012
0.821158
0.810942
0.811517
0.813363
0.775842
0.807855
0.584314
0.806077
0.812973
0.813127
0.795687
0.812043
0.611094
0.783496
0.558319
0.820757
0.796917
0.77454
0.80191
0.813654
0.812411
0.812445
0.737878
0.808252
0.811902
0.810364
0.803653
0.80382
0.747274
0.767302
0.809277
0.803729
0.696435
0.597934
0.489877
0.841015
0.806069
0.778595
0.781214
0.824253
0.803576
0.803966
0.818011
0.77924
0.756993
0.816132
0.807483
0.811146
0.837196
0.804837
0.811719
0.808257
0.483614
0.803446
0.811873
0.773731
0.819396
0.814188
0.825576
0.599626
0.710309
0.573066
0.828251
0.815586
0.743317
0.811837
0.676773
0.813743
0.810637
0.811873
0.803113
0.811841
0.576951
0.686409
0.80613
0.813281
0.793702
0.801288
0.831022
0.798721
0.803016
0.643067
0.807771
0.811935
0.804288
0.81224
0.802741
0.617021
0.814281
0.812356
0.572496
0.697255
0.793138
0.828169
0.697571
0.804002
0.793648
0.812114
0.756558
0.684964
0.810415
0.795907
0.799332
0.766357
0.540716
0.820225
0.673537
0.7477
0.731286
0.803973
0.797334
0.811434
0.660153
0.76758
0.803976
0.814972
0.592645
0.798931
0.825754
0.807185
0.53925
0.805602
0.783425
0.70723
0.705959
0.800404
0.819105
0.812986
0.808656
0.699633
0.739656
0.641475
0.832305
0.842879
0.816879
0.78817
0.865209
0.69691
0.81333
0.766767
0.79024
0.795535
0.811949
0.803989
0.811573
0.787088
0.755273
0.819732
0.796767
0.842117
0.719353
0.791393
0.805524
0.72327
0.803242
0.814467
0.576018
0.80195
0.798999
0.802795
0.821171
0.764286
0.800175
0.722644
0.812127
0.808835
0.725228
0.812128
0.816196
0.828639
0.805594
0.787124
0.797677
0.805633
0.726488
0.812439
0.801199
0.677614
0.806903
0.780288
0.831884
0.820875
0.818989
0.839292
0.848271
0.699208
0.813706
0.795545
0.787315
0.617565
0.816937
0.803661
0.812211
0.776175
0.853458
0.832792
0.781815
0.842056
0.779795
0.80064
0.77198
0.812202
0.721721
0.635832
0.844194
0.661051
0.792818
0.839716
0.812421
0.671212
0.809241
0.751914
0.803979
0.79901
0.78136
0.804161
0.801096
0.802802
0.8019
0.785623
0.812009
0.781437
0.816252
0.807476
0.712739
0.783864
0.815156
0.812443
0.805494
0.564101
0.825109
0.812852
0.812033
0.703563
0.804779
0.801114
0.801339
0.815888
0.746214
0.815971
0.800585
0.80459
0.75525
0.811472
0.812748
0.805929
0.769022
0.80793
0.812973
0.80805
0.815826
0.80834
0.80607
0.822926
0.804604
0.788765
0.80624
0.812178
0.818163
0.778764
0.703579
0.813764
0.812186
0.800791
0.7425
0.788816
0.654119
0.803393
0.540309
0.803173
0.814411
0.774911
0.834587
0.515471
0.809468
0.73847
0.810468
0.534344
0.804377
0.827852
0.813316
0.818725
0.734324
0.84093
0.553723
0.823536
0.70259
0.799599
0.477839
0.669909
0.812554
0.812047
0.741778
0.801022
0.820872
0.612092
0.821996
0.770905
0.833491
0.812052
0.814149
0.813135
0.803831
0.836845
0.810682
0.803765
0.476261
0.803115
0.843485
0.802247
0.801365
0.767606
0.805439
0.811991
0.812146
0.796637
0.734339
0.810431
0.815493
0.603056
0.804172
0.537302
0.815655
0.539714
0.811991
0.770419
0.682586
0.733443
0.783092
0.713104
0.841568
0.813721
0.796902
0.803981
0.703376
0.802562
0.789471
0.802456
0.814976
0.801737
0.731364
0.698088
0.800641
0.772306
0.519036
0.811207
0.663442
0.794115
0.705501
0.825038
0.809441
0.825052
0.810209
0.837192
0.807291
0.580128
0.829243
0.807049
0.801579
0.815433
0.811983
0.812598
0.81458
0.825129
0.81639
0.618151
0.804754
0.800662
0.812898
0.69222
0.802319
0.823272
0.756403
0.688617
0.807529
0.688488
0.731717
0.810067
0.812713
0.668591
0.841473
0.766972
0.805397
0.796484
0.809797
0.844493
0.801072
0.53898
0.814892
0.708048
0.529531
0.778179
0.758168
0.769558
0.812198
0.803518
0.816388
0.812015
0.585869
0.787503
0.831275
0.812096
0.591275
0.721627
0.635032
0.816659
0.810465
0.690971
0.80399
0.812172
0.799366
0.834246
0.606208
0.84034
0.740147
0.811965
0.812474
0.669386
0.812536
0.720879
0.791833
0.716394
0.811903
0.784474
0.633989
0.724206
0.71244
0.833145
0.809413
0.819324
0.822033
0.803347
0.808523
0.802847
0.817639
0.803262
0.687214
0.803446
0.603543
0.776741
0.807183
0.802338
0.81217
0.824263
0.803329
0.717032
0.710288
0.66727
0.790309
0.816731
0.749033
0.579874
0.751517
0.810255
0.80186
0.760222
0.803609
0.823149
0.753252
0.568861
0.70214
0.798652
0.812169
0.864293
0.814629
0.811773
0.851819
0.799608
0.801858
0.814408
0.812266
0.805367
0.717679
0.809154
0.695543
0.862232
0.778696
0.813436
0.574595
0.796541
0.529266
0.583289
0.585346
0.807931
0.803634
0.809285
0.75819
0.803557
0.53236
0.782249
0.802953
0.73461
0.814345
0.801675
0.815846
0.84289
0.515741
0.812053
0.802086
0.809602
0.816736
0.812884
0.812354
0.754175
0.797197
0.798801
0.803236
0.797612
0.810737
0.845347
0.81857
0.723754
0.804686
0.608139
0.813214
0.812067
0.586648
0.766874
0.76694
0.53642
0.784296
0.803644
0.878264
0.79841
0.81312
0.755243
0.794427
0.79709
0.809257
0.782691
0.542059
0.710893
0.680456
0.781065
0.814666
0.8029
0.82183
0.790243
0.801846
0.81281
0.798127
0.852154
0.704718
0.811882
0.780691
0.531049
0.516278
0.812922
0.803548
0.805449
0.560459
0.796991
0.803746
0.659157
0.813745
0.790641
0.806595
0.814829
0.534097
0.724475
0.718876
0.812474
0.832044
0.630022
0.789839
0.716963
0.813618
0.827266
0.779447
0.773183
0.535305
0.811546
0.80241
0.723677
0.85207
0.805821
0.722805
0.739881
0.763905
0.810828
0.563483
0.796706
0.737955
0.800331
0.821877
0.720106
0.799222
0.811776
0.716541
0.813017
0.706005
0.816005
0.798251
0.759651
0.690041
0.80893
0.800009
0.813391
0.669609
0.805377
0.804884
0.811619
0.69949
0.812172
0.808416
0.83176
0.651204
0.815513
0.740784
0.811962
0.805749
0.842209
0.803689
0.818936
0.749052
0.815206
0.838799
0.832828
0.816462
0.845636
0.752309
0.847804
0.826042
0.803868
0.825755
0.805621
0.646652
0.7781
0.813949
0.746844
0.69525
0.798504
0.804111
0.680271
0.797486
0.538052
0.848497
0.696249
0.706256
0.813592
0.774493
0.806911
0.798941
0.806973
0.803893
0.812053
0.835669
0.730089
0.772169
0.5883
0.810044
0.777033
0.81092
0.80512
0.570095
0.802911
0.802533
0.807522
0.798676
0.816753
0.80816
0.709725
0.823143
0.847971
0.684462
0.74366
0.812209
0.800975
0.712437
0.814304
0.754388
0.796797
0.802911
0.805373
0.837157
0.668767
0.723208
0.800806
0.702045
0.772656
0.832161
0.532086
0.691319
0.799588
0.804293
0.803367
0.741741
0.822397
0.80692
0.803666
0.808138
0.813329
0.696114
0.649333
0.809683
0.813831
0.79928
0.871548
0.802751
0.812395
0.799053
0.809986
0.811307
0.808379
0.653142
0.814755
0.816607
0.803443
0.801923
0.799424
0.617338
0.809741
0.81055
0.812458
0.862381
0.814455
0.801498
0.480832
0.83636
0.692792
0.82641
0.805805
0.813797
0.824063
0.809132
0.812107
0.731038
0.551436
0.491919
0.812369
0.808994
0.534224
0.795574
0.814521
0.833301
0.504191
0.809591
0.813464
0.802294
0.809096
0.530425
0.813152
0.808256
0.560022
0.81225
0.815292
0.538885
0.808803
0.812702
0.775854
0.806307
0.811194
0.809544
0.799039
0.825896
0.533919
0.83021
0.815815
0.804073
0.742135
0.786217
0.811399
0.809405
0.802164
0.815968
0.80071
0.657299
0.806202
0.586024
0.812008
0.659901
0.746358
0.797007
0.718321
0.803545
0.579779
0.849747
0.812246
0.812374
0.799315
0.802722
0.803183
0.813655
0.814398
0.670147
0.717801
0.726312
0.814812
0.721477
0.576008
0.817422
0.783746
0.827896
0.811728
0.809393
0.732539
0.536047
0.798732
0.790077
0.496369
0.813883
0.813047
0.735626
0.805926
0.768542
0.607177
0.809988
0.814663
0.788674
0.609852
0.802319
0.782986
0.826371
0.813015
0.810431
0.811905
0.812874
0.715594
0.800104
0.815773
0.694916
0.480718
0.733025
0.798814
0.730861
0.813051
0.798173
0.805536
0.782589
0.867337
0.803556
0.80168
0.825799
0.859341
0.804622
0.815726
0.794375
0.815942
0.789176
0.74404
0.811925
0.804268
0.816261
0.803253
0.790853
0.842814
0.766117
0.812772
0.773408
0.803752
0.642595
0.509546
0.800996
0.802177
0.809573
0.798161
0.79971
0.81197
0.772928
0.804653
0.812051
0.782234
0.816942
0.777167
0.593444
0.805055
0.760903
0.776231
0.750508
0.763671
0.793935
0.788593
0.823051
0.787531
0.80943
0.803369
0.76517
0.815556
0.542387
0.729601
0.810587
0.814037
0.811454
0.802367
0.812878
0.810553
0.805762
0.821192
0.809696
0.782973
0.816644
0.801733
0.790519
0.795907
0.805175
0.586213
0.803632
0.792188
0.57461
0.813213
0.807244
0.806053
0.810769
0.702412
0.754863
0.821144
0.774901
0.811401
0.816365
0.722115
0.804488
0.824136
0.720119
0.799441
0.809561
0.778602
0.804761
0.837013
0.801919
0.817363
0.772563
0.805344
0.800339
0.813121
0.802158
0.797949
0.588816
0.815259
0.78677
0.806642
0.825655
0.691326
0.828581
0.819994
0.50549
0.806422
0.804459
0.801531
0.812311
0.82427
0.824091
0.804917
0.805951
0.81421
0.813387
0.803525
0.812611
0.804766
0.749288
0.708384
0.780945
0.813708
0.81213
0.7759
0.757827
0.813937
0.824963
0.810536
0.812266
0.691745
0.500924
0.747773
0.817572
0.806757
0.816282
0.844211
0.799925
0.715005
0.654365
0.799719
0.804735
0.694334
0.812714
0.671349
0.836837
0.729282
0.812895
0.895263
0.815621
0.800854
0.777778
0.811116
0.681622
0.814204
0.808264
0.791531
0.80565
0.779419
0.800698
0.81004
0.780514
0.80358
0.852084
0.777019
0.802137
0.493166
0.803203
0.693949
0.804103
0.794462
0.788587
0.783654
0.722266
0.802137
0.788223
0.84448
0.81333
0.81249
0.81183
0.895521
0.746478
0.802744
0.730942
0.80316
0.798422
0.804523
0.716842
0.800972
0.805512
0.639281
0.808702
0.748627
0.534732
0.846534
0.847356
0.750087
0.810775
0.794688
0.772068
0.731843
0.776024
0.785509
0.736272
0.80386
0.804446
0.719598
0.815353
0.804986
0.557005
0.812043
0.821482
0.813283
0.803512
0.610775
0.715132
0.806283
0.859194
0.484018
0.724605
0.806489
0.815973
0.796483
0.713181
0.710855
0.809032
0.813279
0.815051
0.837106
0.745168
0.754444
0.875758
0.806885
0.80927
0.795184
0.637798
0.598082
0.586112
0.657124
0.58644
0.764261
0.800766
0.803411
0.812314
0.809159
0.811486
0.860177
0.71557
0.8239
0.813936
0.817129
0.816679
0.813864
0.813011