# vtk DataFile Version 1.0
unstructured grid
ascii
DATASET UNSTRUCTURED_GRID
points 14760 float
-1 0 0
-1 1 0
2 0 0
2 1 0
0 0 0
1 0 0
-1 1 0.1
-1 0 0.1
0 0 0.1
1 0 0.1
2 0 0.1
2 1 0.1
-0.99 0 0
-0.98 0 0
-0.97 0 0
-0.96 0 0
-0.95 0 0
-0.94 0 0
-0.93 0 0
-0.92 0 0
-0.91 0 0
-0.9 0 0
-0.89 0 0
-0.88 0 0
-0.87 0 0
-0.86 0 0
-0.85 0 0
-0.84 0 0
-0.83 0 0
-0.82 0 0
-0.81 0 0
-0.8 0 0
-0.79 0 0
-0.78 0 0
-0.77 0 0
-0.76 0 0
-0.75 0 0
-0.74 0 0
-0.73 0 0
-0.72 0 0
-0.71 0 0
-0.7 0 0
-0.69 0 0
-0.68 0 0
-0.67 0 0
-0.66 0 0
-0.65 0 0
-0.64 0 0
-0.63 0 0
-0.62 0 0
-0.61 0 0
-0.6 0 0
-0.59 0 0
-0.58 0 0
-0.57 0 0
-0.56 0 0
-0.55 0 0
-0.54 0 0
-0.53 0 0
-0.52 0 0
-0.51 0 0
-0.5 0 0
-0.49 0 0
-0.48 0 0
-0.47 0 0
-0.46 0 0
-0.45 0 0
-0.44 0 0
-0.43 0 0
-0.42 0 0
-0.41 0 0
-0.4 0 0
-0.39 0 0
-0.38 0 0
-0.37 0 0
-0.36 0 0
-0.35 0 0
-0.34 0 0
-0.33 0 0
-0.32 0 0
-0.31 0 0
-0.3 0 0
-0.29 0 0
-0.28 0 0
-0.27 0 0
-0.26 0 0
-0.25 0 0
-0.24 0 0
-0.23 0 0
-0.22 0 0
-0.21 0 0
-0.2 0 0
-0.19 0 0
-0.18 0 0
-0.17 0 0
-0.16 0 0
-0.15 0 0
-0.14 0 0
-0.13 0 0
-0.12 0 0
-0.11 0 0
-0.1 0 0
-0.09 0 0
-0.08 0 0
-0.07 0 0
-0.06 0 0
-0.05 0 0
-0.04 0 0
-0.03 0 0
-0.02 0 0
-0.01 0 0
1.01 0 0
1.02 0 0
1.03 0 0
1.04 0 0
1.05 0 0
1.06 0 0
1.07 0 0
1.08 0 0
1.09 0 0
1.1 0 0
1.11 0 0
1.12 0 0
1.13 0 0
1.14 0 0
1.15 0 0
1.16 0 0
1.17 0 0
1.18 0 0
1.19 0 0
1.2 0 0
1.21 0 0
1.22 0 0
1.23 0 0
1.24 0 0
1.25 0 0
1.26 0 0
1.27 0 0
1.28 0 0
1.29 0 0
1.3 0 0
1.31 0 0
1.32 0 0
1.33 0 0
1.34 0 0
1.35 0 0
1.36 0 0
1.37 0 0
1.38 0 0
1.39 0 0
1.4 0 0
1.41 0 0
1.42 0 0
1.43 0 0
1.44 0 0
1.45 0 0
1.46 0 0
1.47 0 0
1.48 0 0
1.49 0 0
1.5 0 0
1.51 0 0
1.52 0 0
1.53 0 0
1.54 0 0
1.55 0 0
1.56 0 0
1.57 0 0
1.58 0 0
1.59 0 0
1.6 0 0
1.61 0 0
1.62 0 0
1.63 0 0
1.64 0 0
1.65 0 0
1.66 0 0
1.67 0 0
1.68 0 0
1.69 0 0
1.7 0 0
1.71 0 0
1.72 0 0
1.73 0 0
1.74 0 0
1.75 0 0
1.76 0 0
1.77 0 0
1.78 0 0
1.79 0 0
1.8 0 0
1.81 0 0
1.82 0 0
1.83 0 0
1.84 0 0
1.85 0 0
1.86 0 0
1.87 0 0
1.88 0 0
1.89 0 0
1.9 0 0
1.91 0 0
1.92 0 0
1.93 0 0
1.94 0 0
1.95 0 0
1.96 0 0
1.97 0 0
1.98 0 0
1.99 0 0
2 0.0100088 0
2 0.0204183 0
2 0.0312446 0
2 0.0425043 0
2 0.0542147 0
2 0.066394 0
2 0.079061 0
2 0.092235 0
2 0.105936 0
2 0.120186 0
2 0.135007 0
2 0.150421 0
2 0.166452 0
2 0.183124 0
2 0.200465 0
2 0.218499 0
2 0.237256 0
2 0.256763 0
2 0.277051 0
2 0.298152 0
2 0.320097 0
2 0.342921 0
2 0.366659 0
2 0.391347 0
2 0.417024 0
2 0.443728 0
2 0.471502 0
2 0.500387 0
2 0.530429 0
2 0.561674 0
2 0.594169 0
2 0.627966 0
2 0.663115 0
2 0.699672 0
2 0.737692 0
2 0.777235 0
2 0.818361 0
2 0.861133 0
2 0.905617 0
2 0.951882 0
1.95 1 0
1.9 1 0
1.85 1 0
1.8 1 0
1.75 1 0
1.7 1 0
1.65 1 0
1.6 1 0
1.55 1 0
1.5 1 0
1.45 1 0
1.4 1 0
1.35 1 0
1.3 1 0
1.25 1 0
1.2 1 0
1.15 1 0
1.1 1 0
1.05 1 0
1 1 0
0.95 1 0
0.9 1 0
0.85 1 0
0.8 1 0
0.75 1 0
0.7 1 0
0.65 1 0
0.6 1 0
0.55 1 0
0.5 1 0
0.45 1 0
0.4 1 0
0.35 1 0
0.3 1 0
0.25 1 0
0.2 1 0
0.15 1 0
0.1 1 0
0.05 1 0
3.69793e-12 1 0
-0.05 1 0
-0.1 1 0
-0.15 1 0
-0.2 1 0
-0.25 1 0
-0.3 1 0
-0.35 1 0
-0.4 1 0
-0.45 1 0
-0.5 1 0
-0.55 1 0
-0.6 1 0
-0.65 1 0
-0.7 1 0
-0.75 1 0
-0.8 1 0
-0.85 1 0
-0.9 1 0
-0.95 1 0
-1 0.951882 0
-1 0.905617 0
-1 0.861133 0
-1 0.818361 0
-1 0.777235 0
-1 0.737692 0
-1 0.699672 0
-1 0.663115 0
-1 0.627966 0
-1 0.594169 0
-1 0.561674 0
-1 0.530429 0
-1 0.500387 0
-1 0.471502 0
-1 0.443728 0
-1 0.417024 0
-1 0.391347 0
-1 0.366659 0
-1 0.342921 0
-1 0.320097 0
-1 0.298152 0
-1 0.277051 0
-1 0.256763 0
-1 0.237256 0
-1 0.218499 0
-1 0.200465 0
-1 0.183124 0
-1 0.166452 0
-1 0.150421 0
-1 0.135007 0
-1 0.120186 0
-1 0.105936 0
-1 0.092235 0
-1 0.079061 0
-1 0.066394 0
-1 0.0542147 0
-1 0.0425043 0
-1 0.0312446 0
-1 0.0204183 0
-1 0.0100088 0
0.00921362 0.00379763 0
0.0184561 0.00752451 0
0.0277268 0.0111804 0
0.0370253 0.0147652 0
0.0463511 0.0182786 0
0.0557034 0.0217203 0
0.0650819 0.0250903 0
0.074486 0.0283883 0
0.083915 0.0316141 0
0.0933685 0.0347675 0
0.102846 0.0378484 0
0.112347 0.0408565 0
0.12187 0.0437917 0
0.131416 0.0466538 0
0.140983 0.0494427 0
0.150572 0.0521581 0
0.160181 0.0547999 0
0.16981 0.0573681 0
0.179458 0.0598623 0
0.189125 0.0622825 0
0.198811 0.0646285 0
0.208514 0.0669001 0
0.218234 0.0690974 0
0.227971 0.07122 0
0.237724 0.073268 0
0.247493 0.0752411 0
0.257276 0.0771393 0
0.267073 0.0789625 0
0.276884 0.0807105 0
0.286708 0.0823832 0
0.296545 0.0839806 0
0.306394 0.0855025 0
0.316254 0.0869488 0
0.326125 0.0883196 0
0.336006 0.0896146 0
0.345896 0.0908339 0
0.355796 0.0919773 0
0.365704 0.0930447 0
0.375621 0.0940362 0
0.385544 0.0949517 0
0.395474 0.095791 0
0.40541 0.0965542 0
0.415352 0.0972412 0
0.425299 0.097852 0
0.43525 0.0983865 0
0.445205 0.0988447 0
0.455164 0.0992266 0
0.465125 0.0995321 0
0.475088 0.0997613 0
0.485052 0.0999141 0
0.495017 0.0999904 0
0.504983 0.0999904 0
0.514948 0.0999141 0
0.524912 0.0997613 0
0.534875 0.0995321 0
0.544836 0.0992266 0
0.554795 0.0988447 0
0.56475 0.0983865 0
0.574701 0.097852 0
0.584648 0.0972412 0
0.59459 0.0965542 0
0.604526 0.095791 0
0.614456 0.0949517 0
0.624379 0.0940362 0
0.634296 0.0930447 0
0.644204 0.0919773 0
0.654104 0.0908339 0
0.663994 0.0896146 0
0.673875 0.0883196 0
0.683746 0.0869488 0
0.693606 0.0855025 0
0.703455 0.0839806 0
0.713292 0.0823832 0
0.723116 0.0807105 0
0.732927 0.0789625 0
0.742724 0.0771393 0
0.752508 0.0752411 0
0.762276 0.073268 0
0.772029 0.07122 0
0.781766 0.0690974 0
0.791486 0.0669001 0
0.801189 0.0646285 0
0.810875 0.0622825 0
0.820542 0.0598623 0
0.83019 0.0573681 0
0.839819 0.0547999 0
0.849428 0.0521581 0
0.859017 0.0494427 0
0.868584 0.0466538 0
0.87813 0.0437917 0
0.887653 0.0408565 0
0.897154 0.0378484 0
0.906631 0.0347675 0
0.916085 0.0316141 0
0.925514 0.0283883 0
0.934918 0.0250903 0
0.944297 0.0217203 0
0.953649 0.0182786 0
0.962975 0.0147652 0
0.972273 0.0111804 0
0.981544 0.00752451 0
0.990786 0.00379763 0
-1 0.951882 0.1
-1 0.905617 0.1
-1 0.861133 0.1
-1 0.818361 0.1
-1 0.777235 0.1
-1 0.737692 0.1
-1 0.699672 0.1
-1 0.663115 0.1
-1 0.627966 0.1
-1 0.594169 0.1
-1 0.561674 0.1
-1 0.530429 0.1
-1 0.500387 0.1
-1 0.471502 0.1
-1 0.443728 0.1
-1 0.417024 0.1
-1 0.391347 0.1
-1 0.366659 0.1
-1 0.342921 0.1
-1 0.320097 0.1
-1 0.298152 0.1
-1 0.277051 0.1
-1 0.256763 0.1
-1 0.237256 0.1
-1 0.218499 0.1
-1 0.200465 0.1
-1 0.183124 0.1
-1 0.166452 0.1
-1 0.150421 0.1
-1 0.135007 0.1
-1 0.120186 0.1
-1 0.105936 0.1
-1 0.092235 0.1
-1 0.079061 0.1
-1 0.066394 0.1
-1 0.0542147 0.1
-1 0.0425043 0.1
-1 0.0312446 0.1
-1 0.0204183 0.1
-1 0.0100088 0.1
-0.99 0 0.1
-0.98 0 0.1
-0.97 0 0.1
-0.96 0 0.1
-0.95 0 0.1
-0.94 0 0.1
-0.93 0 0.1
-0.92 0 0.1
-0.91 0 0.1
-0.9 0 0.1
-0.89 0 0.1
-0.88 0 0.1
-0.87 0 0.1
-0.86 0 0.1
-0.85 0 0.1
-0.84 0 0.1
-0.83 0 0.1
-0.82 0 0.1
-0.81 0 0.1
-0.8 0 0.1
-0.79 0 0.1
-0.78 0 0.1
-0.77 0 0.1
-0.76 0 0.1
-0.75 0 0.1
-0.74 0 0.1
-0.73 0 0.1
-0.72 0 0.1
-0.71 0 0.1
-0.7 0 0.1
-0.69 0 0.1
-0.68 0 0.1
-0.67 0 0.1
-0.66 0 0.1
-0.65 0 0.1
-0.64 0 0.1
-0.63 0 0.1
-0.62 0 0.1
-0.61 0 0.1
-0.6 0 0.1
-0.59 0 0.1
-0.58 0 0.1
-0.57 0 0.1
-0.56 0 0.1
-0.55 0 0.1
-0.54 0 0.1
-0.53 0 0.1
-0.52 0 0.1
-0.51 0 0.1
-0.5 0 0.1
-0.49 0 0.1
-0.48 0 0.1
-0.47 0 0.1
-0.46 0 0.1
-0.45 0 0.1
-0.44 0 0.1
-0.43 0 0.1
-0.42 0 0.1
-0.41 0 0.1
-0.4 0 0.1
-0.39 0 0.1
-0.38 0 0.1
-0.37 0 0.1
-0.36 0 0.1
-0.35 0 0.1
-0.34 0 0.1
-0.33 0 0.1
-0.32 0 0.1
-0.31 0 0.1
-0.3 0 0.1
-0.29 0 0.1
-0.28 0 0.1
-0.27 0 0.1
-0.26 0 0.1
-0.25 0 0.1
-0.24 0 0.1
-0.23 0 0.1
-0.22 0 0.1
-0.21 0 0.1
-0.2 0 0.1
-0.19 0 0.1
-0.18 0 0.1
-0.17 0 0.1
-0.16 0 0.1
-0.15 0 0.1
-0.14 0 0.1
-0.13 0 0.1
-0.12 0 0.1
-0.11 0 0.1
-0.1 0 0.1
-0.09 0 0.1
-0.08 0 0.1
-0.07 0 0.1
-0.06 0 0.1
-0.05 0 0.1
-0.04 0 0.1
-0.03 0 0.1
-0.02 0 0.1
-0.01 0 0.1
0.00921362 0.00379763 0.1
0.0184561 0.00752451 0.1
0.0277268 0.0111804 0.1
0.0370253 0.0147652 0.1
0.0463511 0.0182786 0.1
0.0557034 0.0217203 0.1
0.0650819 0.0250903 0.1
0.074486 0.0283883 0.1
0.083915 0.0316141 0.1
0.0933685 0.0347675 0.1
0.102846 0.0378484 0.1
0.112347 0.0408565 0.1
0.12187 0.0437917 0.1
0.131416 0.0466538 0.1
0.140983 0.0494427 0.1
0.150572 0.0521581 0.1
0.160181 0.0547999 0.1
0.16981 0.0573681 0.1
0.179458 0.0598623 0.1
0.189125 0.0622825 0.1
0.198811 0.0646285 0.1
0.208514 0.0669001 0.1
0.218234 0.0690974 0.1
0.227971 0.07122 0.1
0.237724 0.073268 0.1
0.247493 0.0752411 0.1
0.257276 0.0771393 0.1
0.267073 0.0789625 0.1
0.276884 0.0807105 0.1
0.286708 0.0823832 0.1
0.296545 0.0839806 0.1
0.306394 0.0855025 0.1
0.316254 0.0869488 0.1
0.326125 0.0883196 0.1
0.336006 0.0896146 0.1
0.345896 0.0908339 0.1
0.355796 0.0919773 0.1
0.365704 0.0930447 0.1
0.375621 0.0940362 0.1
0.385544 0.0949517 0.1
0.395474 0.095791 0.1
0.40541 0.0965542 0.1
0.415352 0.0972412 0.1
0.425299 0.097852 0.1
0.43525 0.0983865 0.1
0.445205 0.0988447 0.1
0.455164 0.0992266 0.1
0.465125 0.0995321 0.1
0.475088 0.0997613 0.1
0.485052 0.0999141 0.1
0.495017 0.0999904 0.1
0.504983 0.0999904 0.1
0.514948 0.0999141 0.1
0.524912 0.0997613 0.1
0.534875 0.0995321 0.1
0.544836 0.0992266 0.1
0.554795 0.0988447 0.1
0.56475 0.0983865 0.1
0.574701 0.097852 0.1
0.584648 0.0972412 0.1
0.59459 0.0965542 0.1
0.604526 0.095791 0.1
0.614456 0.0949517 0.1
0.624379 0.0940362 0.1
0.634296 0.0930447 0.1
0.644204 0.0919773 0.1
0.654104 0.0908339 0.1
0.663994 0.0896146 0.1
0.673875 0.0883196 0.1
0.683746 0.0869488 0.1
0.693606 0.0855025 0.1
0.703455 0.0839806 0.1
0.713292 0.0823832 0.1
0.723116 0.0807105 0.1
0.732927 0.0789625 0.1
0.742724 0.0771393 0.1
0.752508 0.0752411 0.1
0.762276 0.073268 0.1
0.772029 0.07122 0.1
0.781766 0.0690974 0.1
0.791486 0.0669001 0.1
0.801189 0.0646285 0.1
0.810875 0.0622825 0.1
0.820542 0.0598623 0.1
0.83019 0.0573681 0.1
0.839819 0.0547999 0.1
0.849428 0.0521581 0.1
0.859017 0.0494427 0.1
0.868584 0.0466538 0.1
0.87813 0.0437917 0.1
0.887653 0.0408565 0.1
0.897154 0.0378484 0.1
0.906631 0.0347675 0.1
0.916085 0.0316141 0.1
0.925514 0.0283883 0.1
0.934918 0.0250903 0.1
0.944297 0.0217203 0.1
0.953649 0.0182786 0.1
0.962975 0.0147652 0.1
0.972273 0.0111804 0.1
0.981544 0.00752451 0.1
0.990786 0.00379763 0.1
1.01 0 0.1
1.02 0 0.1
1.03 0 0.1
[...]
CELL_DATA 14313
SCALARS rho float
LOOKUP_TABLE default
0.807271
0.821418
0.804582
0.641903
0.799989
0.853679
0.85112
0.851528
0.809846
0.813737
0.853849
0.800094
0.801598
0.683093
0.850111
0.853897
0.80931
0.806447
0.846405
0.804151
0.852361
0.810687
0.851311
0.799887
0.850173
0.813342
0.774585
0.711997
0.820955
0.84788
0.852413
0.796957
0.804745
0.850164
0.806511
0.846579
0.735279
0.809361
0.849937
0.804971
0.7851
0.851851
0.644448
0.75046
0.847418
0.85105
0.848293
0.782947
0.828177
0.847554
0.732159
0.705463
0.699485
0.846535
0.846646
0.788411
0.847413
0.811435
0.809636
0.850162
0.8535
0.847886
0.796952
0.853897
0.851814
0.849069
0.849315
0.788612
0.85944
0.850107
0.799651
0.853612
0.671312
0.85602
0.770251
0.838429
0.823085
0.778528
0.738345
0.852084
0.665314
0.848195
0.848758
0.805132
0.837033
0.847819
0.853601
0.806382
0.843493
0.805839
0.786569
0.684895
0.808362
0.80319
0.77029
0.805165
0.848065
0.84874
0.805608
0.67293
0.833775
0.848447
0.851222
0.834165
0.781785
0.809355
0.805441
0.740384
0.854665
0.846269
0.811577
0.849821
0.845889
0.847859
0.805951
0.85055
0.846768
0.855309
0.785876
0.803679
0.8498
0.849026
0.870679
0.767276
0.840092
0.788778
0.816705
0.806372
0.848252
0.839666
0.847384
0.852314
0.871674
0.851505
0.849482
0.788456
0.806907
0.794734
0.847486
0.847852
0.85112
0.845115
0.803858
0.804631
0.797356
0.858432
0.807034
0.771438
0.81865
0.847818
0.802763
0.805053
0.851314
0.754638
0.845773
0.80505
0.759386
0.848645
0.850789
0.811048
0.847844
0.809039
0.72896
0.769809
0.849421
0.822806
0.738679
0.849049
0.851392
0.815438
0.741085
0.813438
0.754119
0.815433
0.842341
0.824382
0.842982
0.835312
0.848596
0.764147
0.852151
0.847421
0.800489
0.772574
0.793316
0.810785
0.850183
0.797688
0.653492
0.811923
0.773683
0.764946
0.775918
0.754639
0.850125
0.846227
0.80838
0.804981
0.841005
0.847827
0.791009
0.805503
0.851697
0.848209
0.854018
0.804577
0.813638
0.811938
0.850865
0.850441
0.80726
0.836393
0.819206
0.741699
0.847753
0.819838
0.848369
0.809222
0.854326
0.806262
0.805035
0.816429
0.840908
0.870016
0.834191
0.805511
0.84789
0.803745
0.851521
0.788531
0.72691
0.813369
0.739311
0.850786
0.803731
0.767591
0.847301
0.84764
0.846096
0.824488
0.792651
0.71058
0.785051
0.705521
0.847628
0.759942
0.804612
0.807962
0.85605
0.815164
0.661901
0.805925
0.750089
0.857468
0.805391
0.744768
0.836875
0.850233
0.848135
0.674701
0.811362
0.80534
0.829323
0.83381
0.81287
0.80078
0.812904
0.81284
0.680863
0.848255
0.847912
0.779272
0.802101
0.853997
0.784968
0.845285
0.813557
0.757622
0.801965
0.806952
0.657295
0.642538
0.772938
0.842927
0.848445
0.793075
0.85379
0.848239
0.781777
0.807505
0.80517
0.84783
0.852615
0.819918
0.807838
0.812554
0.721576
0.837055
0.749815
0.802816
0.796115
0.779296
0.855098
0.809297
0.801383
0.736774
0.732537
0.82751
0.808307
0.816858
0.804965
0.803969
0.70467
0.847534
0.819583
0.815579
0.853919
0.847565
0.804711
0.814039
0.848584
0.706009
0.845138
0.852022
0.848195
0.849005
0.796105
0.845765
0.803571
0.848543
0.847261
0.75667
0.768843
0.804054
0.80408
0.679292
0.851041
0.812657
0.8092
0.847394
0.806376
0.802173
0.749349
0.753262
0.848256
0.779481
0.774592
0.817747
0.857545
0.848164
0.806184
0.80805
0.851395
0.8042
0.847828
0.813065
0.847833
0.81089
0.84911
0.818469
0.84677
0.819091
0.85301
0.6637
0.802795
0.804037
0.812821
0.832799
0.796895
0.801825
0.851636
0.851218
0.847898
0.776137
0.815955
0.832895
0.788852
0.764001
0.811048
0.83721
0.85248
0.850073
0.820494
0.807348
0.704378
0.807918
0.690614
0.804015
0.801186
0.833112
0.847462
0.884065
0.644485
0.694464
0.85662
0.882254
0.846041
0.732948
0.806338
0.755045
0.836709
0.815335
0.746002
0.709233
0.785058
0.84771
0.678401
0.883638
0.849751
0.82888
0.809046
0.668956
0.779948
0.807676
0.847861
0.807657
0.805025
0.85291
0.851621
0.755028
0.740357
0.803609
0.807645
0.850561
0.852925
0.806792
0.853506
0.77492
0.792328
0.798696
0.804928
0.794859
0.847852
0.80611
0.850004
0.852836
0.790933
0.806722
0.805585
0.821652
0.852414
0.842728
0.835198
0.722249
0.791138
0.841479
0.810792
0.843482
0.808132
0.847969
0.807663
0.845061
0.84612
0.700329
0.869864
0.775851
0.848501
0.831944
0.750204
0.841774
0.802162
0.85016
0.645385
0.804714
0.736539
0.853428
0.809345
0.679222
0.799379
0.806503
0.799331
0.801375
0.832994
0.800354
0.853165
0.69304
0.807464
0.807458
0.799029
0.846537
0.794572
0.853355
0.848837
0.803435
0.847781
0.801261
0.804367
0.85152
0.691199
0.797883
0.773876
0.656896
0.850063
0.668034
0.802906
0.847931
0.871038
0.736227
0.779974
0.852398
0.807428
0.805153
0.821999
0.798392
0.848336
0.851343
0.797596
0.849529
0.815454
0.676446
0.850072
0.849066
0.80644
0.851585
0.693253
0.845928
0.848076
0.747702
0.792023
0.84947
0.802254
0.827439
0.847812
0.805359
0.745994
0.668341
0.847885
0.657555
0.803982
0.804123
0.775356
0.853959
0.76573
0.85163
0.80442
0.804218
0.655078
0.847571
0.851144
0.853268
0.834969
0.805044
0.804363
0.850437
0.761154
0.863607
0.834617
0.74805
0.803579
0.705921
0.783775
0.723898
0.843028
0.834678
0.804378
0.718464
0.7983
0.848786
0.849682
0.851159
0.833996
0.739513
0.644405
0.807641
0.846869
0.805474
0.815806
0.828229
0.778699
0.84761
0.846097
0.805539
0.846689
0.800327
0.747212
0.803671
0.812243
0.678264
0.732403
0.803827
0.852323
0.806462
0.65801
0.849383
0.672713
0.851295
0.776406
0.840944
0.846727
0.759881
0.836604
0.817802
0.806361
0.834085
0.835634
0.847382
0.805904
0.847785
0.671724
0.85095
0.871212
0.842344
0.852048
0.805983
0.847834
0.80274
0.854812
0.806056
0.8114
0.738853
0.720617
0.856449
0.849157
0.855237
0.763642
0.805433
0.77373
0.802037
0.806849
0.818438
0.838173
0.849735
0.849273
0.851002
0.852987
0.805605
0.753263
0.83367
0.763404
0.824403
0.845054
0.804203
0.813497
0.772619
0.805256
0.807485
0.86327
0.842429
0.80386
0.808394
0.855537
0.850368
0.804828
0.870822
0.796497
0.847685
0.736145
0.804256
0.801352
0.804294
0.853951
0.675777
0.806374
0.806641
0.723435
0.848308
0.852163
0.848643
0.804133
0.807669
0.803075
0.846906
0.804352
0.721791
0.643125
0.849299
0.837566
0.805082
0.806866
0.806342
0.804204
0.848521
0.803741
0.848954
0.664652
0.847927
0.80857
0.85118
0.858629
0.848747
0.830285
0.852778
0.802942
0.850265
0.726451
0.804361
0.847998
0.850196
0.795919
0.848159
0.696018
0.807395
0.701679
0.736775
0.739616
0.808748
0.846934
0.8104
0.654841
0.736914
0.804952
0.853259
0.779258
0.829468
0.806342
0.808092
0.826998
0.705848
0.769168
0.67071
0.804997
0.853754
0.807447
0.840904
0.717512
0.701859
0.850423
0.805619
0.848218
0.763249
0.849112
0.645702
0.847959
0.705049
0.848575
0.846063
0.803764
0.805192
0.850366
0.817452
0.804008
0.833805
0.69445
0.804305
0.725353
0.804026
0.803854
0.84891
0.81217
0.765288
0.84546
0.758221
0.804505
0.723286
0.807864
0.749591
0.718599
0.849778
0.851215
0.804499
0.768832
0.811975
0.714128
0.84523
0.80444
0.730473
0.850695
0.846861
0.723438
0.738213
0.850684
0.80496
0.768115
0.829666
0.85582
0.856711
0.853428
0.643771
0.782068
0.838895
0.847809
0.690305
0.698297
0.815231
0.851021
0.757427
0.78392
0.853184
0.834829
0.77462
0.850241
0.849163
0.804626
0.75974
0.802848
0.826867
0.843361
0.669137
0.806819
0.848845
0.65672
0.846397
0.843416
0.853805
0.721943
0.853126
0.849565
0.852879
0.802403
0.84794
0.801348
0.806476
0.805983
0.804226
0.848115
0.681927
0.840501
0.810561
0.750986
0.697256
0.790081
0.803942
0.852831
0.759412
0.704586
0.851441
0.8117
0.853095
0.848147
0.848946
0.850341
0.779182
0.700955
0.853245
0.834628
0.853812
0.704801
0.830558
0.76526
0.84856
0.845551
0.853832
0.847604
0.801768
0.849738
0.808718
0.762387
0.845443
0.850566
0.785799
0.794513
0.761175
0.701023
0.757222
0.809873
0.845337
0.851648
0.811721
0.845333
0.804243
0.822219
0.807955
0.703359
0.758089
0.852475
0.805049
0.806464
0.815873
0.69866
0.84889
0.805232
0.859209
0.845019
0.717086
0.794181
0.805825
0.856773
0.750245
0.673991
0.661426
0.692013
0.845912
0.803334
0.677279
0.702446
0.848307
0.852109
0.895661
0.80635
0.846221
0.85095
0.772041
0.848905
0.849802
0.8529
0.849037
0.853826
0.802499
0.845985
0.727251
0.846963
0.804977
0.840449
0.759063
0.847566
0.674653
0.852094
0.805401
0.849213
0.854025
0.808059
0.751339
0.82216
0.846963
0.832885
0.853334
0.848294
0.723374
0.848873
0.851863
0.850524
0.852181
0.849227
0.646948
0.801273
0.80664
0.812624
0.814638
0.805435
0.802921
0.848056
0.777429
0.807845
0.847824
0.874094
0.853617
0.698063
0.822719
0.767409
0.848461
0.774189
0.847512
0.806556
0.806308
0.851557
0.812447
0.8325
0.812514
0.819395
0.791934
0.73859
0.775828
0.751399
0.846553
0.834455
0.83501
0.775549
0.84276
0.758654
0.694783
0.85329
0.802884
0.853641
0.804909
0.716412
0.802455
0.783544
0.7442
0.852013
0.750816
0.809516
0.845621
0.873413
0.807011
0.80544
0.772453
0.85083
0.801702
0.856998
0.891116
0.802525
0.645789
0.804509
0.693257
0.78017
0.709112
0.80044
0.67325
0.848123
0.847686
0.806019
0.852213
0.847641
0.806767
0.803797
0.746512
0.822753
0.851072
0.805296
0.83821
0.794794
0.804984
0.834002
0.715003
0.847824
0.806101
0.843321
0.843404
0.803421
0.805586
0.847209
0.847416
0.841806
0.804735
0.813401
0.852359
0.817698
0.806198
0.84915
0.80191
0.65617
0.85049
0.847913
0.80302
0.727237
0.80573
0.835935
0.804277
0.754175
0.870268
0.853694
0.845362
0.85329
0.844277
0.804084
0.85255
0.813318
0.845558
0.848952
0.715387
0.85242
0.76624
0.81654
0.761302
0.804731
0.76897
0.806269
0.688171
0.848419
0.737526
0.665276
0.840321
0.714139
0.771612
0.847336
0.851622
0.803667
0.851342
0.761384
0.696649
0.849729
0.679644
0.84776
0.79879
0.803706
0.807735
0.849255
0.70496
0.806364
0.775412
0.851057
0.846935
0.828115
0.806087
0.739875
0.785108
0.723788
0.803812
0.806882
0.85363
0.845671
0.810928
0.853222
0.850912
0.720504
0.767274
0.682893
0.753023
0.848739
0.809863
0.854707
0.809318
0.84819
0.697872
0.871315
0.848089
0.85061
0.671283
0.848903
0.852157
0.859554
0.860672
0.843839
0.827855
0.848371
0.649602
0.805581
0.843847
0.715111
0.846798
0.805821
0.852514
0.808462
0.849748
0.848219
0.800325
0.722154
0.80329
0.803049
0.672511
0.848493
0.872773
0.847521
0.735381
0.821182
0.84914
0.84819
0.833861
0.680936
0.661069
0.806384
0.857468
0.806955
0.806713
0.848313
0.80202
0.810752
0.848669
0.802953
0.805974
0.805774
0.850833
0.806773
0.805152
0.80412
0.831777
0.852824
0.868395
0.850096
0.84172
0.847871
0.849949
0.853186
0.849399
0.845801
0.849544
0.808185
0.849256
0.710546
0.852791
0.699358
0.879291
0.805315
0.849019
0.804412
0.790831
0.813351
0.746242
0.820031
0.808289
0.813083
0.849203
0.782959
0.844753
0.666096
0.805915
0.849898
0.848694
0.797055
0.851929
0.675622
0.788391
0.647997
0.845815
0.801845
0.800484
0.806296
0.848061
0.851131
0.850831
0.740721
0.843262
0.852774
0.81153
0.805301
0.804676
0.750835
0.800345
0.810478
0.805019
0.750641
0.679947
0.651958
0.857928
0.807006
0.804326
0.785748
0.820279
0.804937
0.805462
0.847903
0.784769
0.761763
0.847863
0.809447
0.811823
0.852317
0.803863
0.853262
0.808191
0.658698
0.804987
0.852897
0.801258
0.846842
0.848381
0.850273
0.70928
0.713234
0.675224
0.844833
0.845974
0.779431
0.809118
0.728037
0.814891
0.811172
0.853596
0.806414
0.811078
0.660467
0.741596
0.833491
0.84944
0.793495
0.833932
0.848777
0.80421
0.805561
0.724773
0.836482
0.853667
0.806351
0.851542
0.803454
0.697487
0.81533
0.851424
0.660389
0.749655
0.824382
0.826173
0.753641
0.804834
0.795315
0.85254
0.762806
0.732072
0.851561
0.797627
0.803937
0.773636
0.663843
0.845682
0.725243
0.766775
0.73405
0.805487
0.802143
0.852802
0.72888
0.776541
0.804702
0.848168
0.666766
0.80436
0.821599
0.83705
0.667157
0.805781
0.78739
0.752647
0.751874
0.80142
0.848094
0.849827
0.842659
0.750794
0.773088
0.701262
0.854316
0.856862
0.845746
0.790069
0.875438
0.753319
0.84936
0.777243
0.791115
0.796833
0.853612
0.805189
0.852469
0.787711
0.770618
0.848249
0.801706
0.860047
0.756585
0.791155
0.80593
0.759158
0.806495
0.847893
0.659128
0.802982
0.804372
0.803485
0.848626
0.775964
0.799849
0.761387
0.852595
0.808192
0.763932
0.852544
0.846444
0.852072
0.804693
0.810972
0.802534
0.807494
0.728859
0.851176
0.805846
0.736866
0.808153
0.786115
0.850351
0.84025
0.84665
0.858762
0.844782
0.754401
0.848902
0.818217
0.791927
0.680459
0.840546
0.837086
0.852087
0.805562
0.866609
0.85027
0.786085
0.840282
0.781327
0.801849
0.781647
0.852025
0.760709
0.696442
0.859914
0.727018
0.792586
0.854374
0.851043
0.730662
0.808386
0.782536
0.805975
0.800397
0.810935
0.805344
0.805758
0.803278
0.802649
0.790429
0.852032
0.806771
0.847854
0.805306
0.762312
0.808283
0.813415
0.851108
0.80536
0.651549
0.822189
0.845211
0.850286
0.753092
0.803376
0.803358
0.805804
0.847896
0.74953
0.847815
0.82969
0.827505
0.790445
0.851642
0.81105
0.808141
0.778919
0.809748
0.846979
0.807871
0.838509
0.837067
0.806915
0.848961
0.805675
0.812702
0.841519
0.852039
0.815745
0.809893
0.745915
0.848517
0.809573
0.805506
0.761542
0.792733
0.706443
0.804154
0.648363
0.804418
0.848391
0.776648
0.854646
0.687941
0.845965
0.772154
0.851604
0.641655
0.807217
0.825896
0.848337
0.848017
0.757992
0.859853
0.67232
0.843526
0.713269
0.804832
0.679775
0.72052
0.849782
0.853184
0.779332
0.805643
0.818574
0.676698
0.842225
0.771783
0.855046
0.853287
0.814
0.849162
0.805139
0.833874
0.81121
0.804509
0.674487
0.804413
0.861027
0.804911
0.834004
0.77671
0.808015
0.85203
0.852336
0.801765
0.768031
0.845215
0.847728
0.671988
0.806039
0.697596
0.847939
0.684449
0.853091
0.799844
0.736368
0.736322
0.783714
0.759648
0.839839
0.812667
0.819469
0.805879
0.745698
0.803592
0.813449
0.803853
0.837831
0.830752
0.734068
0.73746
0.805084
0.78096
0.641964
0.85131
0.737176
0.795639
0.701017
0.845892
0.848591
0.850253
0.831205
0.832952
0.809837
0.699065
0.82559
0.809655
0.805886
0.847992
0.853091
0.848803
0.811691
0.849278
0.847837
0.698741
0.806321
0.801881
0.850046
0.735248
0.803342
0.821849
0.786477
0.73434
0.830445
0.749241
0.768423
0.811029
0.850313
0.719773
0.858437
0.778636
0.806541
0.801192
0.851128
0.861624
0.801259
0.683054
0.848093
0.691459
0.677136
0.778602
0.793338
0.798046
0.852165
0.804279
0.841174
0.854048
0.662421
0.788005
0.828683
0.85251
0.674565
0.759637
0.720999
0.847822
0.848591
0.733856
0.805797
0.850428
0.804485
0.831677
0.701581
0.859463
0.743521
0.849965
0.850932
0.74006
0.848754
0.7221
0.814733
0.718872
0.812364
0.815098
0.705655
0.76311
0.761917
0.851222
0.848903
0.848148
0.849016
0.804138
0.806225
0.806674
0.840972
0.803468
0.74838
0.802249
0.673061
0.805852
0.807318
0.806155
0.852151
0.849831
0.803787
0.752605
0.69316
0.72781
0.820484
0.815686
0.751829
0.708434
0.785439
0.85197
0.80291
0.789934
0.806775
0.840855
0.783154
0.653614
0.711969
0.8028
0.852214
0.87641
0.814817
0.853143
0.865464
0.804434
0.802158
0.848416
0.851266
0.837382
0.762899
0.808835
0.750322
0.875276
0.809538
0.849242
0.707535
0.801668
0.640462
0.660694
0.710034
0.842358
0.804755
0.842669
0.793389
0.804628
0.659885
0.813753
0.806903
0.775882
0.846569
0.80619
0.847568
0.85923
0.685791
0.841863
0.803193
0.850055
0.814355
0.849888
0.851457
0.788728
0.802087
0.799227
0.804461
0.801972
0.845772
0.841993
0.847994
0.767281
0.806439
0.71208
0.849345
0.853087
0.675726
0.777921
0.777825
0.664884
0.815014
0.804922
0.887228
0.80389
0.845159
0.790457
0.796432
0.802171
0.81026
0.788773
0.652636
0.703632
0.730239
0.786833
0.843643
0.804959
0.818457
0.793339
0.833245
0.849969
0.803635
0.86678
0.753722
0.852593
0.786633
0.658686
0.691527
0.849917
0.805147
0.805474
0.655858
0.798918
0.805354
0.710682
0.848496
0.820689
0.809318
0.847158
0.69548
0.728503
0.766044
0.84989
0.829674
0.708402
0.793076
0.716415
0.848564
0.848793
0.785394
0.803312
0.67729
0.848195
0.803235
0.759834
0.848826
0.80681
0.760091
0.773988
0.777202
0.852033
0.650192
0.795745
0.74791
0.801665
0.820662
0.720891
0.804545
0.841631
0.754014
0.81034
0.749806
0.84788
0.803507
0.762156
0.748331
0.83914
0.801158
0.849289
0.720308
0.806569
0.838916
0.852595
0.744584
0.852036
0.810083
0.849769
0.700077
0.847735
0.774671
0.852124
0.808357
0.860598
0.805345
0.848063
0.761125
0.847845
0.858445
0.828693
0.839572
0.84229
0.755451
0.845618
0.825506
0.807077
0.842962
0.807414
0.702435
0.806223
0.848328
0.763352
0.750824
0.804051
0.807337
0.722422
0.80313
0.645492
0.844583
0.750248
0.750231
0.848542
0.783256
0.830029
0.797719
0.829413
0.805081
0.849618
0.832988
0.76046
0.800339
0.677535
0.851524
0.78102
0.830602
0.806355
0.656217
0.803933
0.803321
0.844274
0.802785
0.847534
0.808051
0.703616
0.848963
0.845589
0.733475
0.779762
0.851196
0.805593
0.761955
0.814001
0.770973
0.797757
0.804601
0.8046
0.857155
0.72512
0.727208
0.802079
0.750772
0.777505
0.827842
0.643996
0.744985
0.801006
0.805975
0.804269
0.749639
0.848389
0.841027
0.805144
0.80707
0.84936
0.73817
0.727245
0.808618
0.848847
0.803078
0.868549
0.805985
0.851308
0.800573
0.842817
0.810928
0.808689
0.726238
0.812292
0.84779
0.804688
0.806189
0.804009
0.685507
0.842825
0.848662
0.851023
0.859963
0.84725
0.801551
0.670448
0.831856
0.744441
0.850628
0.808242
0.812589
0.823733
0.850453
0.850525
0.773734
0.651026
0.677488
0.850436
0.845995
0.66862
0.795824
0.847303
0.829296
0.664852
0.809678
0.847859
0.805868
0.809369
0.68253
0.849014
0.80709
0.65462
0.851252
0.847834
0.662752
0.810418
0.848977
0.77718
0.808372
0.830918
0.851268
0.802727
0.849719
0.648391
0.827616
0.812894
0.805387
0.779654
0.810257
0.851413
0.809678
0.806503
0.843629
0.801994
0.73457
0.841459
0.689812
0.853815
0.715781
0.764277
0.798937
0.758368
0.804538
0.659521
0.865146
0.851908
0.848616
0.804456
0.804913
0.803707
0.810555
0.848426
0.721145
0.751751
0.754789
0.848149
0.756973
0.701103
0.840412
0.809427
0.849325
0.845961
0.806916
0.768995
0.678775
0.799494
0.818269
0.674664
0.848459
0.849636
0.769017
0.807482
0.796616
0.702922
0.842457
0.813213
0.814906
0.682082
0.80267
0.78742
0.850922
0.849736
0.852109
0.809907
0.849878
0.715794
0.822351
0.847918
0.739617
0.666191
0.775283
0.800235
0.755496
0.849648
0.803675
0.804853
0.786948
0.878768
0.804128
0.802452
0.848571
0.873125
0.806218
0.843327
0.824835
0.847503
0.791815
0.758931
0.809081
0.80599
0.846295
0.804437
0.819626
0.861052
0.773596
0.850079
0.799871
0.806638
0.699057
0.65405
0.801655
0.800649
0.850397
0.799641
0.822024
0.853855
0.778386
0.807379
0.853285
0.807576
0.841631
0.778513
0.680598
0.804947
0.765842
0.784255
0.766052
0.768515
0.795653
0.792606
0.819477
0.789593
0.80836
0.803956
0.79604
0.847966
0.653983
0.772283
0.8472
0.846451
0.850301
0.831762
0.846909
0.831042
0.805312
0.848389
0.808912
0.787839
0.846605
0.805747
0.818962
0.797083
0.805555
0.668861
0.80542
0.79327
0.677582
0.833124
0.806497
0.806851
0.809311
0.751239
0.757317
0.848597
0.777321
0.808987
0.847356
0.723193
0.805532
0.849066
0.762835
0.799247
0.846091
0.780072
0.832198
0.833797
0.801345
0.847771
0.799221
0.806426
0.803994
0.848385
0.806278
0.802401
0.678938
0.847991
0.817073
0.807215
0.850509
0.748949
0.852015
0.839517
0.666277
0.808431
0.806101
0.806103
0.84834
0.845247
0.849216
0.805753
0.836854
0.848495
0.811974
0.804739
0.847639
0.80744
0.761597
0.758755
0.808099
0.848893
0.844589
0.802349
0.787619
0.811307
0.821999
0.810029
0.851124
0.745848
0.6605
0.751168
0.84781
0.808807
0.847457
0.859343
0.804234
0.763631
0.727449
0.804916
0.807593
0.750034
0.850422
0.740254
0.855328
0.767225
0.845994
0.90084
0.812995
0.805083
0.805972
0.810543
0.74384
0.812703
0.842073
0.793516
0.836609
0.780891
0.804949
0.809014
0.812085
0.804863
0.866844
0.781136
0.803257
0.679142
0.806281
0.736664
0.805453
0.79693
0.789179
0.809325
0.758341
0.833452
0.814555
0.862317
0.849376
0.850829
0.8515
0.90094
0.764575
0.803147
0.761
0.803964
0.80364
0.806876
0.76315
0.805193
0.804156
0.724823
0.839325
0.781929
0.696219
0.863688
0.864199
0.785447
0.808077
0.795819
0.80141
0.774536
0.784612
0.786734
0.770569
0.805683
0.80703
0.766493
0.848022
0.806576
0.679895
0.853184
0.819995
0.841145
0.804776
0.683457
0.763414
0.805648
0.872891
0.676359
0.768062
0.826862
0.813884
0.821691
0.718902
0.759522
0.808162
0.849436
0.847914
0.857141
0.751553
0.771127
0.885053
0.808183
0.85053
0.795551
0.727286
0.713823
0.674912
0.725916
0.703759
0.798131
0.832072
0.806419
0.848564
0.830338
0.809838
0.873517
0.759165
0.849049
0.848755
0.847269
0.847752
0.84879
0.849827
0.848261
0.85395
0.73224
0.827218