# vtk DataFile Version 1.0
unstructured grid
ascii
DATASET UNSTRUCTURED_GRID
points 14760 float
-1 0 0
-1 1 0
2 0 0
2 1 0
0 0 0
1 0 0
-1 1 0.1
-1 0 0.1
0 0 0.1
1 0 0.1
2 0 0.1
2 1 0.1
-0.99 0 0
-0.98 0 0
-0.97 0 0
-0.96 0 0
-0.95 0 0
-0.94 0 0
-0.93 0 0
-0.92 0 0
-0.91 0 0
-0.9 0 0
-0.89 0 0
-0.88 0 0
-0.87 0 0
-0.86 0 0
-0.85 0 0
-0.84 0 0
-0.83 0 0
-0.82 0 0
-0.81 0 0
-0.8 0 0
-0.79 0 0
-0.78 0 0
-0.77 0 0
-0.76 0 0
-0.75 0 0
-0.74 0 0
-0.73 0 0
-0.72 0 0
-0.71 0 0
-0.7 0 0
-0.69 0 0
-0.68 0 0
-0.67 0 0
-0.66 0 0
-0.65 0 0
-0.64 0 0
-0.63 0 0
-0.62 0 0
-0.61 0 0
-0.6 0 0
-0.59 0 0
-0.58 0 0
-0.57 0 0
-0.56 0 0
-0.55 0 0
-0.54 0 0
-0.53 0 0
-0.52 0 0
-0.51 0 0
-0.5 0 0
-0.49 0 0
-0.48 0 0
-0.47 0 0
-0.46 0 0
-0.45 0 0
-0.44 0 0
-0.43 0 0
-0.42 0 0
-0.41 0 0
-0.4 0 0
-0.39 0 0
-0.38 0 0
-0.37 0 0
-0.36 0 0
-0.35 0 0
-0.34 0 0
-0.33 0 0
-0.32 0 0
-0.31 0 0
-0.3 0 0
-0.29 0 0
-0.28 0 0
-0.27 0 0
-0.26 0 0
-0.25 0 0
-0.24 0 0
-0.23 0 0
-0.22 0 0
-0.21 0 0
-0.2 0 0
-0.19 0 0
-0.18 0 0
-0.17 0 0
-0.16 0 0
-0.15 0 0
-0.14 0 0
-0.13 0 0
-0.12 0 0
-0.11 0 0
-0.1 0 0
-0.09 0 0
-0.08 0 0
-0.07 0 0
-0.06 0 0
-0.05 0 0
-0.04 0 0
-0.03 0 0
-0.02 0 0
-0.01 0 0
1.01 0 0
1.02 0 0
1.03 0 0
1.04 0 0
1.05 0 0
1.06 0 0
1.07 0 0
1.08 0 0
1.09 0 0
1.1 0 0
1.11 0 0
1.12 0 0
1.13 0 0
1.14 0 0
1.15 0 0
1.16 0 0
1.17 0 0
1.18 0 0
1.19 0 0
1.2 0 0
1.21 0 0
1.22 0 0
1.23 0 0
1.24 0 0
1.25 0 0
1.26 0 0
1.27 0 0
1.28 0 0
1.29 0 0
1.3 0 0
1.31 0 0
1.32 0 0
1.33 0 0
1.34 0 0
1.35 0 0
1.36 0 0
1.37 0 0
1.38 0 0
1.39 0 0
1.4 0 0
1.41 0 0
1.42 0 0
1.43 0 0
1.44 0 0
1.45 0 0
1.46 0 0
1.47 0 0
1.48 0 0
1.49 0 0
1.5 0 0
1.51 0 0
1.52 0 0
1.53 0 0
1.54 0 0
1.55 0 0
1.56 0 0
1.57 0 0
1.58 0 0
1.59 0 0
1.6 0 0
1.61 0 0
1.62 0 0
1.63 0 0
1.64 0 0
1.65 0 0
1.66 0 0
1.67 0 0
1.68 0 0
1.69 0 0
1.7 0 0
1.71 0 0
1.72 0 0
1.73 0 0
1.74 0 0
1.75 0 0
1.76 0 0
1.77 0 0
1.78 0 0
1.79 0 0
1.8 0 0
1.81 0 0
1.82 0 0
1.83 0 0
1.84 0 0
1.85 0 0
1.86 0 0
1.87 0 0
1.88 0 0
1.89 0 0
1.9 0 0
1.91 0 0
1.92 0 0
1.93 0 0
1.94 0 0
1.95 0 0
1.96 0 0
1.97 0 0
1.98 0 0
1.99 0 0
2 0.0100088 0
2 0.0204183 0
2 0.0312446 0
2 0.0425043 0
2 0.0542147 0
2 0.066394 0
2 0.079061 0
2 0.092235 0
2 0.105936 0
2 0.120186 0
2 0.135007 0
2 0.150421 0
2 0.166452 0
2 0.183124 0
2 0.200465 0
2 0.218499 0
2 0.237256 0
2 0.256763 0
2 0.277051 0
2 0.298152 0
2 0.320097 0
2 0.342921 0
2 0.366659 0
2 0.391347 0
2 0.417024 0
2 0.443728 0
2 0.471502 0
2 0.500387 0
2 0.530429 0
2 0.561674 0
2 0.594169 0
2 0.627966 0
2 0.663115 0
2 0.699672 0
2 0.737692 0
2 0.777235 0
2 0.818361 0
2 0.861133 0
2 0.905617 0
2 0.951882 0
1.95 1 0
1.9 1 0
1.85 1 0
1.8 1 0
1.75 1 0
1.7 1 0
1.65 1 0
1.6 1 0
1.55 1 0
1.5 1 0
1.45 1 0
1.4 1 0
1.35 1 0
1.3 1 0
1.25 1 0
1.2 1 0
1.15 1 0
1.1 1 0
1.05 1 0
1 1 0
0.95 1 0
0.9 1 0
0.85 1 0
0.8 1 0
0.75 1 0
0.7 1 0
0.65 1 0
0.6 1 0
0.55 1 0
0.5 1 0
0.45 1 0
0.4 1 0
0.35 1 0
0.3 1 0
0.25 1 0
0.2 1 0
0.15 1 0
0.1 1 0
0.05 1 0
3.69793e-12 1 0
-0.05 1 0
-0.1 1 0
-0.15 1 0
-0.2 1 0
-0.25 1 0
-0.3 1 0
-0.35 1 0
-0.4 1 0
-0.45 1 0
-0.5 1 0
-0.55 1 0
-0.6 1 0
-0.65 1 0
-0.7 1 0
-0.75 1 0
-0.8 1 0
-0.85 1 0
-0.9 1 0
-0.95 1 0
-1 0.951882 0
-1 0.905617 0
-1 0.861133 0
-1 0.818361 0
-1 0.777235 0
-1 0.737692 0
-1 0.699672 0
-1 0.663115 0
-1 0.627966 0
-1 0.594169 0
-1 0.561674 0
-1 0.530429 0
-1 0.500387 0
-1 0.471502 0
-1 0.443728 0
-1 0.417024 0
-1 0.391347 0
-1 0.366659 0
-1 0.342921 0
-1 0.320097 0
-1 0.298152 0
-1 0.277051 0
-1 0.256763 0
-1 0.237256 0
-1 0.218499 0
-1 0.200465 0
-1 0.183124 0
-1 0.166452 0
-1 0.150421 0
-1 0.135007 0
-1 0.120186 0
-1 0.105936 0
-1 0.092235 0
-1 0.079061 0
-1 0.066394 0
-1 0.0542147 0
-1 0.0425043 0
-1 0.0312446 0
-1 0.0204183 0
-1 0.0100088 0
0.00921362 0.00379763 0
0.0184561 0.00752451 0
0.0277268 0.0111804 0
0.0370253 0.0147652 0
0.0463511 0.0182786 0
0.0557034 0.0217203 0
0.0650819 0.0250903 0
0.074486 0.0283883 0
0.083915 0.0316141 0
0.0933685 0.0347675 0
0.102846 0.0378484 0
0.112347 0.0408565 0
0.12187 0.0437917 0
0.131416 0.0466538 0
0.140983 0.0494427 0
0.150572 0.0521581 0
0.160181 0.0547999 0
0.16981 0.0573681 0
0.179458 0.0598623 0
0.189125 0.0622825 0
0.198811 0.0646285 0
0.208514 0.0669001 0
0.218234 0.0690974 0
0.227971 0.07122 0
0.237724 0.073268 0
0.247493 0.0752411 0
0.257276 0.0771393 0
0.267073 0.0789625 0
0.276884 0.0807105 0
0.286708 0.0823832 0
0.296545 0.0839806 0
0.306394 0.0855025 0
0.316254 0.0869488 0
0.326125 0.0883196 0
0.336006 0.0896146 0
0.345896 0.0908339 0
0.355796 0.0919773 0
0.365704 0.0930447 0
0.375621 0.0940362 0
0.385544 0.0949517 0
0.395474 0.095791 0
0.40541 0.0965542 0
0.415352 0.0972412 0
0.425299 0.097852 0
0.43525 0.0983865 0
0.445205 0.0988447 0
0.455164 0.0992266 0
0.465125 0.0995321 0
0.475088 0.0997613 0
0.485052 0.0999141 0
0.495017 0.0999904 0
0.504983 0.0999904 0
0.514948 0.0999141 0
0.524912 0.0997613 0
0.534875 0.0995321 0
0.544836 0.0992266 0
0.554795 0.0988447 0
0.56475 0.0983865 0
0.574701 0.097852 0
0.584648 0.0972412 0
0.59459 0.0965542 0
0.604526 0.095791 0
0.614456 0.0949517 0
0.624379 0.0940362 0
0.634296 0.0930447 0
0.644204 0.0919773 0
0.654104 0.0908339 0
0.663994 0.0896146 0
0.673875 0.0883196 0
0.683746 0.0869488 0
0.693606 0.0855025 0
0.703455 0.0839806 0
0.713292 0.0823832 0
0.723116 0.0807105 0
0.732927 0.0789625 0
0.742724 0.0771393 0
0.752508 0.0752411 0
0.762276 0.073268 0
0.772029 0.07122 0
0.781766 0.0690974 0
0.791486 0.0669001 0
0.801189 0.0646285 0
0.810875 0.0622825 0
0.820542 0.0598623 0
0.83019 0.0573681 0
0.839819 0.0547999 0
0.849428 0.0521581 0
0.859017 0.0494427 0
0.868584 0.0466538 0
0.87813 0.0437917 0
0.887653 0.0408565 0
0.897154 0.0378484 0
0.906631 0.0347675 0
0.916085 0.0316141 0
0.925514 0.0283883 0
0.934918 0.0250903 0
0.944297 0.0217203 0
0.953649 0.0182786 0
0.962975 0.0147652 0
0.972273 0.0111804 0
0.981544 0.00752451 0
0.990786 0.00379763 0
-1 0.951882 0.1
-1 0.905617 0.1
-1 0.861133 0.1
-1 0.818361 0.1
-1 0.777235 0.1
-1 0.737692 0.1
-1 0.699672 0.1
-1 0.663115 0.1
-1 0.627966 0.1
-1 0.594169 0.1
-1 0.561674 0.1
-1 0.530429 0.1
-1 0.500387 0.1
-1 0.471502 0.1
-1 0.443728 0.1
-1 0.417024 0.1
-1 0.391347 0.1
-1 0.366659 0.1
-1 0.342921 0.1
-1 0.320097 0.1
-1 0.298152 0.1
-1 0.277051 0.1
-1 0.256763 0.1
-1 0.237256 0.1
-1 0.218499 0.1
-1 0.200465 0.1
-1 0.183124 0.1
-1 0.166452 0.1
-1 0.150421 0.1
-1 0.135007 0.1
-1 0.120186 0.1
-1 0.105936 0.1
-1 0.092235 0.1
-1 0.079061 0.1
-1 0.066394 0.1
-1 0.0542147 0.1
-1 0.0425043 0.1
-1 0.0312446 0.1
-1 0.0204183 0.1
-1 0.0100088 0.1
-0.99 0 0.1
-0.98 0 0.1
-0.97 0 0.1
-0.96 0 0.1
-0.95 0 0.1
-0.94 0 0.1
-0.93 0 0.1
-0.92 0 0.1
-0.91 0 0.1
-0.9 0 0.1
-0.89 0 0.1
-0.88 0 0.1
-0.87 0 0.1
-0.86 0 0.1
-0.85 0 0.1
-0.84 0 0.1
-0.83 0 0.1
-0.82 0 0.1
-0.81 0 0.1
-0.8 0 0.1
-0.79 0 0.1
-0.78 0 0.1
-0.77 0 0.1
-0.76 0 0.1
-0.75 0 0.1
-0.74 0 0.1
-0.73 0 0.1
-0.72 0 0.1
-0.71 0 0.1
-0.7 0 0.1
-0.69 0 0.1
-0.68 0 0.1
-0.67 0 0.1
-0.66 0 0.1
-0.65 0 0.1
-0.64 0 0.1
-0.63 0 0.1
-0.62 0 0.1
-0.61 0 0.1
-0.6 0 0.1
-0.59 0 0.1
-0.58 0 0.1
-0.57 0 0.1
-0.56 0 0.1
-0.55 0 0.1
-0.54 0 0.1
-0.53 0 0.1
-0.52 0 0.1
-0.51 0 0.1
-0.5 0 0.1
-0.49 0 0.1
-0.48 0 0.1
-0.47 0 0.1
-0.46 0 0.1
-0.45 0 0.1
-0.44 0 0.1
-0.43 0 0.1
-0.42 0 0.1
-0.41 0 0.1
-0.4 0 0.1
-0.39 0 0.1
-0.38 0 0.1
-0.37 0 0.1
-0.36 0 0.1
-0.35 0 0.1
-0.34 0 0.1
-0.33 0 0.1
-0.32 0 0.1
-0.31 0 0.1
-0.3 0 0.1
-0.29 0 0.1
-0.28 0 0.1
-0.27 0 0.1
-0.26 0 0.1
-0.25 0 0.1
-0.24 0 0.1
-0.23 0 0.1
-0.22 0 0.1
-0.21 0 0.1
-0.2 0 0.1
-0.19 0 0.1
-0.18 0 0.1
-0.17 0 0.1
-0.16 0 0.1
-0.15 0 0.1
-0.14 0 0.1
-0.13 0 0.1
-0.12 0 0.1
-0.11 0 0.1
-0.1 0 0.1
-0.09 0 0.1
-0.08 0 0.1
-0.07 0 0.1
-0.06 0 0.1
-0.05 0 0.1
-0.04 0 0.1
-0.03 0 0.1
-0.02 0 0.1
-0.01 0 0.1
0.00921362 0.00379763 0.1
0.0184561 0.00752451 0.1
0.0277268 0.0111804 0.1
0.0370253 0.0147652 0.1
0.0463511 0.0182786 0.1
0.0557034 0.0217203 0.1
0.0650819 0.0250903 0.1
0.074486 0.0283883 0.1
0.083915 0.0316141 0.1
0.0933685 0.0347675 0.1
0.102846 0.0378484 0.1
0.112347 0.0408565 0.1
0.12187 0.0437917 0.1
0.131416 0.0466538 0.1
0.140983 0.0494427 0.1
0.150572 0.0521581 0.1
0.160181 0.0547999 0.1
0.16981 0.0573681 0.1
0.179458 0.0598623 0.1
0.189125 0.0622825 0.1
0.198811 0.0646285 0.1
0.208514 0.0669001 0.1
0.218234 0.0690974 0.1
0.227971 0.07122 0.1
0.237724 0.073268 0.1
0.247493 0.0752411 0.1
0.257276 0.0771393 0.1
0.267073 0.0789625 0.1
0.276884 0.0807105 0.1
0.286708 0.0823832 0.1
0.296545 0.0839806 0.1
0.306394 0.0855025 0.1
0.316254 0.0869488 0.1
0.326125 0.0883196 0.1
0.336006 0.0896146 0.1
0.345896 0.0908339 0.1
0.355796 0.0919773 0.1
0.365704 0.0930447 0.1
0.375621 0.0940362 0.1
0.385544 0.0949517 0.1
0.395474 0.095791 0.1
0.40541 0.0965542 0.1
0.415352 0.0972412 0.1
0.425299 0.097852 0.1
0.43525 0.0983865 0.1
0.445205 0.0988447 0.1
0.455164 0.0992266 0.1
0.465125 0.0995321 0.1
0.475088 0.0997613 0.1
0.485052 0.0999141 0.1
0.495017 0.0999904 0.1
0.504983 0.0999904 0.1
0.514948 0.0999141 0.1
0.524912 0.0997613 0.1
0.534875 0.0995321 0.1
0.544836 0.0992266 0.1
0.554795 0.0988447 0.1
0.56475 0.0983865 0.1
0.574701 0.097852 0.1
0.584648 0.0972412 0.1
0.59459 0.0965542 0.1
0.604526 0.095791 0.1
0.614456 0.0949517 0.1
0.624379 0.0940362 0.1
0.634296 0.0930447 0.1
0.644204 0.0919773 0.1
0.654104 0.0908339 0.1
0.663994 0.0896146 0.1
0.673875 0.0883196 0.1
0.683746 0.0869488 0.1
0.693606 0.0855025 0.1
0.703455 0.0839806 0.1
0.713292 0.0823832 0.1
0.723116 0.0807105 0.1
0.732927 0.0789625 0.1
0.742724 0.0771393 0.1
0.752508 0.0752411 0.1
0.762276 0.073268 0.1
0.772029 0.07122 0.1
0.781766 0.0690974 0.1
0.791486 0.0669001 0.1
0.801189 0.0646285 0.1
0.810875 0.0622825 0.1
0.820542 0.0598623 0.1
0.83019 0.0573681 0.1
0.839819 0.0547999 0.1
0.849428 0.0521581 0.1
0.859017 0.0494427 0.1
0.868584 0.0466538 0.1
0.87813 0.0437917 0.1
0.887653 0.0408565 0.1
0.897154 0.0378484 0.1
0.906631 0.0347675 0.1
0.916085 0.0316141 0.1
0.925514 0.0283883 0.1
0.934918 0.0250903 0.1
0.944297 0.0217203 0.1
0.953649 0.0182786 0.1
0.962975 0.0147652 0.1
0.972273 0.0111804 0.1
0.981544 0.00752451 0.1
0.990786 0.00379763 0.1
1.01 0 0.1
1.02 0 0.1
1.03 0 0.1
[...]
CELL_DATA 14313
SCALARS rho float
LOOKUP_TABLE default
0.782397
0.824803
0.806147
0.541792
0.767994
0.81344
0.813978
0.813884
0.811225
0.815558
0.813673
0.799095
0.798336
0.526072
0.814292
0.832757
0.809207
0.807933
0.811458
0.805608
0.812335
0.814269
0.81392
0.767745
0.813517
0.815061
0.743666
0.70764
0.824302
0.825266
0.81348
0.79474
0.800813
0.813488
0.804952
0.812041
0.6823
0.809333
0.81308
0.802869
0.753904
0.811997
0.545935
0.70426
0.818769
0.836315
0.812305
0.777971
0.805379
0.852683
0.678009
0.655294
0.595852
0.811954
0.820706
0.783199
0.818755
0.815047
0.811004
0.813784
0.813535
0.819538
0.794718
0.839778
0.811957
0.814681
0.854488
0.784403
0.841298
0.814284
0.798537
0.832325
0.495359
0.83794
0.729221
0.808154
0.825729
0.748326
0.698079
0.812965
0.594526
0.825616
0.83374
0.803648
0.806766
0.820383
0.81342
0.804741
0.827226
0.807228
0.780484
0.53137
0.807726
0.799209
0.729175
0.803937
0.815922
0.810458
0.803621
0.496817
0.808081
0.811123
0.81395
0.815005
0.74981
0.809634
0.803181
0.701145
0.835238
0.811372
0.814085
0.825835
0.813383
0.820414
0.804346
0.828299
0.820855
0.836963
0.779344
0.799989
0.813036
0.810523
0.859869
0.724007
0.844756
0.755149
0.790698
0.804741
0.815939
0.844281
0.810887
0.813509
0.861157
0.81376
0.824268
0.783164
0.807994
0.792588
0.818806
0.81849
0.813978
0.81784
0.803427
0.803517
0.796848
0.839792
0.806128
0.761525
0.796451
0.818515
0.79853
0.80367
0.813923
0.711095
0.82214
0.803828
0.724504
0.822151
0.813533
0.812207
0.819553
0.809057
0.657927
0.758451
0.824115
0.82548
0.716147
0.814041
0.828918
0.816507
0.691043
0.816478
0.714639
0.789073
0.810191
0.827223
0.809449
0.816225
0.822005
0.743499
0.812932
0.810954
0.774564
0.771578
0.790881
0.812093
0.81428
0.797295
0.502636
0.788224
0.758863
0.744649
0.770638
0.717318
0.813756
0.816129
0.807695
0.803557
0.807423
0.818007
0.761382
0.803375
0.829387
0.816142
0.834243
0.803434
0.816822
0.81447
0.813489
0.835193
0.805032
0.812176
0.796893
0.702504
0.815359
0.821966
0.811069
0.808184
0.835286
0.803722
0.803064
0.81956
0.807335
0.855905
0.810578
0.803517
0.819095
0.802743
0.813884
0.75853
0.64669
0.815399
0.699128
0.827786
0.802678
0.724521
0.813332
0.815327
0.816079
0.827382
0.792008
0.707515
0.749582
0.602422
0.816283
0.725212
0.800585
0.807411
0.838425
0.816173
0.578634
0.804265
0.730333
0.838115
0.802258
0.696994
0.812374
0.827943
0.815898
0.562376
0.813489
0.802207
0.800121
0.807127
0.78937
0.774946
0.815985
0.815792
0.536558
0.815935
0.815101
0.772784
0.802273
0.813659
0.780995
0.818357
0.784362
0.711693
0.803095
0.806003
0.571192
0.547468
0.757659
0.809303
0.821538
0.790461
0.813313
0.816118
0.776618
0.806319
0.803669
0.817903
0.830375
0.794263
0.808475
0.812671
0.638395
0.819611
0.704812
0.798578
0.793569
0.778298
0.836375
0.809641
0.797987
0.67952
0.671528
0.804579
0.80673
0.819996
0.804378
0.799693
0.654162
0.816385
0.822664
0.81845
0.813677
0.814231
0.800721
0.791846
0.815521
0.590543
0.809386
0.813778
0.81574
0.814011
0.766634
0.822485
0.802056
0.815556
0.814401
0.753892
0.753821
0.803452
0.80353
0.716423
0.813954
0.81298
0.808132
0.813202
0.804042
0.801106
0.729722
0.713643
0.815714
0.749593
0.75939
0.819732
0.838264
0.815522
0.803257
0.808663
0.813795
0.803615
0.818256
0.783904
0.81819
0.812098
0.812232
0.796062
0.811856
0.793277
0.813454
0.592323
0.80057
0.80136
0.813031
0.81423
0.768825
0.80184
0.813752
0.813948
0.819204
0.770679
0.81867
0.809347
0.754481
0.761934
0.813106
0.807035
0.830103
0.82573
0.823754
0.805277
0.601441
0.780268
0.604722
0.803552
0.803167
0.802053
0.815576
0.874445
0.530824
0.59847
0.839036
0.872414
0.813191
0.691833
0.80322
0.720066
0.808017
0.81669
0.708527
0.653182
0.75263
0.81429
0.524029
0.873977
0.825381
0.799718
0.809124
0.487305
0.742263
0.78279
0.818786
0.805696
0.801696
0.831134
0.813859
0.708158
0.68767
0.802086
0.806495
0.810928
0.813212
0.809041
0.813544
0.737456
0.791515
0.797445
0.80296
0.765401
0.818858
0.808133
0.814319
0.813244
0.757024
0.805756
0.804193
0.794433
0.81372
0.816768
0.808066
0.660296
0.787905
0.818453
0.813065
0.813489
0.80767
0.814091
0.805467
0.822114
0.822495
0.665435
0.855745
0.745289
0.821715
0.806037
0.746063
0.825186
0.801029
0.826443
0.552341
0.800795
0.681931
0.813615
0.809566
0.529467
0.800782
0.804917
0.798252
0.80237
0.801938
0.773423
0.813471
0.597408
0.806157
0.806431
0.800188
0.819439
0.766188
0.813608
0.810893
0.799205
0.817465
0.797854
0.803094
0.813875
0.636385
0.770465
0.735904
0.496819
0.825735
0.572138
0.802821
0.819971
0.8572
0.706981
0.742205
0.813717
0.806433
0.801992
0.794892
0.767457
0.812371
0.813931
0.798021
0.814547
0.817161
0.524463
0.813846
0.814669
0.806505
0.811734
0.608569
0.816399
0.822593
0.710192
0.7892
0.814597
0.801194
0.829588
0.831988
0.804196
0.742197
0.481637
0.815207
0.574456
0.800046
0.803407
0.774526
0.813662
0.751642
0.812888
0.806844
0.803441
0.492736
0.815576
0.828373
0.831479
0.815581
0.803628
0.803343
0.813888
0.758723
0.847989
0.838462
0.713414
0.799896
0.655499
0.778622
0.669925
0.817147
0.83772
0.800265
0.642546
0.767356
0.815053
0.825448
0.833328
0.81446
0.677961
0.542227
0.805651
0.817131
0.802378
0.816948
0.805693
0.772249
0.852801
0.816451
0.804158
0.817939
0.799218
0.743599
0.79932
0.812439
0.59997
0.690855
0.803494
0.812389
0.804998
0.57823
0.813071
0.607321
0.813933
0.768339
0.817853
0.817513
0.753436
0.807745
0.793461
0.805287
0.838175
0.838805
0.83195
0.804924
0.817384
0.583629
0.813952
0.857378
0.825778
0.830193
0.804386
0.821858
0.800394
0.840424
0.809062
0.814674
0.677033
0.637349
0.836572
0.814777
0.841261
0.718834
0.802293
0.764324
0.798534
0.809897
0.794208
0.808274
0.814526
0.823756
0.829023
0.830992
0.805587
0.750109
0.805289
0.732579
0.794489
0.822458
0.801762
0.815432
0.759472
0.805244
0.805403
0.847642
0.810388
0.803448
0.80699
0.83515
0.832116
0.803678
0.8569
0.796856
0.821165
0.668135
0.803282
0.800437
0.800121
0.83261
0.611242
0.806507
0.805708
0.661626
0.815907
0.830252
0.815219
0.803455
0.806481
0.802694
0.817297
0.800195
0.717621
0.518619
0.814812
0.806894
0.802548
0.805032
0.803831
0.803855
0.81221
0.799408
0.815113
0.586412
0.814199
0.8096
0.813436
0.84301
0.815102
0.834997
0.813041
0.798972
0.81427
0.684143
0.803892
0.852041
0.814299
0.793309
0.81553
0.636266
0.805947
0.579002
0.669631
0.677874
0.809742
0.81675
0.812654
0.503405
0.696161
0.803604
0.831686
0.748623
0.832893
0.805295
0.806014
0.797965
0.700357
0.752809
0.552716
0.803152
0.81334
0.805337
0.821674
0.671748
0.667105
0.855744
0.802577
0.815386
0.732257
0.814955
0.531143
0.821916
0.704234
0.815216
0.818653
0.802189
0.802794
0.826181
0.795772
0.803783
0.805095
0.633724
0.806839
0.657256
0.800085
0.799546
0.81512
0.81562
0.730585
0.81659
0.755166
0.803316
0.718957
0.806034
0.745923
0.673359
0.825555
0.813937
0.80043
0.728527
0.812309
0.660641
0.81227
0.803149
0.726092
0.826859
0.817571
0.643962
0.697717
0.826788
0.80375
0.727768
0.834398
0.835582
0.836954
0.813412
0.55218
0.752297
0.821733
0.82142
0.536137
0.642218
0.816551
0.813987
0.725301
0.778969
0.813681
0.808185
0.759384
0.813691
0.814917
0.803646
0.731648
0.802427
0.798142
0.813327
0.580877
0.805742
0.822868
0.577388
0.819289
0.847044
0.813674
0.67839
0.813387
0.813124
0.813478
0.801293
0.819886
0.803473
0.806868
0.804998
0.803402
0.814885
0.526425
0.811106
0.810507
0.696874
0.607945
0.786567
0.799658
0.813706
0.753132
0.585047
0.81302
0.784733
0.813689
0.822568
0.814899
0.826107
0.749545
0.597151
0.81319
0.839969
0.81367
0.703521
0.804585
0.728902
0.814551
0.812438
0.813584
0.818565
0.801473
0.814526
0.80866
0.757346
0.817406
0.814137
0.753292
0.792257
0.714132
0.571324
0.735607
0.782798
0.816995
0.812921
0.811717
0.811953
0.803391
0.796509
0.808245
0.702456
0.753068
0.813212
0.8036
0.805023
0.818716
0.609007
0.814965
0.804011
0.844174
0.809303
0.641046
0.793995
0.804088
0.843046
0.695718
0.566916
0.580354
0.637485
0.81874
0.804774
0.565961
0.592993
0.821087
0.813772
0.889571
0.804967
0.830117
0.813958
0.769347
0.812308
0.81407
0.8137
0.812154
0.813675
0.799281
0.813512
0.65297
0.816968
0.80373
0.810859
0.756061
0.81837
0.613174
0.857264
0.804041
0.827896
0.813678
0.808192
0.747217
0.82361
0.813308
0.838073
0.813447
0.813934
0.646824
0.827648
0.811811
0.813897
0.837227
0.823634
0.557662
0.797821
0.80388
0.812202
0.817299
0.804053
0.801045
0.816516
0.76616
0.805986
0.817127
0.863893
0.832052
0.593346
0.797173
0.755129
0.815398
0.76259
0.820513
0.805071
0.80657
0.813797
0.790053
0.806702
0.81575
0.822412
0.787767
0.676218
0.736435
0.703309
0.815416
0.837425
0.839154
0.736136
0.810185
0.753588
0.613819
0.813672
0.800512
0.813459
0.803684
0.636185
0.802439
0.777178
0.736123
0.812402
0.744178
0.808624
0.817611
0.860298
0.809898
0.807344
0.741254
0.814012
0.776888
0.840091
0.884069
0.798356
0.52531
0.800891
0.611728
0.770222
0.659357
0.799368
0.502665
0.816311
0.851565
0.806107
0.812273
0.820816
0.804119
0.803299
0.698991
0.824293
0.813486
0.804277
0.807853
0.792788
0.803682
0.807913
0.63376
0.817772
0.803097
0.846884
0.809375
0.804638
0.802521
0.814326
0.814444
0.808887
0.803624
0.788618
0.813747
0.79617
0.802976
0.814682
0.77313
0.570826
0.814159
0.819335
0.804257
0.722573
0.802461
0.808834
0.803539
0.702846
0.875449
0.813283
0.817854
0.813675
0.849272
0.779205
0.813713
0.788704
0.817011
0.823107
0.665306
0.813743
0.730161
0.819385
0.72229
0.800784
0.752707
0.803502
0.686162
0.810749
0.733431
0.484242
0.82097
0.663906
0.768994
0.818416
0.813861
0.777662
0.812831
0.722763
0.640314
0.8271
0.705804
0.817931
0.768781
0.802137
0.808098
0.814682
0.654343
0.804644
0.774661
0.811229
0.813432
0.830425
0.806295
0.689937
0.756626
0.655445
0.799494
0.804288
0.8136
0.816599
0.812215
0.813176
0.811014
0.66582
0.732743
0.536258
0.700726
0.815258
0.809133
0.833832
0.809727
0.816012
0.702035
0.876405
0.816462
0.827156
0.57584
0.823907
0.813746
0.841429
0.846144
0.827239
0.831219
0.821293
0.545039
0.805924
0.816057
0.712208
0.817944
0.802591
0.813698
0.808261
0.814054
0.814055
0.768802
0.71803
0.799303
0.801161
0.576016
0.815366
0.859563
0.816573
0.666428
0.823578
0.81453
0.82066
0.836686
0.706687
0.493636
0.80501
0.840544
0.806232
0.804584
0.815547
0.801785
0.812643
0.811042
0.800873
0.804409
0.804829
0.813969
0.805722
0.806405
0.79989
0.83693
0.831557
0.853815
0.814347
0.808725
0.815768
0.814425
0.813682
0.812513
0.816759
0.834589
0.808786
0.812589
0.609174
0.831407
0.703494
0.868622
0.803789
0.833893
0.800338
0.78655
0.786896
0.739314
0.822229
0.811208
0.812786
0.814781
0.776513
0.809292
0.587437
0.806259
0.814433
0.814533
0.795997
0.813618
0.613383
0.784015
0.561811
0.821759
0.798231
0.775559
0.803137
0.815017
0.813941
0.813961
0.73649
0.809618
0.813517
0.811431
0.803804
0.803964
0.747206
0.76891
0.810206
0.803842
0.701827
0.60132
0.496259
0.841698
0.806233
0.779619
0.781725
0.824672
0.803682
0.804074
0.819204
0.779814
0.75679
0.817395
0.808506
0.812074
0.837806
0.805091
0.813362
0.808444
0.490479
0.803596
0.813494
0.774858
0.820492
0.815544
0.826567
0.607686
0.708324
0.577376
0.828915
0.816793
0.744938
0.812106
0.678873
0.815019
0.811405
0.813522
0.803943
0.812186
0.580137
0.689144
0.807229
0.814712
0.793908
0.802573
0.831736
0.80001
0.803466
0.648624
0.808914
0.813585
0.804611
0.813793
0.802803
0.62076
0.815565
0.813899
0.575992
0.702675
0.794426
0.829325
0.701813
0.804147
0.79399
0.813711
0.756566
0.686869
0.812042
0.796185
0.800521
0.766884
0.545874
0.821243
0.675632
0.749312
0.729832
0.804083
0.798628
0.81307
0.663994
0.768348
0.804128
0.81629
0.595316
0.800229
0.82617
0.808368
0.544825
0.805775
0.783907
0.711856
0.710665
0.800595
0.820263
0.814443
0.809985
0.704888
0.740985
0.643774
0.833191
0.843445
0.818029
0.788531
0.865633
0.701429
0.814756
0.767671
0.791078
0.79585
0.813596
0.80411
0.813189
0.787235
0.756555
0.820872
0.798094
0.842842
0.720821
0.791534
0.805686
0.724676
0.804063
0.815793
0.579182
0.802103
0.800276
0.802854
0.822269
0.765283
0.80047
0.724236
0.813725
0.80901
0.726853
0.813725
0.817399
0.829581
0.805829
0.788064
0.798966
0.806102
0.724391
0.813969
0.802452
0.680626
0.807338
0.780874
0.832626
0.821656
0.820093
0.840079
0.849797
0.703827
0.815101
0.796455
0.787732
0.619808
0.817884
0.804967
0.813786
0.777466
0.853993
0.833494
0.782309
0.843659
0.780515
0.80076
0.772813
0.813775
0.723331
0.638125
0.844829
0.664394
0.792998
0.840308
0.813946
0.674004
0.809419
0.753121
0.80425
0.79921
0.782666
0.804289
0.80234
0.802987
0.802085
0.786092
0.81359
0.782452
0.81751
0.807724
0.71602
0.784826
0.815504
0.81397
0.805678
0.567494
0.825723
0.814131
0.813542
0.708488
0.805038
0.801752
0.802498
0.817161
0.746061
0.817238
0.801763
0.805526
0.757001
0.813057
0.81297
0.80676
0.769889
0.808954
0.814317
0.808226
0.81674
0.809482
0.806222
0.823969
0.804742
0.789724
0.807611
0.813752
0.818518
0.780174
0.705285
0.815141
0.812436
0.802066
0.744041
0.789212
0.656197
0.803462
0.544774
0.803309
0.815759
0.775544
0.835395
0.527108
0.810896
0.739807
0.812095
0.538787
0.805216
0.829001
0.814702
0.819895
0.736346
0.841695
0.559297
0.824339
0.703976
0.800892
0.539172
0.671949
0.814024
0.813672
0.743573
0.802297
0.821439
0.614396
0.82281
0.770671
0.834359
0.813681
0.815043
0.81456
0.803941
0.838212
0.811469
0.803916
0.486525
0.803269
0.844195
0.80278
0.80265
0.768386
0.806397
0.813572
0.813733
0.797975
0.735659
0.811797
0.816774
0.605487
0.804392
0.565467
0.816939
0.546882
0.813616
0.771683
0.685001
0.732045
0.783156
0.71547
0.843161
0.814151
0.797809
0.804209
0.705085
0.802703
0.790434
0.802742
0.815896
0.802906
0.729489
0.702823
0.801761
0.773084
0.523672
0.812789
0.669875
0.794455
0.700825
0.825876
0.810978
0.826064
0.811059
0.838097
0.808549
0.587057
0.830055
0.808306
0.802701
0.816727
0.813607
0.814028
0.814841
0.826097
0.817642
0.621903
0.80491
0.800784
0.814367
0.693913
0.802468
0.824359
0.757599
0.690451
0.808463
0.693354
0.733233
0.810984
0.814199
0.670639
0.842158
0.767965
0.805536
0.797821
0.811433
0.845186
0.801315
0.546165
0.816211
0.700218
0.703685
0.778095
0.760001
0.770732
0.813776
0.803572
0.81738
0.813677
0.588642
0.787647
0.832581
0.813693
0.594711
0.725228
0.640792
0.8179
0.811964
0.692658
0.804178
0.813682
0.800618
0.835496
0.611234
0.841113
0.739586
0.813464
0.813994
0.675986
0.813967
0.718012
0.792736
0.713629
0.812826
0.785815
0.637084
0.725836
0.715687
0.833872
0.810965
0.820475
0.823114
0.803424
0.808784
0.803952
0.818575
0.803454
0.692312
0.803711
0.606005
0.778018
0.807345
0.803339
0.813749
0.825289
0.803369
0.720547
0.700761
0.670066
0.791583
0.817473
0.748136
0.596939
0.753005
0.811907
0.802012
0.761416
0.804473
0.82386
0.754423
0.57206
0.703441
0.79985
0.81375
0.864793
0.815727
0.813409
0.852373
0.800816
0.802073
0.815757
0.813806
0.806625
0.719993
0.809362
0.698724
0.862769
0.780094
0.814854
0.595324
0.797885
0.533662
0.586091
0.600128
0.809275
0.80371
0.810594
0.760031
0.80363
0.537595
0.78365
0.804162
0.736928
0.815622
0.802958
0.817108
0.84355
0.669989
0.813233
0.802184
0.811197
0.817045
0.814347
0.813899
0.755804
0.798507
0.799083
0.803326
0.798891
0.812113
0.846808
0.819745
0.726
0.804917
0.635068
0.814644
0.813688
0.590617
0.767825
0.76788
0.541833
0.785642
0.803755
0.878644
0.799705
0.814386
0.757008
0.794734
0.798409
0.810076
0.783224
0.546638
0.704898
0.682494
0.78164
0.815817
0.803231
0.822216
0.790626
0.80309
0.814278
0.799427
0.852749
0.709578
0.81349
0.781273
0.53623
0.542158
0.814385
0.803698
0.805626
0.564311
0.797192
0.803882
0.66121
0.815122
0.791909
0.807851
0.816112
0.577168
0.72335
0.722346
0.813952
0.833261
0.633928
0.790226
0.713235
0.815002
0.82813
0.780042
0.774524
0.541864
0.812989
0.802483
0.725097
0.853793
0.805972
0.726327
0.741258
0.765025
0.812457
0.566753
0.796893
0.737869
0.800477
0.822957
0.716899
0.800511
0.812957
0.718012
0.813283
0.707854
0.817274
0.799536
0.759196
0.695759
0.810125
0.800199
0.814812
0.671649
0.805526
0.806209
0.813238
0.70137
0.813747
0.809437
0.832484
0.686674
0.816794
0.742154
0.813548
0.8068
0.842953
0.803838
0.820099
0.749762
0.816503
0.839593
0.833481
0.817392
0.847102
0.752423
0.849527
0.827407
0.804836
0.826446
0.806049
0.648775
0.779301
0.815311
0.748128
0.698645
0.799799
0.80515
0.689013
0.798799
0.542609
0.849919
0.701729
0.708116
0.814976
0.775253
0.807853
0.799144
0.807886
0.804012
0.813535
0.836937
0.73287
0.773334
0.592336
0.811687
0.777403
0.811706
0.80526
0.573442
0.803059
0.802602
0.808952
0.799869
0.81798
0.808342
0.703622
0.824178
0.849696
0.686488
0.745285
0.813749
0.802247
0.716166
0.81514
0.755789
0.797099
0.803171
0.805606
0.837965
0.671146
0.722047
0.800938
0.704358
0.773016
0.832728
0.536554
0.694016
0.799739
0.804443
0.803452
0.741416
0.823438
0.808251
0.803786
0.808337
0.814756
0.697773
0.654582
0.809864
0.815219
0.800387
0.873867
0.803484
0.813932
0.799216
0.811276
0.812444
0.808689
0.657442
0.815006
0.817849
0.803556
0.803189
0.800606
0.619817
0.81104
0.812048
0.813982
0.864426
0.815756
0.801739
0.489026
0.837095
0.698725
0.827383
0.806765
0.814178
0.825409
0.810768
0.813623
0.733982
0.555488
0.502013
0.813872
0.810441
0.539943
0.795882
0.815821
0.83416
0.510701
0.809957
0.814825
0.803154
0.809463
0.537655
0.81457
0.808459
0.563817
0.81379
0.816585
0.544007
0.809873
0.814136
0.77637
0.807137
0.811982
0.811198
0.800162
0.826852
0.538451
0.831246
0.816085
0.80419
0.743912
0.787167
0.812979
0.809831
0.80344
0.81707
0.800849
0.664142
0.807571
0.688478
0.813661
0.662126
0.747817
0.797209
0.719985
0.803615
0.582712
0.850372
0.813813
0.813804
0.800573
0.803097
0.803228
0.813958
0.815748
0.672193
0.721141
0.728902
0.816136
0.724876
0.628115
0.818345
0.784798
0.828756
0.813076
0.809664
0.734047
0.542519
0.798996
0.791276
0.504116
0.815254
0.814494
0.736935
0.806308
0.769671
0.61229
0.811264
0.815037
0.789777
0.612502
0.802522
0.783497
0.827357
0.814467
0.812081
0.812125
0.814337
0.712094
0.801003
0.817051
0.700427
0.488428
0.735897
0.799014
0.732977
0.814499
0.799469
0.805759
0.783092
0.867811
0.803601
0.801863
0.826712
0.859906
0.804777
0.816826
0.79563
0.817197
0.789586
0.74504
0.8122
0.804431
0.817456
0.803339
0.792071
0.843552
0.766661
0.814247
0.774453
0.804452
0.644725
0.515243
0.801209
0.80241
0.811186
0.798382
0.800613
0.813626
0.773386
0.805489
0.81368
0.783251
0.817931
0.777149
0.597295
0.805246
0.760853
0.776939
0.75174
0.763712
0.794274
0.788991
0.823433
0.787893
0.809616
0.803415
0.766517
0.816844
0.547033
0.731994
0.812025
0.815321
0.812986
0.803547
0.814223
0.81138
0.805967
0.82228
0.809895
0.783497
0.817837
0.802753
0.791727
0.79622
0.80534
0.58946
0.803827
0.792528
0.579008
0.814015
0.807442
0.806206
0.810969
0.704741
0.754235
0.822243
0.774951
0.811653
0.817599
0.719131
0.804629
0.825136
0.722102
0.799733
0.810991
0.779329
0.805867
0.838154
0.802201
0.818576
0.773614
0.805478
0.801307
0.814516
0.803288
0.79921
0.592912
0.816559
0.788078
0.806809
0.826652
0.696996
0.829523
0.820781
0.511847
0.807255
0.804612
0.802816
0.813733
0.825113
0.825098
0.805068
0.807171
0.81557
0.813707
0.803608
0.813994
0.805603
0.750042
0.712735
0.782091
0.815102
0.813411
0.776957
0.75901
0.814192
0.825561
0.810848
0.8138
0.697797
0.507126
0.747773
0.818778
0.807686
0.817523
0.844823
0.801042
0.718635
0.658706
0.800996
0.805699
0.69771
0.814204
0.676681
0.837582
0.730885
0.814203
0.895517
0.81587
0.801916
0.778985
0.811454
0.685714
0.81455
0.809586
0.791905
0.806872
0.779466
0.801768
0.810227
0.781935
0.803674
0.852684
0.777404
0.802235
0.503379
0.803912
0.695632
0.804224
0.794726
0.788771
0.784708
0.723678
0.803379
0.789333
0.845203
0.814757
0.814005
0.813396
0.895769
0.747957
0.802935
0.733687
0.803219
0.799701
0.805042
0.719333
0.802032
0.805772
0.645715
0.809911
0.750018
0.560242
0.84723
0.848039
0.751743
0.811074
0.795023
0.773332
0.734604
0.776744
0.786272
0.73764
0.804055
0.805099
0.723063
0.816651
0.805172
0.56286
0.813669
0.822426
0.814392
0.803627
0.613454
0.718938
0.806487
0.859756
0.494037
0.726865
0.807295
0.816307
0.797529
0.711572
0.715192
0.809214
0.81471
0.816357
0.837914
0.744744
0.755852
0.876149
0.807331
0.810903
0.795496
0.646671
0.614478
0.590074
0.660757
0.594148
0.765958
0.802012
0.804115
0.813745
0.810017
0.811685
0.860725
0.719707
0.824908
0.815316
0.818329
0.817917
0.815248