# vtk DataFile Version 1.0
unstructured grid
ascii
DATASET UNSTRUCTURED_GRID
points 14760 float
-1 0 0
-1 1 0
2 0 0
2 1 0
0 0 0
1 0 0
-1 1 0.1
-1 0 0.1
0 0 0.1
1 0 0.1
2 0 0.1
2 1 0.1
-0.99 0 0
-0.98 0 0
-0.97 0 0
-0.96 0 0
-0.95 0 0
-0.94 0 0
-0.93 0 0
-0.92 0 0
-0.91 0 0
-0.9 0 0
-0.89 0 0
-0.88 0 0
-0.87 0 0
-0.86 0 0
-0.85 0 0
-0.84 0 0
-0.83 0 0
-0.82 0 0
-0.81 0 0
-0.8 0 0
-0.79 0 0
-0.78 0 0
-0.77 0 0
-0.76 0 0
-0.75 0 0
-0.74 0 0
-0.73 0 0
-0.72 0 0
-0.71 0 0
-0.7 0 0
-0.69 0 0
-0.68 0 0
-0.67 0 0
-0.66 0 0
-0.65 0 0
-0.64 0 0
-0.63 0 0
-0.62 0 0
-0.61 0 0
-0.6 0 0
-0.59 0 0
-0.58 0 0
-0.57 0 0
-0.56 0 0
-0.55 0 0
-0.54 0 0
-0.53 0 0
-0.52 0 0
-0.51 0 0
-0.5 0 0
-0.49 0 0
-0.48 0 0
-0.47 0 0
-0.46 0 0
-0.45 0 0
-0.44 0 0
-0.43 0 0
-0.42 0 0
-0.41 0 0
-0.4 0 0
-0.39 0 0
-0.38 0 0
-0.37 0 0
-0.36 0 0
-0.35 0 0
-0.34 0 0
-0.33 0 0
-0.32 0 0
-0.31 0 0
-0.3 0 0
-0.29 0 0
-0.28 0 0
-0.27 0 0
-0.26 0 0
-0.25 0 0
-0.24 0 0
-0.23 0 0
-0.22 0 0
-0.21 0 0
-0.2 0 0
-0.19 0 0
-0.18 0 0
-0.17 0 0
-0.16 0 0
-0.15 0 0
-0.14 0 0
-0.13 0 0
-0.12 0 0
-0.11 0 0
-0.1 0 0
-0.09 0 0
-0.08 0 0
-0.07 0 0
-0.06 0 0
-0.05 0 0
-0.04 0 0
-0.03 0 0
-0.02 0 0
-0.01 0 0
1.01 0 0
1.02 0 0
1.03 0 0
1.04 0 0
1.05 0 0
1.06 0 0
1.07 0 0
1.08 0 0
1.09 0 0
1.1 0 0
1.11 0 0
1.12 0 0
1.13 0 0
1.14 0 0
1.15 0 0
1.16 0 0
1.17 0 0
1.18 0 0
1.19 0 0
1.2 0 0
1.21 0 0
1.22 0 0
1.23 0 0
1.24 0 0
1.25 0 0
1.26 0 0
1.27 0 0
1.28 0 0
1.29 0 0
1.3 0 0
1.31 0 0
1.32 0 0
1.33 0 0
1.34 0 0
1.35 0 0
1.36 0 0
1.37 0 0
1.38 0 0
1.39 0 0
1.4 0 0
1.41 0 0
1.42 0 0
1.43 0 0
1.44 0 0
1.45 0 0
1.46 0 0
1.47 0 0
1.48 0 0
1.49 0 0
1.5 0 0
1.51 0 0
1.52 0 0
1.53 0 0
1.54 0 0
1.55 0 0
1.56 0 0
1.57 0 0
1.58 0 0
1.59 0 0
1.6 0 0
1.61 0 0
1.62 0 0
1.63 0 0
1.64 0 0
1.65 0 0
1.66 0 0
1.67 0 0
1.68 0 0
1.69 0 0
1.7 0 0
1.71 0 0
1.72 0 0
1.73 0 0
1.74 0 0
1.75 0 0
1.76 0 0
1.77 0 0
1.78 0 0
1.79 0 0
1.8 0 0
1.81 0 0
1.82 0 0
1.83 0 0
1.84 0 0
1.85 0 0
1.86 0 0
1.87 0 0
1.88 0 0
1.89 0 0
1.9 0 0
1.91 0 0
1.92 0 0
1.93 0 0
1.94 0 0
1.95 0 0
1.96 0 0
1.97 0 0
1.98 0 0
1.99 0 0
2 0.0100088 0
2 0.0204183 0
2 0.0312446 0
2 0.0425043 0
2 0.0542147 0
2 0.066394 0
2 0.079061 0
2 0.092235 0
2 0.105936 0
2 0.120186 0
2 0.135007 0
2 0.150421 0
2 0.166452 0
2 0.183124 0
2 0.200465 0
2 0.218499 0
2 0.237256 0
2 0.256763 0
2 0.277051 0
2 0.298152 0
2 0.320097 0
2 0.342921 0
2 0.366659 0
2 0.391347 0
2 0.417024 0
2 0.443728 0
2 0.471502 0
2 0.500387 0
2 0.530429 0
2 0.561674 0
2 0.594169 0
2 0.627966 0
2 0.663115 0
2 0.699672 0
2 0.737692 0
2 0.777235 0
2 0.818361 0
2 0.861133 0
2 0.905617 0
2 0.951882 0
1.95 1 0
1.9 1 0
1.85 1 0
1.8 1 0
1.75 1 0
1.7 1 0
1.65 1 0
1.6 1 0
1.55 1 0
1.5 1 0
1.45 1 0
1.4 1 0
1.35 1 0
1.3 1 0
1.25 1 0
1.2 1 0
1.15 1 0
1.1 1 0
1.05 1 0
1 1 0
0.95 1 0
0.9 1 0
0.85 1 0
0.8 1 0
0.75 1 0
0.7 1 0
0.65 1 0
0.6 1 0
0.55 1 0
0.5 1 0
0.45 1 0
0.4 1 0
0.35 1 0
0.3 1 0
0.25 1 0
0.2 1 0
0.15 1 0
0.1 1 0
0.05 1 0
3.69793e-12 1 0
-0.05 1 0
-0.1 1 0
-0.15 1 0
-0.2 1 0
-0.25 1 0
-0.3 1 0
-0.35 1 0
-0.4 1 0
-0.45 1 0
-0.5 1 0
-0.55 1 0
-0.6 1 0
-0.65 1 0
-0.7 1 0
-0.75 1 0
-0.8 1 0
-0.85 1 0
-0.9 1 0
-0.95 1 0
-1 0.951882 0
-1 0.905617 0
-1 0.861133 0
-1 0.818361 0
-1 0.777235 0
-1 0.737692 0
-1 0.699672 0
-1 0.663115 0
-1 0.627966 0
-1 0.594169 0
-1 0.561674 0
-1 0.530429 0
-1 0.500387 0
-1 0.471502 0
-1 0.443728 0
-1 0.417024 0
-1 0.391347 0
-1 0.366659 0
-1 0.342921 0
-1 0.320097 0
-1 0.298152 0
-1 0.277051 0
-1 0.256763 0
-1 0.237256 0
-1 0.218499 0
-1 0.200465 0
-1 0.183124 0
-1 0.166452 0
-1 0.150421 0
-1 0.135007 0
-1 0.120186 0
-1 0.105936 0
-1 0.092235 0
-1 0.079061 0
-1 0.066394 0
-1 0.0542147 0
-1 0.0425043 0
-1 0.0312446 0
-1 0.0204183 0
-1 0.0100088 0
0.00921362 0.00379763 0
0.0184561 0.00752451 0
0.0277268 0.0111804 0
0.0370253 0.0147652 0
0.0463511 0.0182786 0
0.0557034 0.0217203 0
0.0650819 0.0250903 0
0.074486 0.0283883 0
0.083915 0.0316141 0
0.0933685 0.0347675 0
0.102846 0.0378484 0
0.112347 0.0408565 0
0.12187 0.0437917 0
0.131416 0.0466538 0
0.140983 0.0494427 0
0.150572 0.0521581 0
0.160181 0.0547999 0
0.16981 0.0573681 0
0.179458 0.0598623 0
0.189125 0.0622825 0
0.198811 0.0646285 0
0.208514 0.0669001 0
0.218234 0.0690974 0
0.227971 0.07122 0
0.237724 0.073268 0
0.247493 0.0752411 0
0.257276 0.0771393 0
0.267073 0.0789625 0
0.276884 0.0807105 0
0.286708 0.0823832 0
0.296545 0.0839806 0
0.306394 0.0855025 0
0.316254 0.0869488 0
0.326125 0.0883196 0
0.336006 0.0896146 0
0.345896 0.0908339 0
0.355796 0.0919773 0
0.365704 0.0930447 0
0.375621 0.0940362 0
0.385544 0.0949517 0
0.395474 0.095791 0
0.40541 0.0965542 0
0.415352 0.0972412 0
0.425299 0.097852 0
0.43525 0.0983865 0
0.445205 0.0988447 0
0.455164 0.0992266 0
0.465125 0.0995321 0
0.475088 0.0997613 0
0.485052 0.0999141 0
0.495017 0.0999904 0
0.504983 0.0999904 0
0.514948 0.0999141 0
0.524912 0.0997613 0
0.534875 0.0995321 0
0.544836 0.0992266 0
0.554795 0.0988447 0
0.56475 0.0983865 0
0.574701 0.097852 0
0.584648 0.0972412 0
0.59459 0.0965542 0
0.604526 0.095791 0
0.614456 0.0949517 0
0.624379 0.0940362 0
0.634296 0.0930447 0
0.644204 0.0919773 0
0.654104 0.0908339 0
0.663994 0.0896146 0
0.673875 0.0883196 0
0.683746 0.0869488 0
0.693606 0.0855025 0
0.703455 0.0839806 0
0.713292 0.0823832 0
0.723116 0.0807105 0
0.732927 0.0789625 0
0.742724 0.0771393 0
0.752508 0.0752411 0
0.762276 0.073268 0
0.772029 0.07122 0
0.781766 0.0690974 0
0.791486 0.0669001 0
0.801189 0.0646285 0
0.810875 0.0622825 0
0.820542 0.0598623 0
0.83019 0.0573681 0
0.839819 0.0547999 0
0.849428 0.0521581 0
0.859017 0.0494427 0
0.868584 0.0466538 0
0.87813 0.0437917 0
0.887653 0.0408565 0
0.897154 0.0378484 0
0.906631 0.0347675 0
0.916085 0.0316141 0
0.925514 0.0283883 0
0.934918 0.0250903 0
0.944297 0.0217203 0
0.953649 0.0182786 0
0.962975 0.0147652 0
0.972273 0.0111804 0
0.981544 0.00752451 0
0.990786 0.00379763 0
-1 0.951882 0.1
-1 0.905617 0.1
-1 0.861133 0.1
-1 0.818361 0.1
-1 0.777235 0.1
-1 0.737692 0.1
-1 0.699672 0.1
-1 0.663115 0.1
-1 0.627966 0.1
-1 0.594169 0.1
-1 0.561674 0.1
-1 0.530429 0.1
-1 0.500387 0.1
-1 0.471502 0.1
-1 0.443728 0.1
-1 0.417024 0.1
-1 0.391347 0.1
-1 0.366659 0.1
-1 0.342921 0.1
-1 0.320097 0.1
-1 0.298152 0.1
-1 0.277051 0.1
-1 0.256763 0.1
-1 0.237256 0.1
-1 0.218499 0.1
-1 0.200465 0.1
-1 0.183124 0.1
-1 0.166452 0.1
-1 0.150421 0.1
-1 0.135007 0.1
-1 0.120186 0.1
-1 0.105936 0.1
-1 0.092235 0.1
-1 0.079061 0.1
-1 0.066394 0.1
-1 0.0542147 0.1
-1 0.0425043 0.1
-1 0.0312446 0.1
-1 0.0204183 0.1
-1 0.0100088 0.1
-0.99 0 0.1
-0.98 0 0.1
-0.97 0 0.1
-0.96 0 0.1
-0.95 0 0.1
-0.94 0 0.1
-0.93 0 0.1
-0.92 0 0.1
-0.91 0 0.1
-0.9 0 0.1
-0.89 0 0.1
-0.88 0 0.1
-0.87 0 0.1
-0.86 0 0.1
-0.85 0 0.1
-0.84 0 0.1
-0.83 0 0.1
-0.82 0 0.1
-0.81 0 0.1
-0.8 0 0.1
-0.79 0 0.1
-0.78 0 0.1
-0.77 0 0.1
-0.76 0 0.1
-0.75 0 0.1
-0.74 0 0.1
-0.73 0 0.1
-0.72 0 0.1
-0.71 0 0.1
-0.7 0 0.1
-0.69 0 0.1
-0.68 0 0.1
-0.67 0 0.1
-0.66 0 0.1
-0.65 0 0.1
-0.64 0 0.1
-0.63 0 0.1
-0.62 0 0.1
-0.61 0 0.1
-0.6 0 0.1
-0.59 0 0.1
-0.58 0 0.1
-0.57 0 0.1
-0.56 0 0.1
-0.55 0 0.1
-0.54 0 0.1
-0.53 0 0.1
-0.52 0 0.1
-0.51 0 0.1
-0.5 0 0.1
-0.49 0 0.1
-0.48 0 0.1
-0.47 0 0.1
-0.46 0 0.1
-0.45 0 0.1
-0.44 0 0.1
-0.43 0 0.1
-0.42 0 0.1
-0.41 0 0.1
-0.4 0 0.1
-0.39 0 0.1
-0.38 0 0.1
-0.37 0 0.1
-0.36 0 0.1
-0.35 0 0.1
-0.34 0 0.1
-0.33 0 0.1
-0.32 0 0.1
-0.31 0 0.1
-0.3 0 0.1
-0.29 0 0.1
-0.28 0 0.1
-0.27 0 0.1
-0.26 0 0.1
-0.25 0 0.1
-0.24 0 0.1
-0.23 0 0.1
-0.22 0 0.1
-0.21 0 0.1
-0.2 0 0.1
-0.19 0 0.1
-0.18 0 0.1
-0.17 0 0.1
-0.16 0 0.1
-0.15 0 0.1
-0.14 0 0.1
-0.13 0 0.1
-0.12 0 0.1
-0.11 0 0.1
-0.1 0 0.1
-0.09 0 0.1
-0.08 0 0.1
-0.07 0 0.1
-0.06 0 0.1
-0.05 0 0.1
-0.04 0 0.1
-0.03 0 0.1
-0.02 0 0.1
-0.01 0 0.1
0.00921362 0.00379763 0.1
0.0184561 0.00752451 0.1
0.0277268 0.0111804 0.1
0.0370253 0.0147652 0.1
0.0463511 0.0182786 0.1
0.0557034 0.0217203 0.1
0.0650819 0.0250903 0.1
0.074486 0.0283883 0.1
0.083915 0.0316141 0.1
0.0933685 0.0347675 0.1
0.102846 0.0378484 0.1
0.112347 0.0408565 0.1
0.12187 0.0437917 0.1
0.131416 0.0466538 0.1
0.140983 0.0494427 0.1
0.150572 0.0521581 0.1
0.160181 0.0547999 0.1
0.16981 0.0573681 0.1
0.179458 0.0598623 0.1
0.189125 0.0622825 0.1
0.198811 0.0646285 0.1
0.208514 0.0669001 0.1
0.218234 0.0690974 0.1
0.227971 0.07122 0.1
0.237724 0.073268 0.1
0.247493 0.0752411 0.1
0.257276 0.0771393 0.1
0.267073 0.0789625 0.1
0.276884 0.0807105 0.1
0.286708 0.0823832 0.1
0.296545 0.0839806 0.1
0.306394 0.0855025 0.1
0.316254 0.0869488 0.1
0.326125 0.0883196 0.1
0.336006 0.0896146 0.1
0.345896 0.0908339 0.1
0.355796 0.0919773 0.1
0.365704 0.0930447 0.1
0.375621 0.0940362 0.1
0.385544 0.0949517 0.1
0.395474 0.095791 0.1
0.40541 0.0965542 0.1
0.415352 0.0972412 0.1
0.425299 0.097852 0.1
0.43525 0.0983865 0.1
0.445205 0.0988447 0.1
0.455164 0.0992266 0.1
0.465125 0.0995321 0.1
0.475088 0.0997613 0.1
0.485052 0.0999141 0.1
0.495017 0.0999904 0.1
0.504983 0.0999904 0.1
0.514948 0.0999141 0.1
0.524912 0.0997613 0.1
0.534875 0.0995321 0.1
0.544836 0.0992266 0.1
0.554795 0.0988447 0.1
0.56475 0.0983865 0.1
0.574701 0.097852 0.1
0.584648 0.0972412 0.1
0.59459 0.0965542 0.1
0.604526 0.095791 0.1
0.614456 0.0949517 0.1
0.624379 0.0940362 0.1
0.634296 0.0930447 0.1
0.644204 0.0919773 0.1
0.654104 0.0908339 0.1
0.663994 0.0896146 0.1
0.673875 0.0883196 0.1
0.683746 0.0869488 0.1
0.693606 0.0855025 0.1
0.703455 0.0839806 0.1
0.713292 0.0823832 0.1
0.723116 0.0807105 0.1
0.732927 0.0789625 0.1
0.742724 0.0771393 0.1
0.752508 0.0752411 0.1
0.762276 0.073268 0.1
0.772029 0.07122 0.1
0.781766 0.0690974 0.1
0.791486 0.0669001 0.1
0.801189 0.0646285 0.1
0.810875 0.0622825 0.1
0.820542 0.0598623 0.1
0.83019 0.0573681 0.1
0.839819 0.0547999 0.1
0.849428 0.0521581 0.1
0.859017 0.0494427 0.1
0.868584 0.0466538 0.1
0.87813 0.0437917 0.1
0.887653 0.0408565 0.1
0.897154 0.0378484 0.1
0.906631 0.0347675 0.1
0.916085 0.0316141 0.1
0.925514 0.0283883 0.1
0.934918 0.0250903 0.1
0.944297 0.0217203 0.1
0.953649 0.0182786 0.1
0.962975 0.0147652 0.1
0.972273 0.0111804 0.1
0.981544 0.00752451 0.1
0.990786 0.00379763 0.1
1.01 0 0.1
1.02 0 0.1
1.03 0 0.1
[...]
CELL_DATA 14313
SCALARS rho float
LOOKUP_TABLE default
0.781432
0.82427
0.805922
0.537962
0.766453
0.811935
0.812588
0.812476
0.811033
0.815181
0.81217
0.7989
0.797141
0.518154
0.812951
0.831948
0.80882
0.807738
0.810161
0.805379
0.810837
0.813972
0.812522
0.766194
0.812147
0.814684
0.742516
0.709465
0.823788
0.824405
0.812025
0.794508
0.799625
0.812118
0.804705
0.810756
0.679968
0.808956
0.811705
0.802421
0.75266
0.810504
0.542159
0.702208
0.817685
0.83575
0.810965
0.777471
0.804493
0.851186
0.675667
0.653408
0.589876
0.810668
0.819723
0.782715
0.817671
0.81473
0.810824
0.812424
0.81204
0.818464
0.794485
0.839236
0.810464
0.813391
0.852935
0.783945
0.840602
0.812943
0.798335
0.831511
0.487945
0.837247
0.726249
0.807025
0.824731
0.7472
0.696573
0.811502
0.59213
0.824757
0.833166
0.803493
0.805635
0.819343
0.811916
0.80449
0.826607
0.807024
0.779936
0.523419
0.807355
0.798031
0.726187
0.803844
0.814712
0.809033
0.803272
0.489544
0.8071
0.809736
0.812556
0.814271
0.748541
0.809336
0.802699
0.699685
0.834494
0.810076
0.813883
0.824921
0.812169
0.819374
0.804184
0.827451
0.819872
0.83626
0.778769
0.798867
0.811664
0.809089
0.859445
0.721064
0.843533
0.753549
0.78965
0.804489
0.814723
0.843047
0.809533
0.812059
0.860744
0.812349
0.823309
0.78268
0.807019
0.792277
0.817721
0.81738
0.812588
0.816809
0.803391
0.803442
0.796572
0.839076
0.805969
0.760771
0.795594
0.817407
0.797322
0.80355
0.812524
0.709179
0.821241
0.803733
0.723202
0.821144
0.812141
0.811904
0.818481
0.808756
0.64781
0.757579
0.823153
0.824513
0.7142
0.812731
0.828061
0.815541
0.688854
0.816252
0.713092
0.788004
0.808998
0.826204
0.808209
0.815493
0.820994
0.741747
0.811466
0.809601
0.773577
0.771816
0.790538
0.811094
0.812936
0.797022
0.49704
0.787308
0.757633
0.742923
0.770269
0.713617
0.812397
0.814997
0.807312
0.803405
0.806187
0.81688
0.760205
0.802955
0.828535
0.814935
0.833487
0.803355
0.816593
0.814254
0.812093
0.83461
0.804116
0.811253
0.79603
0.701043
0.814142
0.820758
0.809682
0.807285
0.834558
0.802991
0.802678
0.819255
0.806098
0.855356
0.809672
0.803164
0.818005
0.802505
0.812477
0.757343
0.636799
0.815098
0.697623
0.826909
0.802419
0.721576
0.812063
0.814113
0.814949
0.826376
0.791722
0.709988
0.747838
0.595776
0.815103
0.723915
0.799403
0.807136
0.83775
0.8152
0.575391
0.804066
0.728842
0.837372
0.801333
0.6949
0.811439
0.827093
0.814685
0.557448
0.813286
0.801278
0.799004
0.80611
0.788465
0.773961
0.815752
0.815566
0.530011
0.814719
0.813869
0.772208
0.80207
0.81215
0.780551
0.817339
0.783134
0.709369
0.802848
0.805844
0.567806
0.543804
0.756388
0.808061
0.820516
0.790113
0.811797
0.814909
0.776121
0.80599
0.803513
0.816772
0.829526
0.79324
0.80832
0.811662
0.632208
0.81895
0.700042
0.797374
0.793314
0.777615
0.835659
0.809369
0.796766
0.676609
0.668413
0.803687
0.805809
0.819675
0.804248
0.798502
0.652271
0.815212
0.822156
0.818148
0.812172
0.812982
0.799544
0.791016
0.814278
0.572219
0.808067
0.812348
0.81452
0.812701
0.765416
0.821601
0.801583
0.814315
0.81317
0.753898
0.752596
0.803409
0.803489
0.549187
0.812567
0.812053
0.807237
0.811926
0.80342
0.800968
0.728263
0.712093
0.814491
0.748478
0.758131
0.81856
0.837524
0.814295
0.80232
0.808513
0.812389
0.803474
0.817138
0.782673
0.81707
0.811821
0.810859
0.795196
0.810558
0.792243
0.811975
0.589935
0.799682
0.800521
0.812037
0.813527
0.767713
0.801635
0.812336
0.812554
0.818118
0.770283
0.81833
0.808441
0.752727
0.761751
0.812905
0.805907
0.829249
0.824803
0.823248
0.804431
0.594944
0.779116
0.600764
0.803404
0.802958
0.80089
0.814378
0.87406
0.526531
0.593973
0.838363
0.872021
0.811965
0.690302
0.802125
0.716625
0.806938
0.815853
0.707139
0.651096
0.751267
0.813039
0.477526
0.873591
0.824453
0.798599
0.808826
0.479727
0.739939
0.781825
0.817686
0.804783
0.800702
0.830302
0.812447
0.705814
0.685193
0.801624
0.806122
0.809444
0.811727
0.808827
0.812049
0.735736
0.791219
0.79722
0.802568
0.764189
0.81776
0.807913
0.812982
0.811763
0.75531
0.805623
0.804091
0.793349
0.812274
0.815786
0.807037
0.657539
0.78751
0.817576
0.812863
0.812365
0.807397
0.812823
0.80431
0.821241
0.821597
0.622523
0.855196
0.744152
0.820698
0.805043
0.746863
0.824554
0.800912
0.82554
0.548803
0.7996
0.679405
0.812126
0.809268
0.522666
0.800059
0.80467
0.798039
0.802121
0.800774
0.772363
0.811987
0.592978
0.805776
0.806138
0.799342
0.818414
0.765069
0.812122
0.809481
0.798012
0.81632
0.796636
0.802884
0.812467
0.634356
0.769393
0.734128
0.490883
0.824808
0.56857
0.802641
0.818911
0.856661
0.703523
0.739882
0.812271
0.806146
0.801057
0.793813
0.766066
0.811031
0.812532
0.797174
0.813236
0.816509
0.473363
0.812491
0.813379
0.806359
0.810242
0.604677
0.815287
0.821625
0.706132
0.788829
0.81329
0.801056
0.828311
0.831383
0.804096
0.742434
0.473984
0.81398
0.571388
0.798892
0.803335
0.774683
0.812154
0.750563
0.811441
0.806617
0.803368
0.486649
0.814373
0.827504
0.830647
0.814837
0.803496
0.803237
0.812521
0.758566
0.847387
0.83704
0.709754
0.798769
0.653597
0.7781
0.667774
0.816167
0.836256
0.799069
0.638276
0.76596
0.813787
0.824525
0.832647
0.813711
0.671213
0.53808
0.804734
0.81601
0.80146
0.815956
0.804817
0.77169
0.851345
0.815334
0.804058
0.816853
0.799035
0.744
0.798122
0.811508
0.596906
0.689305
0.803339
0.810893
0.804832
0.575398
0.811716
0.605057
0.812535
0.767666
0.816973
0.81641
0.753527
0.806661
0.792496
0.805168
0.837037
0.837327
0.831362
0.804802
0.816236
0.579912
0.812568
0.856839
0.825146
0.829358
0.804224
0.820872
0.799459
0.839873
0.808801
0.814425
0.67307
0.631262
0.83581
0.813487
0.840725
0.716178
0.801357
0.763573
0.797349
0.809623
0.793248
0.807157
0.813207
0.822785
0.828185
0.830152
0.805438
0.750149
0.804214
0.729739
0.793318
0.821598
0.801036
0.815093
0.758386
0.805086
0.804489
0.847039
0.809197
0.803414
0.806145
0.83437
0.831419
0.803599
0.856358
0.796017
0.820159
0.662312
0.803178
0.800268
0.798946
0.831794
0.609035
0.806357
0.805574
0.658851
0.814688
0.829415
0.813964
0.803391
0.806099
0.802529
0.81618
0.799019
0.720246
0.514085
0.813519
0.805751
0.801899
0.804583
0.803101
0.803707
0.810858
0.798212
0.813843
0.583591
0.812936
0.809433
0.812026
0.842411
0.813839
0.834321
0.811555
0.797788
0.812923
0.682579
0.803751
0.850414
0.812955
0.793051
0.814304
0.634146
0.805529
0.567695
0.663113
0.673876
0.809579
0.815612
0.812466
0.497839
0.694638
0.803486
0.830862
0.747468
0.831537
0.805178
0.804854
0.796842
0.695801
0.751452
0.547852
0.802816
0.811827
0.804419
0.820938
0.67005
0.628606
0.854214
0.80167
0.814153
0.729401
0.813674
0.526866
0.820927
0.7036
0.813962
0.817616
0.801742
0.802218
0.82526
0.794957
0.803628
0.804009
0.631563
0.806624
0.65359
0.798932
0.798351
0.813851
0.81537
0.729261
0.815502
0.755713
0.803177
0.721121
0.805121
0.74584
0.671682
0.824632
0.812543
0.799241
0.726588
0.811496
0.658634
0.811042
0.802948
0.72809
0.82595
0.816466
0.638184
0.696201
0.825877
0.803669
0.725841
0.833761
0.834806
0.836196
0.811915
0.548606
0.751177
0.821082
0.820418
0.522445
0.640238
0.815724
0.812602
0.722235
0.778458
0.812204
0.807172
0.758122
0.812325
0.813632
0.803582
0.729085
0.802262
0.797029
0.812202
0.577327
0.805585
0.82188
0.574578
0.818263
0.845516
0.812172
0.676786
0.8119
0.811764
0.812005
0.80118
0.818823
0.803279
0.806711
0.804875
0.803323
0.813638
0.486891
0.810005
0.809798
0.692453
0.603679
0.78615
0.798466
0.812243
0.753258
0.566408
0.811584
0.783624
0.812216
0.821597
0.813622
0.825184
0.748443
0.591045
0.811692
0.839184
0.812169
0.708836
0.803585
0.727466
0.813276
0.811205
0.812078
0.817467
0.801282
0.813206
0.808383
0.757525
0.816347
0.812774
0.75192
0.791942
0.711169
0.559818
0.733793
0.781683
0.815926
0.811474
0.810784
0.810711
0.803309
0.79549
0.808091
0.706827
0.753369
0.811744
0.803448
0.804853
0.818394
0.604671
0.813691
0.80391
0.843597
0.807985
0.636823
0.793725
0.803847
0.842518
0.691306
0.56239
0.577349
0.635457
0.817712
0.804537
0.560953
0.586201
0.820054
0.812339
0.889312
0.804826
0.829502
0.812575
0.769429
0.810945
0.812733
0.812235
0.81078
0.812173
0.798152
0.812298
0.64237
0.815837
0.803643
0.809751
0.756606
0.817266
0.611159
0.855662
0.803944
0.827083
0.812169
0.808026
0.747985
0.822389
0.812052
0.837325
0.811955
0.812649
0.641834
0.826839
0.81031
0.812527
0.836654
0.822661
0.554193
0.796596
0.802902
0.811045
0.816997
0.803954
0.800303
0.815327
0.765219
0.805077
0.815969
0.863491
0.831227
0.587484
0.796162
0.754215
0.814155
0.76163
0.819489
0.804867
0.806412
0.812385
0.789217
0.805713
0.815504
0.821909
0.787395
0.669403
0.734068
0.698514
0.814246
0.836048
0.837996
0.733781
0.808976
0.753894
0.610091
0.812191
0.799586
0.811956
0.803589
0.631432
0.802248
0.77658
0.736638
0.810921
0.744582
0.807717
0.816553
0.859786
0.809667
0.807123
0.740095
0.812634
0.775963
0.839443
0.883775
0.797146
0.521019
0.799811
0.608049
0.76939
0.657479
0.799185
0.495473
0.815112
0.84995
0.805953
0.810777
0.819798
0.802956
0.803259
0.696888
0.823068
0.812082
0.804167
0.806721
0.792479
0.803575
0.806917
0.629001
0.816637
0.802139
0.84536
0.808118
0.804406
0.801608
0.813094
0.813209
0.807669
0.803545
0.787635
0.812304
0.79536
0.801875
0.81339
0.771912
0.567451
0.8128
0.818252
0.804017
0.724336
0.801292
0.807808
0.803489
0.698788
0.873312
0.81177
0.816815
0.812193
0.847917
0.778265
0.812261
0.787728
0.815935
0.822124
0.66343
0.812297
0.728733
0.81905
0.718682
0.799594
0.751358
0.802632
0.593715
0.809348
0.73487
0.477172
0.820229
0.662028
0.769062
0.817322
0.812449
0.776647
0.811393
0.719188
0.638335
0.826238
0.700014
0.816804
0.767494
0.801676
0.807951
0.813386
0.652432
0.804358
0.774833
0.809737
0.81218
0.829133
0.806138
0.687773
0.755567
0.651804
0.798298
0.803128
0.812103
0.815503
0.81194
0.811678
0.809518
0.663685
0.731421
0.489994
0.696883
0.814001
0.808229
0.833033
0.809452
0.814801
0.709416
0.874253
0.81527
0.826262
0.571936
0.822956
0.812311
0.840732
0.845585
0.826606
0.830172
0.820265
0.540937
0.805756
0.81501
0.715678
0.816854
0.801423
0.812247
0.807983
0.812718
0.812776
0.767331
0.720887
0.798128
0.800428
0.57215
0.814121
0.859048
0.815407
0.659641
0.822617
0.813233
0.819616
0.835325
0.690407
0.487226
0.804867
0.839895
0.806085
0.803987
0.814315
0.801594
0.812447
0.809643
0.800058
0.804265
0.804703
0.81259
0.805577
0.806197
0.798703
0.836196
0.830744
0.853249
0.813008
0.807506
0.814561
0.813095
0.812205
0.811138
0.815664
0.834016
0.808626
0.811222
0.601657
0.83059
0.709846
0.8682
0.803641
0.833314
0.799161
0.786139
0.785819
0.739945
0.821287
0.810972
0.811623
0.81349
0.775911
0.807984
0.584592
0.806097
0.813105
0.813253
0.79572
0.812186
0.611298
0.78355
0.558629
0.820846
0.797033
0.77463
0.802037
0.813776
0.81255
0.812582
0.737736
0.808375
0.812049
0.810489
0.803669
0.803836
0.747196
0.767447
0.80939
0.803741
0.696967
0.598236
0.49044
0.841075
0.806087
0.778685
0.781267
0.8243
0.803587
0.803978
0.818118
0.779299
0.756976
0.816245
0.807604
0.811259
0.83725
0.804865
0.811869
0.808277
0.484221
0.803462
0.812021
0.773831
0.819493
0.814309
0.825663
0.600348
0.710105
0.573454
0.82831
0.815693
0.743463
0.811867
0.676961
0.813847
0.810733
0.812023
0.803214
0.81188
0.577235
0.686657
0.806227
0.81341
0.793725
0.801403
0.831085
0.798828
0.803066
0.64358
0.807872
0.812086
0.804323
0.812381
0.802748
0.617356
0.814386
0.812496
0.572807
0.697795
0.793252
0.828306
0.697972
0.804018
0.793684
0.81226
0.756562
0.685135
0.810563
0.795937
0.799459
0.766412
0.541172
0.820315
0.673725
0.747861
0.731214
0.803985
0.797453
0.811584
0.660503
0.767658
0.803992
0.81509
0.592883
0.799038
0.825801
0.80729
0.539744
0.805621
0.783475
0.707693
0.706431
0.800425
0.819208
0.813117
0.808775
0.700156
0.739774
0.641681
0.832383
0.842928
0.816982
0.788209
0.865245
0.69734
0.813459
0.766859
0.790287
0.795569
0.812099
0.804002
0.81172
0.787105
0.755402
0.819833
0.796884
0.84218
0.719484
0.791409
0.805542
0.723396
0.803342
0.814586
0.5763
0.801967
0.7991
0.802801
0.821268
0.764387
0.800206
0.722787
0.812272
0.808854
0.725373
0.812273
0.816303
0.828722
0.80562
0.787207
0.797799
0.805686
0.726342
0.812578
0.801323
0.677888
0.806951
0.780349
0.831949
0.820944
0.819087
0.839361
0.848444
0.699651
0.813832
0.795626
0.787359
0.617765
0.817021
0.803778
0.812354
0.776291
0.853504
0.832853
0.781866
0.84219
0.779828
0.800653
0.772064
0.812345
0.721865
0.636037
0.844249
0.661353
0.792838
0.839768
0.812559
0.671464
0.809261
0.752022
0.804008
0.799031
0.781477
0.804175
0.801221
0.802822
0.80192
0.785671
0.812153
0.781527
0.816365
0.807503
0.713045
0.783949
0.815195
0.812581
0.805514
0.564402
0.825182
0.812967
0.81217
0.70405
0.804808
0.80119
0.801464
0.816002
0.746211
0.816084
0.80069
0.804673
0.755408
0.811616
0.812772
0.806032
0.76911
0.808051
0.813094
0.808069
0.815907
0.808441
0.806087
0.823019
0.804619
0.78885
0.806363
0.812321
0.818203
0.778891
0.703732
0.813887
0.812213
0.800893
0.742657
0.788857
0.654306
0.8034
0.540716
0.803187
0.814532
0.774965
0.834658
0.51636
0.809596
0.738589
0.810616
0.534738
0.804481
0.827989
0.81344
0.818829
0.734529
0.840997
0.554216
0.823606
0.702928
0.799715
0.479188
0.670092
0.812687
0.812195
0.74194
0.801124
0.820939
0.612297
0.822068
0.770884
0.833567
0.8122
0.814259
0.813263
0.803843
0.837007
0.81078
0.803782
0.477079
0.803131
0.843547
0.802308
0.801479
0.767685
0.805554
0.812134
0.81229
0.796753
0.734456
0.810554
0.815608
0.603273
0.804196
0.539286
0.815769
0.540335
0.812139
0.770532
0.682804
0.733362
0.783101
0.713319
0.8417
0.813769
0.796982
0.804006
0.703529
0.802578
0.789556
0.802486
0.815057
0.801841
0.731173
0.69859
0.800768
0.772385
0.519448
0.811351
0.664054
0.794151
0.705145
0.825112
0.80958
0.825142
0.810284
0.8373
0.807392
0.580741
0.829342
0.807148
0.801704
0.815548
0.812131
0.812727
0.814609
0.825215
0.816501
0.618488
0.804771
0.800676
0.81303
0.692371
0.802335
0.823402
0.75651
0.688782
0.807612
0.68895
0.731853
0.810179
0.812848
0.668775
0.841533
0.767072
0.805413
0.796602
0.809947
0.844554
0.801098
0.539604
0.81501
0.70753
0.550413
0.778173
0.758335
0.769663
0.812341
0.803524
0.816476
0.812167
0.586116
0.78752
0.831429
0.812242
0.591581
0.721983
0.635561
0.81677
0.810601
0.691121
0.80401
0.812308
0.799488
0.834393
0.606663
0.840408
0.74012
0.8121
0.812612
0.670022
0.812665
0.720665
0.791913
0.716081
0.812016
0.784594
0.634266
0.724352
0.712743
0.833209
0.809554
0.819426
0.822129
0.803355
0.808552
0.802974
0.817721
0.803283
0.687701
0.803475
0.603762
0.776855
0.807201
0.802458
0.812314
0.824354
0.803333
0.717388
0.709647
0.667522
0.790422
0.816824
0.748941
0.581407
0.751651
0.810406
0.801877
0.760329
0.803715
0.823212
0.753356
0.569145
0.702475
0.798781
0.812313
0.864336
0.814757
0.811923
0.851867
0.799734
0.801881
0.814529
0.812406
0.805479
0.71789
0.809176
0.695835
0.862278
0.778822
0.813564
0.576447
0.796657
0.529657
0.583539
0.586657
0.808051
0.803642
0.809402
0.758358
0.803565
0.532827
0.782375
0.803082
0.734823
0.814459
0.801791
0.815959
0.842948
0.531438
0.812158
0.802096
0.809747
0.81677
0.813016
0.812494
0.754322
0.797316
0.798831
0.803246
0.797738
0.810861
0.845514
0.818674
0.723958
0.804711
0.61082
0.813343
0.812215
0.587002
0.76697
0.767035
0.5369
0.784416
0.803656
0.878296
0.798524
0.813233
0.755403
0.79446
0.797208
0.809358
0.782746
0.542472
0.71021
0.680639
0.781124
0.814768
0.802936
0.821873
0.790283
0.801956
0.812942
0.798241
0.852206
0.705199
0.812028
0.780751
0.531511
0.517882
0.813054
0.803564
0.805468
0.560805
0.797013
0.803761
0.659341
0.813869
0.790754
0.806694
0.814944
0.537284
0.724268
0.719203
0.812608
0.832188
0.630374
0.78988
0.71667
0.813742
0.827342
0.779508
0.773303
0.535883
0.811676
0.802418
0.723804
0.852252
0.805838
0.723153
0.740004
0.764017
0.810977
0.563773
0.796727
0.73795
0.800347
0.822007
0.719772
0.799338
0.811881
0.716672
0.813046
0.706171
0.816118
0.79837
0.759613
0.690602
0.809036
0.80003
0.813519
0.669792
0.805393
0.805002
0.811767
0.699659
0.812315
0.808536
0.831823
0.657431
0.815627
0.740906
0.812106
0.805872
0.842274
0.803705
0.819039
0.749126
0.815322
0.838869
0.832902
0.816544
0.845804
0.7523
0.847955
0.826152
0.803985
0.825815
0.805669
0.646843
0.778207
0.814071
0.746975
0.695563
0.798611
0.804233
0.681408
0.797595
0.538458
0.848666
0.696791
0.706423
0.813716
0.77457
0.806995
0.798964
0.807054
0.803906
0.812187
0.835818
0.730366
0.772273
0.588661
0.810194
0.777073
0.81099
0.805135
0.570392
0.802927
0.80254
0.80765
0.798804
0.816863
0.80818
0.709246
0.823235
0.848131
0.684644
0.743806
0.812349
0.801077
0.71279
0.814408
0.754528
0.79683
0.802939
0.805398
0.837228
0.668981
0.722976
0.800821
0.702254
0.772695
0.832222
0.532482
0.691564
0.799605
0.804309
0.803376
0.741712
0.82249
0.807039
0.803679
0.80816
0.813458
0.696263
0.649818
0.809703
0.813956
0.799406
0.871757
0.80284
0.812535
0.799071
0.810102
0.811391
0.808413
0.653535
0.814783
0.816718
0.803456
0.802024
0.799551
0.617559
0.809857
0.810685
0.812596
0.86255
0.814572
0.801524
0.481541
0.836443
0.693398
0.826496
0.805921
0.813839
0.824172
0.809281
0.812244
0.731314
0.551791
0.492713
0.812504
0.809125
0.534732
0.795607
0.814637
0.833405
0.504769
0.809631
0.813586
0.802399
0.809137
0.531049
0.813279
0.808278
0.560363
0.81239
0.815408
0.539338
0.808927
0.812832
0.775925
0.80641
0.811263
0.809695
0.799165
0.82598
0.534314
0.830338
0.815845
0.804086
0.742295
0.786301
0.811543
0.809453
0.80228
0.816066
0.800726
0.657948
0.806324
0.601531
0.812159
0.660101
0.746506
0.797029
0.71847
0.803552
0.58004
0.849801
0.812388
0.812503
0.799437
0.802763
0.803188
0.813688
0.814519
0.670331
0.718141
0.726575
0.814931
0.721817
0.581591
0.817503
0.783839
0.827972
0.811848
0.809422
0.732674
0.536616
0.79876
0.790184
0.497038
0.814006
0.813177
0.735742
0.805969
0.768643
0.607639
0.810102
0.814704
0.788772
0.610088
0.802341
0.783039
0.826459
0.813146
0.810581
0.81193
0.813006
0.715196
0.800183
0.815887
0.695497
0.481394
0.733294
0.798836
0.731076
0.813182
0.798286
0.80556
0.782641
0.867378
0.803561
0.8017
0.825879
0.85939
0.804639
0.815824
0.794487
0.816054
0.789219
0.744144
0.811955
0.804286
0.816367
0.803262
0.790961
0.842879
0.766173
0.812906
0.7735
0.803836
0.642786
0.51005
0.801019
0.802203
0.80972
0.798185
0.799789
0.812121
0.772976
0.804756
0.8122
0.782324
0.81703
0.777168
0.593787
0.805076
0.760901
0.776303
0.750633
0.763677
0.793971
0.788635
0.823094
0.787569
0.809451
0.803374
0.76529
0.815671
0.542805
0.72982
0.810716
0.814152
0.811593
0.802472
0.812999
0.810626
0.805785
0.821288
0.809718
0.783027
0.81675
0.801854
0.790627
0.795941
0.805194
0.586502
0.803652
0.792224
0.575006
0.813284
0.807266
0.80607
0.810791
0.702623
0.754794
0.821242
0.774908
0.811428
0.816475
0.721817
0.804504
0.824225
0.720298
0.799472
0.809689
0.778665
0.804859
0.837153
0.80195
0.817471
0.772656
0.805359
0.800453
0.813246
0.802285
0.798076
0.589183
0.815375
0.786887
0.80666
0.825743
0.691883
0.828664
0.820063
0.506054
0.806524
0.804476
0.801647
0.812439
0.824345
0.82418
0.804933
0.806059
0.814332
0.813423
0.803534
0.812735
0.804869
0.749367
0.708804
0.781047
0.813833
0.812245
0.775994
0.757932
0.813965
0.825033
0.810571
0.812405
0.692357
0.501475
0.747743
0.817679
0.80687
0.816393
0.844265
0.800051
0.715348
0.654762
0.799834
0.804851
0.694645
0.812849
0.67185
0.836903
0.729426
0.813012
0.895284
0.815649
0.800979
0.777886
0.811154
0.682001
0.814243
0.808382
0.79157
0.805759
0.779427
0.800823
0.810061
0.780642
0.80359
0.852136
0.777059
0.802148
0.493955
0.803289
0.694099
0.804116
0.794491
0.788608
0.783748
0.722392
0.802248
0.788322
0.844544
0.813458
0.812627
0.811972
0.895541
0.746628
0.802765
0.731215
0.803166
0.798542
0.804583
0.717069
0.801096
0.805541
0.639875
0.808809
0.748752
0.536568
0.846595
0.847415
0.750236
0.810808
0.794723
0.772181
0.7321
0.776097
0.785547
0.736394
0.80388
0.804525
0.719925
0.815469
0.805006
0.557524
0.812192
0.8216
0.813382
0.803524
0.611013
0.715495
0.806305
0.859243
0.484809
0.724811
0.80656
0.816011
0.796576
0.713015
0.711275
0.809052
0.813408
0.815168
0.837177
0.745128
0.754585
0.875791
0.806935
0.809419
0.795218
0.638637
0.599609
0.586466
0.657454
0.58712
0.764415
0.800877
0.803496
0.812443
0.809235
0.811508
0.860225
0.715976
0.82399
0.81406
0.817236
0.816789
0.813989
0.813142
0.811752
0.812145