# vtk DataFile Version 1.0
unstructured grid
ascii
DATASET UNSTRUCTURED_GRID
points 14760 float
-1 0 0
-1 1 0
2 0 0
2 1 0
0 0 0
1 0 0
-1 1 0.1
-1 0 0.1
0 0 0.1
1 0 0.1
2 0 0.1
2 1 0.1
-0.99 0 0
-0.98 0 0
-0.97 0 0
-0.96 0 0
-0.95 0 0
-0.94 0 0
-0.93 0 0
-0.92 0 0
-0.91 0 0
-0.9 0 0
-0.89 0 0
-0.88 0 0
-0.87 0 0
-0.86 0 0
-0.85 0 0
-0.84 0 0
-0.83 0 0
-0.82 0 0
-0.81 0 0
-0.8 0 0
-0.79 0 0
-0.78 0 0
-0.77 0 0
-0.76 0 0
-0.75 0 0
-0.74 0 0
-0.73 0 0
-0.72 0 0
-0.71 0 0
-0.7 0 0
-0.69 0 0
-0.68 0 0
-0.67 0 0
-0.66 0 0
-0.65 0 0
-0.64 0 0
-0.63 0 0
-0.62 0 0
-0.61 0 0
-0.6 0 0
-0.59 0 0
-0.58 0 0
-0.57 0 0
-0.56 0 0
-0.55 0 0
-0.54 0 0
-0.53 0 0
-0.52 0 0
-0.51 0 0
-0.5 0 0
-0.49 0 0
-0.48 0 0
-0.47 0 0
-0.46 0 0
-0.45 0 0
-0.44 0 0
-0.43 0 0
-0.42 0 0
-0.41 0 0
-0.4 0 0
-0.39 0 0
-0.38 0 0
-0.37 0 0
-0.36 0 0
-0.35 0 0
-0.34 0 0
-0.33 0 0
-0.32 0 0
-0.31 0 0
-0.3 0 0
-0.29 0 0
-0.28 0 0
-0.27 0 0
-0.26 0 0
-0.25 0 0
-0.24 0 0
-0.23 0 0
-0.22 0 0
-0.21 0 0
-0.2 0 0
-0.19 0 0
-0.18 0 0
-0.17 0 0
-0.16 0 0
-0.15 0 0
-0.14 0 0
-0.13 0 0
-0.12 0 0
-0.11 0 0
-0.1 0 0
-0.09 0 0
-0.08 0 0
-0.07 0 0
-0.06 0 0
-0.05 0 0
-0.04 0 0
-0.03 0 0
-0.02 0 0
-0.01 0 0
1.01 0 0
1.02 0 0
1.03 0 0
1.04 0 0
1.05 0 0
1.06 0 0
1.07 0 0
1.08 0 0
1.09 0 0
1.1 0 0
1.11 0 0
1.12 0 0
1.13 0 0
1.14 0 0
1.15 0 0
1.16 0 0
1.17 0 0
1.18 0 0
1.19 0 0
1.2 0 0
1.21 0 0
1.22 0 0
1.23 0 0
1.24 0 0
1.25 0 0
1.26 0 0
1.27 0 0
1.28 0 0
1.29 0 0
1.3 0 0
1.31 0 0
1.32 0 0
1.33 0 0
1.34 0 0
1.35 0 0
1.36 0 0
1.37 0 0
1.38 0 0
1.39 0 0
1.4 0 0
1.41 0 0
1.42 0 0
1.43 0 0
1.44 0 0
1.45 0 0
1.46 0 0
1.47 0 0
1.48 0 0
1.49 0 0
1.5 0 0
1.51 0 0
1.52 0 0
1.53 0 0
1.54 0 0
1.55 0 0
1.56 0 0
1.57 0 0
1.58 0 0
1.59 0 0
1.6 0 0
1.61 0 0
1.62 0 0
1.63 0 0
1.64 0 0
1.65 0 0
1.66 0 0
1.67 0 0
1.68 0 0
1.69 0 0
1.7 0 0
1.71 0 0
1.72 0 0
1.73 0 0
1.74 0 0
1.75 0 0
1.76 0 0
1.77 0 0
1.78 0 0
1.79 0 0
1.8 0 0
1.81 0 0
1.82 0 0
1.83 0 0
1.84 0 0
1.85 0 0
1.86 0 0
1.87 0 0
1.88 0 0
1.89 0 0
1.9 0 0
1.91 0 0
1.92 0 0
1.93 0 0
1.94 0 0
1.95 0 0
1.96 0 0
1.97 0 0
1.98 0 0
1.99 0 0
2 0.0100088 0
2 0.0204183 0
2 0.0312446 0
2 0.0425043 0
2 0.0542147 0
2 0.066394 0
2 0.079061 0
2 0.092235 0
2 0.105936 0
2 0.120186 0
2 0.135007 0
2 0.150421 0
2 0.166452 0
2 0.183124 0
2 0.200465 0
2 0.218499 0
2 0.237256 0
2 0.256763 0
2 0.277051 0
2 0.298152 0
2 0.320097 0
2 0.342921 0
2 0.366659 0
2 0.391347 0
2 0.417024 0
2 0.443728 0
2 0.471502 0
2 0.500387 0
2 0.530429 0
2 0.561674 0
2 0.594169 0
2 0.627966 0
2 0.663115 0
2 0.699672 0
2 0.737692 0
2 0.777235 0
2 0.818361 0
2 0.861133 0
2 0.905617 0
2 0.951882 0
1.95 1 0
1.9 1 0
1.85 1 0
1.8 1 0
1.75 1 0
1.7 1 0
1.65 1 0
1.6 1 0
1.55 1 0
1.5 1 0
1.45 1 0
1.4 1 0
1.35 1 0
1.3 1 0
1.25 1 0
1.2 1 0
1.15 1 0
1.1 1 0
1.05 1 0
1 1 0
0.95 1 0
0.9 1 0
0.85 1 0
0.8 1 0
0.75 1 0
0.7 1 0
0.65 1 0
0.6 1 0
0.55 1 0
0.5 1 0
0.45 1 0
0.4 1 0
0.35 1 0
0.3 1 0
0.25 1 0
0.2 1 0
0.15 1 0
0.1 1 0
0.05 1 0
3.69793e-12 1 0
-0.05 1 0
-0.1 1 0
-0.15 1 0
-0.2 1 0
-0.25 1 0
-0.3 1 0
-0.35 1 0
-0.4 1 0
-0.45 1 0
-0.5 1 0
-0.55 1 0
-0.6 1 0
-0.65 1 0
-0.7 1 0
-0.75 1 0
-0.8 1 0
-0.85 1 0
-0.9 1 0
-0.95 1 0
-1 0.951882 0
-1 0.905617 0
-1 0.861133 0
-1 0.818361 0
-1 0.777235 0
-1 0.737692 0
-1 0.699672 0
-1 0.663115 0
-1 0.627966 0
-1 0.594169 0
-1 0.561674 0
-1 0.530429 0
-1 0.500387 0
-1 0.471502 0
-1 0.443728 0
-1 0.417024 0
-1 0.391347 0
-1 0.366659 0
-1 0.342921 0
-1 0.320097 0
-1 0.298152 0
-1 0.277051 0
-1 0.256763 0
-1 0.237256 0
-1 0.218499 0
-1 0.200465 0
-1 0.183124 0
-1 0.166452 0
-1 0.150421 0
-1 0.135007 0
-1 0.120186 0
-1 0.105936 0
-1 0.092235 0
-1 0.079061 0
-1 0.066394 0
-1 0.0542147 0
-1 0.0425043 0
-1 0.0312446 0
-1 0.0204183 0
-1 0.0100088 0
0.00921362 0.00379763 0
0.0184561 0.00752451 0
0.0277268 0.0111804 0
0.0370253 0.0147652 0
0.0463511 0.0182786 0
0.0557034 0.0217203 0
0.0650819 0.0250903 0
0.074486 0.0283883 0
0.083915 0.0316141 0
0.0933685 0.0347675 0
0.102846 0.0378484 0
0.112347 0.0408565 0
0.12187 0.0437917 0
0.131416 0.0466538 0
0.140983 0.0494427 0
0.150572 0.0521581 0
0.160181 0.0547999 0
0.16981 0.0573681 0
0.179458 0.0598623 0
0.189125 0.0622825 0
0.198811 0.0646285 0
0.208514 0.0669001 0
0.218234 0.0690974 0
0.227971 0.07122 0
0.237724 0.073268 0
0.247493 0.0752411 0
0.257276 0.0771393 0
0.267073 0.0789625 0
0.276884 0.0807105 0
0.286708 0.0823832 0
0.296545 0.0839806 0
0.306394 0.0855025 0
0.316254 0.0869488 0
0.326125 0.0883196 0
0.336006 0.0896146 0
0.345896 0.0908339 0
0.355796 0.0919773 0
0.365704 0.0930447 0
0.375621 0.0940362 0
0.385544 0.0949517 0
0.395474 0.095791 0
0.40541 0.0965542 0
0.415352 0.0972412 0
0.425299 0.097852 0
0.43525 0.0983865 0
0.445205 0.0988447 0
0.455164 0.0992266 0
0.465125 0.0995321 0
0.475088 0.0997613 0
0.485052 0.0999141 0
0.495017 0.0999904 0
0.504983 0.0999904 0
0.514948 0.0999141 0
0.524912 0.0997613 0
0.534875 0.0995321 0
0.544836 0.0992266 0
0.554795 0.0988447 0
0.56475 0.0983865 0
0.574701 0.097852 0
0.584648 0.0972412 0
0.59459 0.0965542 0
0.604526 0.095791 0
0.614456 0.0949517 0
0.624379 0.0940362 0
0.634296 0.0930447 0
0.644204 0.0919773 0
0.654104 0.0908339 0
0.663994 0.0896146 0
0.673875 0.0883196 0
0.683746 0.0869488 0
0.693606 0.0855025 0
0.703455 0.0839806 0
0.713292 0.0823832 0
0.723116 0.0807105 0
0.732927 0.0789625 0
0.742724 0.0771393 0
0.752508 0.0752411 0
0.762276 0.073268 0
0.772029 0.07122 0
0.781766 0.0690974 0
0.791486 0.0669001 0
0.801189 0.0646285 0
0.810875 0.0622825 0
0.820542 0.0598623 0
0.83019 0.0573681 0
0.839819 0.0547999 0
0.849428 0.0521581 0
0.859017 0.0494427 0
0.868584 0.0466538 0
0.87813 0.0437917 0
0.887653 0.0408565 0
0.897154 0.0378484 0
0.906631 0.0347675 0
0.916085 0.0316141 0
0.925514 0.0283883 0
0.934918 0.0250903 0
0.944297 0.0217203 0
0.953649 0.0182786 0
0.962975 0.0147652 0
0.972273 0.0111804 0
0.981544 0.00752451 0
0.990786 0.00379763 0
-1 0.951882 0.1
-1 0.905617 0.1
-1 0.861133 0.1
-1 0.818361 0.1
-1 0.777235 0.1
-1 0.737692 0.1
-1 0.699672 0.1
-1 0.663115 0.1
-1 0.627966 0.1
-1 0.594169 0.1
-1 0.561674 0.1
-1 0.530429 0.1
-1 0.500387 0.1
-1 0.471502 0.1
-1 0.443728 0.1
-1 0.417024 0.1
-1 0.391347 0.1
-1 0.366659 0.1
-1 0.342921 0.1
-1 0.320097 0.1
-1 0.298152 0.1
-1 0.277051 0.1
-1 0.256763 0.1
-1 0.237256 0.1
-1 0.218499 0.1
-1 0.200465 0.1
-1 0.183124 0.1
-1 0.166452 0.1
-1 0.150421 0.1
-1 0.135007 0.1
-1 0.120186 0.1
-1 0.105936 0.1
-1 0.092235 0.1
-1 0.079061 0.1
-1 0.066394 0.1
-1 0.0542147 0.1
-1 0.0425043 0.1
-1 0.0312446 0.1
-1 0.0204183 0.1
-1 0.0100088 0.1
-0.99 0 0.1
-0.98 0 0.1
-0.97 0 0.1
-0.96 0 0.1
-0.95 0 0.1
-0.94 0 0.1
-0.93 0 0.1
-0.92 0 0.1
-0.91 0 0.1
-0.9 0 0.1
-0.89 0 0.1
-0.88 0 0.1
-0.87 0 0.1
-0.86 0 0.1
-0.85 0 0.1
-0.84 0 0.1
-0.83 0 0.1
-0.82 0 0.1
-0.81 0 0.1
-0.8 0 0.1
-0.79 0 0.1
-0.78 0 0.1
-0.77 0 0.1
-0.76 0 0.1
-0.75 0 0.1
-0.74 0 0.1
-0.73 0 0.1
-0.72 0 0.1
-0.71 0 0.1
-0.7 0 0.1
-0.69 0 0.1
-0.68 0 0.1
-0.67 0 0.1
-0.66 0 0.1
-0.65 0 0.1
-0.64 0 0.1
-0.63 0 0.1
-0.62 0 0.1
-0.61 0 0.1
-0.6 0 0.1
-0.59 0 0.1
-0.58 0 0.1
-0.57 0 0.1
-0.56 0 0.1
-0.55 0 0.1
-0.54 0 0.1
-0.53 0 0.1
-0.52 0 0.1
-0.51 0 0.1
-0.5 0 0.1
-0.49 0 0.1
-0.48 0 0.1
-0.47 0 0.1
-0.46 0 0.1
-0.45 0 0.1
-0.44 0 0.1
-0.43 0 0.1
-0.42 0 0.1
-0.41 0 0.1
-0.4 0 0.1
-0.39 0 0.1
-0.38 0 0.1
-0.37 0 0.1
-0.36 0 0.1
-0.35 0 0.1
-0.34 0 0.1
-0.33 0 0.1
-0.32 0 0.1
-0.31 0 0.1
-0.3 0 0.1
-0.29 0 0.1
-0.28 0 0.1
-0.27 0 0.1
-0.26 0 0.1
-0.25 0 0.1
-0.24 0 0.1
-0.23 0 0.1
-0.22 0 0.1
-0.21 0 0.1
-0.2 0 0.1
-0.19 0 0.1
-0.18 0 0.1
-0.17 0 0.1
-0.16 0 0.1
-0.15 0 0.1
-0.14 0 0.1
-0.13 0 0.1
-0.12 0 0.1
-0.11 0 0.1
-0.1 0 0.1
-0.09 0 0.1
-0.08 0 0.1
-0.07 0 0.1
-0.06 0 0.1
-0.05 0 0.1
-0.04 0 0.1
-0.03 0 0.1
-0.02 0 0.1
-0.01 0 0.1
0.00921362 0.00379763 0.1
0.0184561 0.00752451 0.1
0.0277268 0.0111804 0.1
0.0370253 0.0147652 0.1
0.0463511 0.0182786 0.1
0.0557034 0.0217203 0.1
0.0650819 0.0250903 0.1
0.074486 0.0283883 0.1
0.083915 0.0316141 0.1
0.0933685 0.0347675 0.1
0.102846 0.0378484 0.1
0.112347 0.0408565 0.1
0.12187 0.0437917 0.1
0.131416 0.0466538 0.1
0.140983 0.0494427 0.1
0.150572 0.0521581 0.1
0.160181 0.0547999 0.1
0.16981 0.0573681 0.1
0.179458 0.0598623 0.1
0.189125 0.0622825 0.1
0.198811 0.0646285 0.1
0.208514 0.0669001 0.1
0.218234 0.0690974 0.1
0.227971 0.07122 0.1
0.237724 0.073268 0.1
0.247493 0.0752411 0.1
0.257276 0.0771393 0.1
0.267073 0.0789625 0.1
0.276884 0.0807105 0.1
0.286708 0.0823832 0.1
0.296545 0.0839806 0.1
0.306394 0.0855025 0.1
0.316254 0.0869488 0.1
0.326125 0.0883196 0.1
0.336006 0.0896146 0.1
0.345896 0.0908339 0.1
0.355796 0.0919773 0.1
0.365704 0.0930447 0.1
0.375621 0.0940362 0.1
0.385544 0.0949517 0.1
0.395474 0.095791 0.1
0.40541 0.0965542 0.1
0.415352 0.0972412 0.1
0.425299 0.097852 0.1
0.43525 0.0983865 0.1
0.445205 0.0988447 0.1
0.455164 0.0992266 0.1
0.465125 0.0995321 0.1
0.475088 0.0997613 0.1
0.485052 0.0999141 0.1
0.495017 0.0999904 0.1
0.504983 0.0999904 0.1
0.514948 0.0999141 0.1
0.524912 0.0997613 0.1
0.534875 0.0995321 0.1
0.544836 0.0992266 0.1
0.554795 0.0988447 0.1
0.56475 0.0983865 0.1
0.574701 0.097852 0.1
0.584648 0.0972412 0.1
0.59459 0.0965542 0.1
0.604526 0.095791 0.1
0.614456 0.0949517 0.1
0.624379 0.0940362 0.1
0.634296 0.0930447 0.1
0.644204 0.0919773 0.1
0.654104 0.0908339 0.1
0.663994 0.0896146 0.1
0.673875 0.0883196 0.1
0.683746 0.0869488 0.1
0.693606 0.0855025 0.1
0.703455 0.0839806 0.1
0.713292 0.0823832 0.1
0.723116 0.0807105 0.1
0.732927 0.0789625 0.1
0.742724 0.0771393 0.1
0.752508 0.0752411 0.1
0.762276 0.073268 0.1
0.772029 0.07122 0.1
0.781766 0.0690974 0.1
0.791486 0.0669001 0.1
0.801189 0.0646285 0.1
0.810875 0.0622825 0.1
0.820542 0.0598623 0.1
0.83019 0.0573681 0.1
0.839819 0.0547999 0.1
0.849428 0.0521581 0.1
0.859017 0.0494427 0.1
0.868584 0.0466538 0.1
0.87813 0.0437917 0.1
0.887653 0.0408565 0.1
0.897154 0.0378484 0.1
0.906631 0.0347675 0.1
0.916085 0.0316141 0.1
0.925514 0.0283883 0.1
0.934918 0.0250903 0.1
0.944297 0.0217203 0.1
0.953649 0.0182786 0.1
0.962975 0.0147652 0.1
0.972273 0.0111804 0.1
0.981544 0.00752451 0.1
0.990786 0.00379763 0.1
1.01 0 0.1
1.02 0 0.1
1.03 0 0.1
[...]
CELL_DATA 14313
SCALARS rho float
LOOKUP_TABLE default
0.781286
0.82416
0.805876
0.537387
0.766213
0.811708
0.812381
0.812266
0.810994
0.815105
0.811944
0.798861
0.796941
0.517039
0.812751
0.831828
0.808745
0.807698
0.809968
0.805333
0.810611
0.813907
0.812313
0.765953
0.811943
0.814609
0.742343
0.709812
0.823682
0.824276
0.811806
0.794462
0.799441
0.811913
0.804657
0.810564
0.679608
0.808882
0.811499
0.802334
0.752471
0.810279
0.541592
0.701892
0.817524
0.835666
0.810765
0.777378
0.80436
0.8509
0.675307
0.653121
0.588968
0.810477
0.819576
0.782626
0.81751
0.814662
0.810788
0.812221
0.811815
0.818305
0.79444
0.839155
0.810239
0.813199
0.85264
0.78386
0.840498
0.812743
0.798295
0.83139
0.486857
0.837143
0.725762
0.806856
0.824531
0.74703
0.696344
0.811283
0.591768
0.824629
0.83308
0.803464
0.805467
0.819188
0.81169
0.804441
0.826514
0.806982
0.779836
0.522306
0.807283
0.797836
0.725697
0.803826
0.814533
0.80882
0.803205
0.488476
0.806953
0.809528
0.812347
0.814161
0.748347
0.809276
0.802606
0.699463
0.834384
0.809883
0.813841
0.824786
0.811988
0.819219
0.804153
0.827325
0.819726
0.836156
0.778664
0.798672
0.811459
0.808874
0.859382
0.720587
0.843291
0.753301
0.789491
0.80444
0.814542
0.842803
0.809331
0.811841
0.860682
0.812137
0.823166
0.782591
0.806884
0.792217
0.81756
0.817215
0.812381
0.816656
0.803385
0.803428
0.796518
0.83897
0.805938
0.760633
0.795465
0.817242
0.797133
0.803527
0.812315
0.708883
0.821108
0.803714
0.723005
0.820994
0.811933
0.811843
0.818322
0.808696
0.646033
0.757421
0.823009
0.824317
0.713808
0.812536
0.827933
0.81535
0.688517
0.816206
0.712856
0.787841
0.80882
0.825999
0.808024
0.815383
0.820844
0.741438
0.811246
0.8094
0.773428
0.771853
0.790473
0.810947
0.812735
0.796968
0.4962
0.78717
0.757416
0.742618
0.770197
0.712967
0.812194
0.814829
0.807238
0.803377
0.806003
0.816712
0.760025
0.802874
0.828408
0.814755
0.833374
0.803339
0.816546
0.81421
0.811884
0.834522
0.803935
0.811114
0.7959
0.700822
0.813961
0.820581
0.809475
0.807107
0.834449
0.802844
0.802604
0.819191
0.805914
0.855274
0.809536
0.803097
0.817843
0.802461
0.812266
0.757162
0.635145
0.815036
0.697395
0.826779
0.802371
0.721098
0.811874
0.813932
0.814781
0.826173
0.791666
0.710543
0.747566
0.594766
0.814928
0.723719
0.79922
0.807082
0.837649
0.815009
0.574903
0.804028
0.728565
0.837262
0.801152
0.694578
0.8113
0.826967
0.814505
0.556703
0.813244
0.801096
0.798836
0.805958
0.788328
0.773812
0.815704
0.81552
0.529051
0.814538
0.813686
0.772102
0.802029
0.811922
0.780468
0.817188
0.782947
0.709006
0.802798
0.805813
0.567297
0.543253
0.756164
0.807876
0.820364
0.790047
0.811569
0.81473
0.776028
0.805925
0.803485
0.816604
0.829399
0.793085
0.808289
0.811468
0.631236
0.81885
0.699202
0.797186
0.793265
0.777555
0.835552
0.809314
0.796566
0.676155
0.667929
0.803552
0.805628
0.819609
0.804222
0.798317
0.651984
0.815038
0.822053
0.818085
0.811945
0.812796
0.799361
0.790891
0.814093
0.569495
0.80787
0.812134
0.814338
0.812506
0.76523
0.821469
0.801493
0.814131
0.812987
0.753865
0.752378
0.803401
0.803482
0.522956
0.81236
0.811868
0.807059
0.811736
0.803296
0.80094
0.72799
0.711857
0.814309
0.74831
0.757909
0.818388
0.837414
0.814113
0.802137
0.808482
0.812179
0.803446
0.816972
0.782485
0.816903
0.811764
0.810654
0.795065
0.810364
0.792086
0.811752
0.589573
0.799509
0.800356
0.811845
0.813421
0.767544
0.801594
0.812124
0.812346
0.817956
0.770207
0.818261
0.808306
0.752453
0.761687
0.812865
0.805739
0.829121
0.824665
0.823145
0.804262
0.593957
0.778941
0.600157
0.803374
0.802914
0.800716
0.8142
0.874002
0.525885
0.593282
0.838262
0.871963
0.811782
0.690069
0.801926
0.716019
0.806777
0.815681
0.706928
0.650778
0.751058
0.812853
0.475741
0.873533
0.824315
0.798431
0.808767
0.478614
0.739567
0.781679
0.817523
0.804603
0.800512
0.830178
0.812236
0.705448
0.68481
0.801535
0.80605
0.809221
0.811503
0.808782
0.811824
0.73547
0.791161
0.797176
0.802493
0.764004
0.817597
0.807868
0.812783
0.81154
0.755043
0.805597
0.804072
0.793185
0.812057
0.81564
0.806883
0.657116
0.787436
0.817446
0.812821
0.812198
0.807343
0.812635
0.804134
0.821111
0.821463
0.612731
0.855115
0.74398
0.820547
0.804895
0.747006
0.824459
0.800888
0.825405
0.548272
0.799415
0.679014
0.811902
0.809209
0.521668
0.799897
0.804622
0.797997
0.802071
0.8006
0.772202
0.811764
0.592297
0.805702
0.806081
0.799175
0.818261
0.764898
0.811898
0.80927
0.797821
0.81615
0.79644
0.802845
0.812257
0.634047
0.769231
0.733853
0.489989
0.82467
0.56803
0.802605
0.818754
0.85658
0.702843
0.73951
0.812054
0.80609
0.800874
0.79365
0.765852
0.810831
0.812323
0.797067
0.813041
0.816374
0.471602
0.812289
0.813187
0.80633
0.810017
0.60408
0.815122
0.821481
0.705399
0.788758
0.813095
0.801029
0.828112
0.831292
0.804076
0.742448
0.472864
0.813797
0.570926
0.798695
0.803322
0.774705
0.811927
0.750369
0.811224
0.806569
0.803355
0.485735
0.814194
0.827374
0.830523
0.814725
0.803472
0.803218
0.812317
0.758505
0.847297
0.836782
0.709091
0.798573
0.653307
0.778004
0.667444
0.816022
0.836034
0.798884
0.637609
0.765745
0.813599
0.824388
0.832545
0.813598
0.670051
0.537456
0.804553
0.815843
0.80128
0.81576
0.804686
0.771587
0.851064
0.815169
0.804038
0.816692
0.798998
0.744028
0.797936
0.811323
0.596442
0.689069
0.803308
0.810668
0.8048
0.574971
0.811514
0.604714
0.812326
0.767543
0.816842
0.816246
0.753535
0.806499
0.79235
0.805144
0.83681
0.8371
0.831274
0.804777
0.816066
0.579346
0.812362
0.856758
0.825052
0.829234
0.804193
0.820725
0.799279
0.83979
0.808743
0.814373
0.672439
0.630307
0.835697
0.813295
0.840644
0.715755
0.801174
0.763437
0.797152
0.809562
0.793103
0.80699
0.81301
0.822641
0.82806
0.830026
0.805407
0.750126
0.804054
0.729249
0.793141
0.82147
0.800892
0.815025
0.758193
0.805055
0.804309
0.846949
0.80902
0.803408
0.805976
0.834253
0.831315
0.803584
0.856278
0.795912
0.82001
0.661356
0.80316
0.800235
0.798763
0.831673
0.608701
0.806326
0.805548
0.658425
0.814507
0.829291
0.813777
0.80338
0.806025
0.802496
0.816014
0.798836
0.720576
0.513397
0.813326
0.80558
0.801771
0.804496
0.802954
0.803677
0.810656
0.798026
0.813654
0.583166
0.812748
0.809399
0.811815
0.842321
0.813651
0.834183
0.811331
0.797594
0.812722
0.682342
0.803723
0.850151
0.812754
0.793001
0.814121
0.633824
0.805448
0.566045
0.662023
0.673238
0.809546
0.815443
0.812427
0.497006
0.694407
0.803464
0.830739
0.747293
0.831294
0.805155
0.804672
0.796673
0.694001
0.751212
0.547122
0.802752
0.811599
0.804239
0.820827
0.669792
0.619986
0.853921
0.801491
0.81397
0.728908
0.813483
0.526222
0.82078
0.703145
0.813776
0.817462
0.801656
0.802105
0.825123
0.794834
0.803596
0.803847
0.631235
0.806579
0.653018
0.798735
0.798166
0.813663
0.815319
0.72906
0.815341
0.755806
0.803152
0.721541
0.804941
0.745973
0.671427
0.824495
0.812335
0.799057
0.726286
0.811331
0.658328
0.81086
0.802911
0.728433
0.825815
0.816301
0.637268
0.695971
0.825742
0.803654
0.725542
0.833632
0.834691
0.836083
0.81169
0.548067
0.751008
0.820984
0.820269
0.520761
0.639937
0.815554
0.812395
0.721696
0.778363
0.811982
0.807021
0.7579
0.812121
0.813441
0.80357
0.728635
0.802229
0.796861
0.812034
0.576789
0.805555
0.821734
0.574155
0.818111
0.845273
0.811947
0.676542
0.811677
0.811561
0.811784
0.801157
0.818666
0.803237
0.806679
0.804851
0.803309
0.813453
0.484787
0.809841
0.809653
0.691721
0.603021
0.786072
0.79828
0.812023
0.753272
0.56368
0.811369
0.783456
0.811994
0.821453
0.813432
0.825047
0.748277
0.590118
0.811466
0.839026
0.811942
0.709549
0.803435
0.727247
0.813087
0.811021
0.811851
0.817304
0.801244
0.81301
0.808327
0.757549
0.81619
0.81257
0.75171
0.791882
0.710694
0.558153
0.733467
0.781514
0.815767
0.811257
0.810599
0.810527
0.803294
0.795336
0.808059
0.707489
0.753414
0.811524
0.80342
0.804821
0.818328
0.604001
0.813502
0.80389
0.843511
0.807789
0.636164
0.793671
0.803801
0.842439
0.690578
0.56169
0.576896
0.635148
0.817559
0.804489
0.560191
0.585179
0.8199
0.812124
0.889273
0.804799
0.82941
0.812368
0.769437
0.810741
0.812534
0.812015
0.810575
0.811947
0.797954
0.812118
0.640527
0.815669
0.803627
0.809587
0.756684
0.817102
0.610854
0.855366
0.803926
0.826962
0.811942
0.807993
0.748102
0.8222
0.811865
0.837173
0.81173
0.812458
0.641045
0.826719
0.810084
0.812322
0.836568
0.822516
0.553671
0.796399
0.802713
0.810868
0.816935
0.803934
0.800157
0.815151
0.765052
0.804898
0.815797
0.863431
0.831105
0.586596
0.79601
0.75405
0.813971
0.761458
0.819337
0.804828
0.806381
0.812174
0.789091
0.805565
0.815454
0.821806
0.787325
0.668232
0.73369
0.697686
0.814072
0.835827
0.837765
0.733406
0.808796
0.75394
0.609521
0.811968
0.799407
0.81173
0.803572
0.63068
0.80221
0.776471
0.736718
0.810698
0.744643
0.807538
0.816396
0.859709
0.809619
0.807078
0.739919
0.812429
0.775824
0.839346
0.883732
0.796956
0.520368
0.799616
0.607487
0.769241
0.657192
0.799149
0.494419
0.814934
0.849694
0.805922
0.810552
0.819647
0.802779
0.803251
0.696564
0.822879
0.811872
0.804146
0.806552
0.79242
0.803556
0.806768
0.628251
0.816468
0.801954
0.84512
0.807931
0.804359
0.801428
0.812911
0.813025
0.807488
0.80353
0.787486
0.812087
0.795238
0.801676
0.813197
0.771726
0.566943
0.812597
0.818092
0.803969
0.724684
0.801113
0.807655
0.80348
0.698119
0.872968
0.811542
0.816661
0.811971
0.847653
0.778123
0.812043
0.78758
0.815775
0.821978
0.663144
0.81208
0.728515
0.818982
0.718065
0.79941
0.75112
0.802458
0.569266
0.809139
0.735121
0.476123
0.820118
0.661742
0.769067
0.81716
0.812238
0.776493
0.811177
0.718576
0.638034
0.826109
0.698021
0.816637
0.767297
0.801587
0.807921
0.813193
0.652141
0.804303
0.774856
0.809512
0.811994
0.828926
0.806107
0.68744
0.755407
0.651237
0.798112
0.802951
0.811878
0.815341
0.811884
0.811452
0.809293
0.663359
0.73122
0.487308
0.696256
0.813814
0.80805
0.832914
0.809397
0.814621
0.710256
0.87391
0.815093
0.826129
0.571335
0.822815
0.812095
0.840629
0.845502
0.826511
0.829962
0.820112
0.540309
0.805722
0.814854
0.716127
0.816693
0.801245
0.81203
0.807927
0.812519
0.812586
0.767103
0.721355
0.797934
0.800283
0.571557
0.813936
0.858971
0.815234
0.658508
0.822422
0.81304
0.819461
0.835111
0.686675
0.486265
0.804839
0.839798
0.806057
0.803868
0.814132
0.801556
0.812407
0.809434
0.799897
0.804238
0.804678
0.812385
0.805549
0.806154
0.798518
0.836048
0.830623
0.853165
0.812809
0.807324
0.814382
0.812897
0.811983
0.810933
0.815502
0.83393
0.808594
0.811018
0.600505
0.830469
0.711158
0.868137
0.803614
0.833227
0.798982
0.786063
0.785655
0.740046
0.821096
0.810923
0.811441
0.813298
0.775801
0.807789
0.584163
0.806064
0.812907
0.813063
0.795666
0.811971
0.610983
0.783464
0.558151
0.82071
0.79684
0.77449
0.801838
0.813592
0.812342
0.812376
0.737957
0.80819
0.811829
0.810302
0.803644
0.80381
0.74731
0.767221
0.809224
0.803722
0.696129
0.59777
0.489569
0.840982
0.806058
0.778544
0.781182
0.824223
0.803569
0.803959
0.817956
0.779204
0.757
0.816074
0.807425
0.811093
0.837166
0.804819
0.811645
0.808244
0.483281
0.803437
0.8118
0.773676
0.819345
0.814126
0.825529
0.599225
0.710378
0.572854
0.828219
0.81553
0.743237
0.811817
0.676669
0.813666
0.810595
0.811798
0.803068
0.811818
0.576797
0.686272
0.806077
0.813216
0.793686
0.801228
0.830987
0.798643
0.80299
0.642781
0.807717
0.81186
0.804267
0.81217
0.802737
0.616838
0.814203
0.812286
0.572327
0.696943
0.793076
0.828101
0.697345
0.803993
0.793625
0.812042
0.756553
0.684871
0.810341
0.795889
0.799264
0.766322
0.540467
0.820177
0.673433
0.747604
0.731343
0.803966
0.797258
0.81136
0.659958
0.767533
0.803965
0.814911
0.592515
0.798853
0.825724
0.807129
0.538979
0.80559
0.783394
0.706962
0.705686
0.800391
0.819052
0.81292
0.808594
0.69933
0.739591
0.641362
0.832263
0.842851
0.816826
0.788146
0.865188
0.696666
0.813265
0.766713
0.790196
0.795515
0.811874
0.803981
0.8115
0.787075
0.755196
0.819679
0.796689
0.842082
0.719282
0.79138
0.805513
0.723202
0.803197
0.814407
0.575865
0.80194
0.798921
0.802791
0.821119
0.764226
0.800154
0.722566
0.812054
0.808822
0.725148
0.812056
0.816141
0.828594
0.805577
0.787078
0.797602
0.805606
0.726581
0.81237
0.801125
0.677462
0.806876
0.780252
0.831848
0.820837
0.818937
0.839254
0.84818
0.698956
0.813643
0.795501
0.787289
0.617456
0.816892
0.803601
0.812139
0.776112
0.853431
0.832757
0.781783
0.841958
0.779764
0.800632
0.77193
0.812131
0.721642
0.63572
0.844163
0.660883
0.792803
0.839687
0.812352
0.671072
0.809228
0.751856
0.803962
0.798996
0.781296
0.804152
0.801024
0.802789
0.801888
0.785593
0.811938
0.781387
0.816194
0.807457
0.712567
0.783817
0.815132
0.812374
0.805481
0.563937
0.825071
0.812794
0.811965
0.703281
0.804761
0.80108
0.801272
0.815829
0.746207
0.815913
0.800529
0.804544
0.755161
0.8114
0.812732
0.805884
0.76897
0.807872
0.812912
0.808038
0.815783
0.808286
0.80606
0.822877
0.804595
0.788718
0.806177
0.812107
0.818138
0.778695
0.703495
0.813701
0.812167
0.800713
0.742408
0.788791
0.654018
0.803389
0.540087
0.803165
0.814349
0.774873
0.834548
0.514991
0.809402
0.738404
0.810394
0.53413
0.804331
0.827785
0.813253
0.818671
0.734203
0.840893
0.553453
0.823497
0.702373
0.799522
0.477148
0.669809
0.812487
0.811973
0.741688
0.800945
0.820837
0.61198
0.821957
0.770916
0.833449
0.811978
0.814099
0.81307
0.803824
0.836763
0.810639
0.803755
0.475819
0.803106
0.843451
0.802217
0.801304
0.767558
0.805385
0.811919
0.812074
0.796558
0.734274
0.810369
0.815434
0.602937
0.804158
0.536239
0.815596
0.539372
0.811918
0.770357
0.682466
0.7335
0.783084
0.712984
0.84147
0.813694
0.796858
0.803967
0.703292
0.802553
0.789424
0.802439
0.814932
0.801682
0.73147
0.697792
0.800578
0.772259
0.518811
0.811135
0.663096
0.794093
0.705695
0.824998
0.809371
0.825005
0.810167
0.837138
0.807215
0.579789
0.829193
0.806972
0.801515
0.815373
0.811909
0.812533
0.814561
0.825083
0.816332
0.617967
0.804744
0.800654
0.812831
0.692137
0.802308
0.823209
0.756345
0.688527
0.807484
0.688226
0.731643
0.810015
0.812646
0.668491
0.84144
0.766912
0.805388
0.796406
0.809723
0.84446
0.801055
0.538637
0.814832
0.708363
0.516072
0.77818
0.758075
0.7695
0.812126
0.803515
0.816341
0.81194
0.585734
0.78749
0.831197
0.812024
0.591108
0.72142
0.634737
0.816602
0.810397
0.690888
0.803979
0.812103
0.799293
0.834172
0.605956
0.840303
0.740164
0.811897
0.812406
0.669025
0.812471
0.721019
0.791789
0.716555
0.811851
0.784409
0.633837
0.724126
0.71227
0.83311
0.809343
0.81927
0.821983
0.803342
0.808504
0.802784
0.817594
0.803249
0.686938
0.803427
0.603423
0.776678
0.807172
0.802283
0.812099
0.824215
0.803327
0.716823
0.710585
0.667131
0.790247
0.816689
0.749083
0.579018
0.751444
0.81018
0.801849
0.760164
0.803561
0.823114
0.753195
0.568706
0.701917
0.798584
0.812097
0.864268
0.814565
0.811699
0.851791
0.799538
0.801843
0.814347
0.812196
0.805308
0.717562
0.80914
0.695379
0.862205
0.778627
0.813372
0.57356
0.796462
0.529054
0.583153
0.584617
0.807869
0.803629
0.809225
0.758097
0.803553
0.532105
0.782181
0.802883
0.734491
0.814286
0.801599
0.815788
0.842858
0.509022
0.811998
0.802079
0.809529
0.816714
0.812818
0.812284
0.754094
0.79712
0.798782
0.80323
0.797538
0.810674
0.84526
0.818515
0.72364
0.804672
0.606586
0.813149
0.811994
0.586455
0.766817
0.766883
0.536157
0.78423
0.803636
0.878245
0.798334
0.813061
0.755154
0.794407
0.797013
0.809211
0.782658
0.541833
0.711383
0.680355
0.781029
0.814612
0.80288
0.821802
0.790218
0.801787
0.812743
0.79805
0.852125
0.70444
0.811809
0.780655
0.530796
0.515431
0.812856
0.803539
0.805436
0.560271
0.796978
0.803738
0.659057
0.813683
0.790579
0.806518
0.81477
0.532382
0.724592
0.71869
0.812407
0.831973
0.629828
0.789814
0.717149
0.813555
0.827225
0.77941
0.773117
0.534987
0.81148
0.802405
0.723608
0.851967
0.805811
0.722603
0.739814
0.763839
0.810754
0.563325
0.796691
0.737953
0.800321
0.821815
0.720293
0.799146
0.811721
0.716469
0.812998
0.705914
0.815947
0.798175
0.75967
0.689719
0.808875
0.799996
0.813327
0.669509
0.805367
0.804823
0.811546
0.699398
0.812101
0.808358
0.831725
0.647451
0.815454
0.740717
0.81189
0.80569
0.842173
0.80368
0.818882
0.749006
0.815146
0.838761
0.832787
0.816418
0.845549
0.752307
0.8477
0.825958
0.803814
0.825721
0.805596
0.646548
0.77804
0.813887
0.746766
0.695075
0.798426
0.804053
0.679594
0.797408
0.537832
0.848414
0.695936
0.706164
0.813529
0.774446
0.806866
0.798925
0.806929
0.803885
0.811986
0.835594
0.729927
0.772112
0.588102
0.80997
0.777008
0.810882
0.80511
0.569933
0.802903
0.802528
0.807457
0.798609
0.816697
0.808147
0.709942
0.823095
0.847868
0.684362
0.743579
0.812139
0.800898
0.712237
0.814257
0.754305
0.796777
0.802896
0.805356
0.837119
0.668649
0.723344
0.800797
0.701929
0.772632
0.832123
0.53187
0.691183
0.799578
0.804284
0.803362
0.741754
0.822349
0.806859
0.803659
0.808123
0.813265
0.696033
0.649062
0.80967
0.813768
0.799218
0.87141
0.802712
0.812326
0.799042
0.809927
0.811239
0.808358
0.652923
0.814737
0.81655
0.803436
0.801846
0.799356
0.617218
0.809681
0.810482
0.812389
0.862255
0.814396
0.801481
0.480443
0.836313
0.69244
0.826364
0.805752
0.813772
0.823981
0.809058
0.812038
0.730882
0.551243
0.491491
0.8123
0.808928
0.533946
0.795553
0.814461
0.833249
0.503875
0.809567
0.813402
0.802248
0.809073
0.530083
0.813087
0.808241
0.559837
0.81218
0.815233
0.538637
0.808742
0.812637
0.775816
0.806262
0.811155
0.809469
0.798976
0.825851
0.533703
0.83015
0.815796
0.804065
0.742046
0.78617
0.811328
0.809379
0.802089
0.815917
0.800701
0.656932
0.806139
0.577827
0.811933
0.659792
0.746271
0.796994
0.718239
0.803541
0.579637
0.849716
0.812175
0.812309
0.799241
0.8027
0.80318
0.813632
0.814336
0.670047
0.717601
0.726158
0.814752
0.721279
0.572808
0.817377
0.783694
0.827855
0.811666
0.809373
0.732465
0.535735
0.798714
0.790018
0.496001
0.813821
0.812981
0.735562
0.805903
0.768487
0.60692
0.80993
0.814638
0.78862
0.609723
0.802305
0.782954
0.826325
0.812949
0.810356
0.811889
0.812808
0.715799
0.80006
0.815714
0.694575
0.480348
0.732873
0.7988
0.730734
0.812986
0.798096
0.80552
0.782557
0.867314
0.803554
0.801667
0.825755
0.859313
0.804612
0.815675
0.794315
0.815884
0.789149
0.743978
0.811905
0.804258
0.816206
0.803247
0.790793
0.842778
0.766081
0.812706
0.773357
0.803713
0.64249
0.509271
0.800982
0.802159
0.8095
0.798146
0.799665
0.811895
0.772897
0.804607
0.811977
0.782184
0.816895
0.777164
0.593256
0.805041
0.760901
0.776188
0.750434
0.763664
0.793913
0.788568
0.823023
0.787506
0.809417
0.803367
0.765103
0.815496
0.542159
0.729478
0.810522
0.813978
0.811385
0.802311
0.812817
0.810512
0.805748
0.821141
0.809682
0.78294
0.816589
0.801676
0.79046
0.795886
0.805164
0.586056
0.80362
0.792165
0.574393
0.813174
0.80723
0.806043
0.810755
0.702295
0.754899
0.821093
0.774893
0.811382
0.816308
0.722283
0.804478
0.824089
0.72002
0.799421
0.809495
0.778559
0.804708
0.836946
0.801899
0.817307
0.772511
0.805335
0.800286
0.813058
0.802094
0.797877
0.588615
0.815199
0.786706
0.806631
0.825608
0.691006
0.828536
0.819956
0.505181
0.806376
0.80445
0.801455
0.812246
0.82423
0.824044
0.804906
0.805894
0.814148
0.813364
0.80352
0.812548
0.80472
0.74924
0.708144
0.780889
0.813645
0.812071
0.775848
0.757769
0.813919
0.824925
0.810514
0.812196
0.69139
0.500622
0.747782
0.817516
0.806705
0.816225
0.844181
0.799862
0.71481
0.654144
0.799643
0.804681
0.69416
0.812647
0.671066
0.836801
0.729203
0.812835
0.89525
0.815604
0.800795
0.777718
0.811093
0.681409
0.814181
0.808203
0.791506
0.805593
0.779412
0.800639
0.810027
0.780444
0.803574
0.852055
0.776992
0.80213
0.492741
0.803165
0.693867
0.804095
0.794445
0.788572
0.783603
0.722197
0.802079
0.788169
0.844446
0.813265
0.812421
0.811759
0.895508
0.74639
0.802731
0.730782
0.803156
0.798347
0.804494
0.716715
0.800913
0.805494
0.638948
0.808646
0.748559
0.533751
0.846501
0.847323
0.750004
0.810754
0.794665
0.772006
0.731698
0.77598
0.785471
0.736205
0.803848
0.804411
0.719412
0.815293
0.804974
0.55672
0.81197
0.821428
0.813231
0.803504
0.610645
0.714926
0.806268
0.859167
0.483591
0.724491
0.806449
0.81595
0.796432
0.713248
0.710614
0.809019
0.813214
0.814991
0.837067
0.745187
0.754361
0.875738
0.806858
0.809196
0.795163
0.637324
0.597224
0.585919
0.656942
0.586063
0.764176
0.800707
0.803373
0.812249
0.809117
0.811471
0.860151
0.715335
0.823853
0.813873
0.817073
0.816622
0.813801
0.812945
0.811556