# vtk DataFile Version 1.0
unstructured grid
ascii
DATASET UNSTRUCTURED_GRID
points 14760 float
-1 0 0
-1 1 0
2 0 0
2 1 0
0 0 0
1 0 0
-1 1 0.1
-1 0 0.1
0 0 0.1
1 0 0.1
2 0 0.1
2 1 0.1
-0.99 0 0
-0.98 0 0
-0.97 0 0
-0.96 0 0
-0.95 0 0
-0.94 0 0
-0.93 0 0
-0.92 0 0
-0.91 0 0
-0.9 0 0
-0.89 0 0
-0.88 0 0
-0.87 0 0
-0.86 0 0
-0.85 0 0
-0.84 0 0
-0.83 0 0
-0.82 0 0
-0.81 0 0
-0.8 0 0
-0.79 0 0
-0.78 0 0
-0.77 0 0
-0.76 0 0
-0.75 0 0
-0.74 0 0
-0.73 0 0
-0.72 0 0
-0.71 0 0
-0.7 0 0
-0.69 0 0
-0.68 0 0
-0.67 0 0
-0.66 0 0
-0.65 0 0
-0.64 0 0
-0.63 0 0
-0.62 0 0
-0.61 0 0
-0.6 0 0
-0.59 0 0
-0.58 0 0
-0.57 0 0
-0.56 0 0
-0.55 0 0
-0.54 0 0
-0.53 0 0
-0.52 0 0
-0.51 0 0
-0.5 0 0
-0.49 0 0
-0.48 0 0
-0.47 0 0
-0.46 0 0
-0.45 0 0
-0.44 0 0
-0.43 0 0
-0.42 0 0
-0.41 0 0
-0.4 0 0
-0.39 0 0
-0.38 0 0
-0.37 0 0
-0.36 0 0
-0.35 0 0
-0.34 0 0
-0.33 0 0
-0.32 0 0
-0.31 0 0
-0.3 0 0
-0.29 0 0
-0.28 0 0
-0.27 0 0
-0.26 0 0
-0.25 0 0
-0.24 0 0
-0.23 0 0
-0.22 0 0
-0.21 0 0
-0.2 0 0
-0.19 0 0
-0.18 0 0
-0.17 0 0
-0.16 0 0
-0.15 0 0
-0.14 0 0
-0.13 0 0
-0.12 0 0
-0.11 0 0
-0.1 0 0
-0.09 0 0
-0.08 0 0
-0.07 0 0
-0.06 0 0
-0.05 0 0
-0.04 0 0
-0.03 0 0
-0.02 0 0
-0.01 0 0
1.01 0 0
1.02 0 0
1.03 0 0
1.04 0 0
1.05 0 0
1.06 0 0
1.07 0 0
1.08 0 0
1.09 0 0
1.1 0 0
1.11 0 0
1.12 0 0
1.13 0 0
1.14 0 0
1.15 0 0
1.16 0 0
1.17 0 0
1.18 0 0
1.19 0 0
1.2 0 0
1.21 0 0
1.22 0 0
1.23 0 0
1.24 0 0
1.25 0 0
1.26 0 0
1.27 0 0
1.28 0 0
1.29 0 0
1.3 0 0
1.31 0 0
1.32 0 0
1.33 0 0
1.34 0 0
1.35 0 0
1.36 0 0
1.37 0 0
1.38 0 0
1.39 0 0
1.4 0 0
1.41 0 0
1.42 0 0
1.43 0 0
1.44 0 0
1.45 0 0
1.46 0 0
1.47 0 0
1.48 0 0
1.49 0 0
1.5 0 0
1.51 0 0
1.52 0 0
1.53 0 0
1.54 0 0
1.55 0 0
1.56 0 0
1.57 0 0
1.58 0 0
1.59 0 0
1.6 0 0
1.61 0 0
1.62 0 0
1.63 0 0
1.64 0 0
1.65 0 0
1.66 0 0
1.67 0 0
1.68 0 0
1.69 0 0
1.7 0 0
1.71 0 0
1.72 0 0
1.73 0 0
1.74 0 0
1.75 0 0
1.76 0 0
1.77 0 0
1.78 0 0
1.79 0 0
1.8 0 0
1.81 0 0
1.82 0 0
1.83 0 0
1.84 0 0
1.85 0 0
1.86 0 0
1.87 0 0
1.88 0 0
1.89 0 0
1.9 0 0
1.91 0 0
1.92 0 0
1.93 0 0
1.94 0 0
1.95 0 0
1.96 0 0
1.97 0 0
1.98 0 0
1.99 0 0
2 0.0100088 0
2 0.0204183 0
2 0.0312446 0
2 0.0425043 0
2 0.0542147 0
2 0.066394 0
2 0.079061 0
2 0.092235 0
2 0.105936 0
2 0.120186 0
2 0.135007 0
2 0.150421 0
2 0.166452 0
2 0.183124 0
2 0.200465 0
2 0.218499 0
2 0.237256 0
2 0.256763 0
2 0.277051 0
2 0.298152 0
2 0.320097 0
2 0.342921 0
2 0.366659 0
2 0.391347 0
2 0.417024 0
2 0.443728 0
2 0.471502 0
2 0.500387 0
2 0.530429 0
2 0.561674 0
2 0.594169 0
2 0.627966 0
2 0.663115 0
2 0.699672 0
2 0.737692 0
2 0.777235 0
2 0.818361 0
2 0.861133 0
2 0.905617 0
2 0.951882 0
1.95 1 0
1.9 1 0
1.85 1 0
1.8 1 0
1.75 1 0
1.7 1 0
1.65 1 0
1.6 1 0
1.55 1 0
1.5 1 0
1.45 1 0
1.4 1 0
1.35 1 0
1.3 1 0
1.25 1 0
1.2 1 0
1.15 1 0
1.1 1 0
1.05 1 0
1 1 0
0.95 1 0
0.9 1 0
0.85 1 0
0.8 1 0
0.75 1 0
0.7 1 0
0.65 1 0
0.6 1 0
0.55 1 0
0.5 1 0
0.45 1 0
0.4 1 0
0.35 1 0
0.3 1 0
0.25 1 0
0.2 1 0
0.15 1 0
0.1 1 0
0.05 1 0
3.69793e-12 1 0
-0.05 1 0
-0.1 1 0
-0.15 1 0
-0.2 1 0
-0.25 1 0
-0.3 1 0
-0.35 1 0
-0.4 1 0
-0.45 1 0
-0.5 1 0
-0.55 1 0
-0.6 1 0
-0.65 1 0
-0.7 1 0
-0.75 1 0
-0.8 1 0
-0.85 1 0
-0.9 1 0
-0.95 1 0
-1 0.951882 0
-1 0.905617 0
-1 0.861133 0
-1 0.818361 0
-1 0.777235 0
-1 0.737692 0
-1 0.699672 0
-1 0.663115 0
-1 0.627966 0
-1 0.594169 0
-1 0.561674 0
-1 0.530429 0
-1 0.500387 0
-1 0.471502 0
-1 0.443728 0
-1 0.417024 0
-1 0.391347 0
-1 0.366659 0
-1 0.342921 0
-1 0.320097 0
-1 0.298152 0
-1 0.277051 0
-1 0.256763 0
-1 0.237256 0
-1 0.218499 0
-1 0.200465 0
-1 0.183124 0
-1 0.166452 0
-1 0.150421 0
-1 0.135007 0
-1 0.120186 0
-1 0.105936 0
-1 0.092235 0
-1 0.079061 0
-1 0.066394 0
-1 0.0542147 0
-1 0.0425043 0
-1 0.0312446 0
-1 0.0204183 0
-1 0.0100088 0
0.00921362 0.00379763 0
0.0184561 0.00752451 0
0.0277268 0.0111804 0
0.0370253 0.0147652 0
0.0463511 0.0182786 0
0.0557034 0.0217203 0
0.0650819 0.0250903 0
0.074486 0.0283883 0
0.083915 0.0316141 0
0.0933685 0.0347675 0
0.102846 0.0378484 0
0.112347 0.0408565 0
0.12187 0.0437917 0
0.131416 0.0466538 0
0.140983 0.0494427 0
0.150572 0.0521581 0
0.160181 0.0547999 0
0.16981 0.0573681 0
0.179458 0.0598623 0
0.189125 0.0622825 0
0.198811 0.0646285 0
0.208514 0.0669001 0
0.218234 0.0690974 0
0.227971 0.07122 0
0.237724 0.073268 0
0.247493 0.0752411 0
0.257276 0.0771393 0
0.267073 0.0789625 0
0.276884 0.0807105 0
0.286708 0.0823832 0
0.296545 0.0839806 0
0.306394 0.0855025 0
0.316254 0.0869488 0
0.326125 0.0883196 0
0.336006 0.0896146 0
0.345896 0.0908339 0
0.355796 0.0919773 0
0.365704 0.0930447 0
0.375621 0.0940362 0
0.385544 0.0949517 0
0.395474 0.095791 0
0.40541 0.0965542 0
0.415352 0.0972412 0
0.425299 0.097852 0
0.43525 0.0983865 0
0.445205 0.0988447 0
0.455164 0.0992266 0
0.465125 0.0995321 0
0.475088 0.0997613 0
0.485052 0.0999141 0
0.495017 0.0999904 0
0.504983 0.0999904 0
0.514948 0.0999141 0
0.524912 0.0997613 0
0.534875 0.0995321 0
0.544836 0.0992266 0
0.554795 0.0988447 0
0.56475 0.0983865 0
0.574701 0.097852 0
0.584648 0.0972412 0
0.59459 0.0965542 0
0.604526 0.095791 0
0.614456 0.0949517 0
0.624379 0.0940362 0
0.634296 0.0930447 0
0.644204 0.0919773 0
0.654104 0.0908339 0
0.663994 0.0896146 0
0.673875 0.0883196 0
0.683746 0.0869488 0
0.693606 0.0855025 0
0.703455 0.0839806 0
0.713292 0.0823832 0
0.723116 0.0807105 0
0.732927 0.0789625 0
0.742724 0.0771393 0
0.752508 0.0752411 0
0.762276 0.073268 0
0.772029 0.07122 0
0.781766 0.0690974 0
0.791486 0.0669001 0
0.801189 0.0646285 0
0.810875 0.0622825 0
0.820542 0.0598623 0
0.83019 0.0573681 0
0.839819 0.0547999 0
0.849428 0.0521581 0
0.859017 0.0494427 0
0.868584 0.0466538 0
0.87813 0.0437917 0
0.887653 0.0408565 0
0.897154 0.0378484 0
0.906631 0.0347675 0
0.916085 0.0316141 0
0.925514 0.0283883 0
0.934918 0.0250903 0
0.944297 0.0217203 0
0.953649 0.0182786 0
0.962975 0.0147652 0
0.972273 0.0111804 0
0.981544 0.00752451 0
0.990786 0.00379763 0
-1 0.951882 0.1
-1 0.905617 0.1
-1 0.861133 0.1
-1 0.818361 0.1
-1 0.777235 0.1
-1 0.737692 0.1
-1 0.699672 0.1
-1 0.663115 0.1
-1 0.627966 0.1
-1 0.594169 0.1
-1 0.561674 0.1
-1 0.530429 0.1
-1 0.500387 0.1
-1 0.471502 0.1
-1 0.443728 0.1
-1 0.417024 0.1
-1 0.391347 0.1
-1 0.366659 0.1
-1 0.342921 0.1
-1 0.320097 0.1
-1 0.298152 0.1
-1 0.277051 0.1
-1 0.256763 0.1
-1 0.237256 0.1
-1 0.218499 0.1
-1 0.200465 0.1
-1 0.183124 0.1
-1 0.166452 0.1
-1 0.150421 0.1
-1 0.135007 0.1
-1 0.120186 0.1
-1 0.105936 0.1
-1 0.092235 0.1
-1 0.079061 0.1
-1 0.066394 0.1
-1 0.0542147 0.1
-1 0.0425043 0.1
-1 0.0312446 0.1
-1 0.0204183 0.1
-1 0.0100088 0.1
-0.99 0 0.1
-0.98 0 0.1
-0.97 0 0.1
-0.96 0 0.1
-0.95 0 0.1
-0.94 0 0.1
-0.93 0 0.1
-0.92 0 0.1
-0.91 0 0.1
-0.9 0 0.1
-0.89 0 0.1
-0.88 0 0.1
-0.87 0 0.1
-0.86 0 0.1
-0.85 0 0.1
-0.84 0 0.1
-0.83 0 0.1
-0.82 0 0.1
-0.81 0 0.1
-0.8 0 0.1
-0.79 0 0.1
-0.78 0 0.1
-0.77 0 0.1
-0.76 0 0.1
-0.75 0 0.1
-0.74 0 0.1
-0.73 0 0.1
-0.72 0 0.1
-0.71 0 0.1
-0.7 0 0.1
-0.69 0 0.1
-0.68 0 0.1
-0.67 0 0.1
-0.66 0 0.1
-0.65 0 0.1
-0.64 0 0.1
-0.63 0 0.1
-0.62 0 0.1
-0.61 0 0.1
-0.6 0 0.1
-0.59 0 0.1
-0.58 0 0.1
-0.57 0 0.1
-0.56 0 0.1
-0.55 0 0.1
-0.54 0 0.1
-0.53 0 0.1
-0.52 0 0.1
-0.51 0 0.1
-0.5 0 0.1
-0.49 0 0.1
-0.48 0 0.1
-0.47 0 0.1
-0.46 0 0.1
-0.45 0 0.1
-0.44 0 0.1
-0.43 0 0.1
-0.42 0 0.1
-0.41 0 0.1
-0.4 0 0.1
-0.39 0 0.1
-0.38 0 0.1
-0.37 0 0.1
-0.36 0 0.1
-0.35 0 0.1
-0.34 0 0.1
-0.33 0 0.1
-0.32 0 0.1
-0.31 0 0.1
-0.3 0 0.1
-0.29 0 0.1
-0.28 0 0.1
-0.27 0 0.1
-0.26 0 0.1
-0.25 0 0.1
-0.24 0 0.1
-0.23 0 0.1
-0.22 0 0.1
-0.21 0 0.1
-0.2 0 0.1
-0.19 0 0.1
-0.18 0 0.1
-0.17 0 0.1
-0.16 0 0.1
-0.15 0 0.1
-0.14 0 0.1
-0.13 0 0.1
-0.12 0 0.1
-0.11 0 0.1
-0.1 0 0.1
-0.09 0 0.1
-0.08 0 0.1
-0.07 0 0.1
-0.06 0 0.1
-0.05 0 0.1
-0.04 0 0.1
-0.03 0 0.1
-0.02 0 0.1
-0.01 0 0.1
0.00921362 0.00379763 0.1
0.0184561 0.00752451 0.1
0.0277268 0.0111804 0.1
0.0370253 0.0147652 0.1
0.0463511 0.0182786 0.1
0.0557034 0.0217203 0.1
0.0650819 0.0250903 0.1
0.074486 0.0283883 0.1
0.083915 0.0316141 0.1
0.0933685 0.0347675 0.1
0.102846 0.0378484 0.1
0.112347 0.0408565 0.1
0.12187 0.0437917 0.1
0.131416 0.0466538 0.1
0.140983 0.0494427 0.1
0.150572 0.0521581 0.1
0.160181 0.0547999 0.1
0.16981 0.0573681 0.1
0.179458 0.0598623 0.1
0.189125 0.0622825 0.1
0.198811 0.0646285 0.1
0.208514 0.0669001 0.1
0.218234 0.0690974 0.1
0.227971 0.07122 0.1
0.237724 0.073268 0.1
0.247493 0.0752411 0.1
0.257276 0.0771393 0.1
0.267073 0.0789625 0.1
0.276884 0.0807105 0.1
0.286708 0.0823832 0.1
0.296545 0.0839806 0.1
0.306394 0.0855025 0.1
0.316254 0.0869488 0.1
0.326125 0.0883196 0.1
0.336006 0.0896146 0.1
0.345896 0.0908339 0.1
0.355796 0.0919773 0.1
0.365704 0.0930447 0.1
0.375621 0.0940362 0.1
0.385544 0.0949517 0.1
0.395474 0.095791 0.1
0.40541 0.0965542 0.1
0.415352 0.0972412 0.1
0.425299 0.097852 0.1
0.43525 0.0983865 0.1
0.445205 0.0988447 0.1
0.455164 0.0992266 0.1
0.465125 0.0995321 0.1
0.475088 0.0997613 0.1
0.485052 0.0999141 0.1
0.495017 0.0999904 0.1
0.504983 0.0999904 0.1
0.514948 0.0999141 0.1
0.524912 0.0997613 0.1
0.534875 0.0995321 0.1
0.544836 0.0992266 0.1
0.554795 0.0988447 0.1
0.56475 0.0983865 0.1
0.574701 0.097852 0.1
0.584648 0.0972412 0.1
0.59459 0.0965542 0.1
0.604526 0.095791 0.1
0.614456 0.0949517 0.1
0.624379 0.0940362 0.1
0.634296 0.0930447 0.1
0.644204 0.0919773 0.1
0.654104 0.0908339 0.1
0.663994 0.0896146 0.1
0.673875 0.0883196 0.1
0.683746 0.0869488 0.1
0.693606 0.0855025 0.1
0.703455 0.0839806 0.1
0.713292 0.0823832 0.1
0.723116 0.0807105 0.1
0.732927 0.0789625 0.1
0.742724 0.0771393 0.1
0.752508 0.0752411 0.1
0.762276 0.073268 0.1
0.772029 0.07122 0.1
0.781766 0.0690974 0.1
0.791486 0.0669001 0.1
0.801189 0.0646285 0.1
0.810875 0.0622825 0.1
0.820542 0.0598623 0.1
0.83019 0.0573681 0.1
0.839819 0.0547999 0.1
0.849428 0.0521581 0.1
0.859017 0.0494427 0.1
0.868584 0.0466538 0.1
0.87813 0.0437917 0.1
0.887653 0.0408565 0.1
0.897154 0.0378484 0.1
0.906631 0.0347675 0.1
0.916085 0.0316141 0.1
0.925514 0.0283883 0.1
0.934918 0.0250903 0.1
0.944297 0.0217203 0.1
0.953649 0.0182786 0.1
0.962975 0.0147652 0.1
0.972273 0.0111804 0.1
0.981544 0.00752451 0.1
0.990786 0.00379763 0.1
1.01 0 0.1
1.02 0 0.1
1.03 0 0.1
[...]
CELL_DATA 14313
SCALARS rho float
LOOKUP_TABLE default
0.781287
0.824162
0.805877
0.537394
0.766217
0.811711
0.812383
0.812268
0.810995
0.815106
0.811947
0.798862
0.796944
0.517053
0.812754
0.83183
0.808746
0.807699
0.80997
0.805333
0.810614
0.813908
0.812315
0.765956
0.811945
0.81461
0.742345
0.709809
0.823684
0.824278
0.811809
0.794463
0.799444
0.811916
0.804658
0.810567
0.679613
0.808883
0.811502
0.802335
0.752473
0.810282
0.541599
0.701896
0.817526
0.835667
0.810768
0.777379
0.804362
0.850903
0.675312
0.653125
0.58898
0.810479
0.819578
0.782627
0.817512
0.814663
0.810788
0.812223
0.811818
0.818307
0.79444
0.839156
0.810242
0.813202
0.852644
0.783861
0.840499
0.812745
0.798295
0.831392
0.486871
0.837145
0.725769
0.806858
0.824533
0.747032
0.696347
0.811285
0.591772
0.82463
0.833081
0.803464
0.805469
0.81919
0.811692
0.804442
0.826515
0.806983
0.779837
0.52232
0.807284
0.797839
0.725704
0.803826
0.814535
0.808822
0.803206
0.48849
0.806955
0.809531
0.81235
0.814163
0.74835
0.809277
0.802607
0.699466
0.834385
0.809886
0.813842
0.824787
0.81199
0.819221
0.804154
0.827326
0.819728
0.836157
0.778665
0.798674
0.811462
0.808877
0.859383
0.720593
0.843294
0.753304
0.789493
0.804441
0.814544
0.842806
0.809334
0.811844
0.860683
0.81214
0.823168
0.782592
0.806886
0.792218
0.817562
0.817217
0.812383
0.816658
0.803385
0.803428
0.796519
0.838971
0.805938
0.760635
0.795467
0.817244
0.797135
0.803528
0.812318
0.708887
0.821109
0.803714
0.723007
0.820996
0.811936
0.811844
0.818324
0.808697
0.646057
0.757423
0.823011
0.82432
0.713813
0.812538
0.827935
0.815352
0.688521
0.816207
0.712859
0.787843
0.808823
0.826002
0.808027
0.815384
0.820846
0.741442
0.811249
0.809402
0.77343
0.771852
0.790473
0.81095
0.812738
0.796969
0.496211
0.787172
0.757419
0.742623
0.770198
0.712976
0.812196
0.814831
0.807239
0.803377
0.806005
0.816715
0.760028
0.802875
0.82841
0.814758
0.833376
0.803339
0.816547
0.81421
0.811886
0.834523
0.803938
0.811116
0.795902
0.700825
0.813964
0.820584
0.809477
0.807109
0.834451
0.802846
0.802605
0.819192
0.805917
0.855275
0.809537
0.803098
0.817845
0.802461
0.812269
0.757165
0.635166
0.815037
0.697398
0.826781
0.802371
0.721104
0.811877
0.813934
0.814783
0.826175
0.791666
0.710537
0.74757
0.594779
0.81493
0.723722
0.799222
0.807082
0.83765
0.815011
0.57491
0.804028
0.728568
0.837263
0.801154
0.694582
0.811301
0.826968
0.814507
0.556712
0.813245
0.801098
0.798838
0.80596
0.78833
0.773814
0.815705
0.815521
0.529063
0.814541
0.813688
0.772103
0.80203
0.811925
0.780469
0.81719
0.78295
0.709011
0.802798
0.805813
0.567304
0.54326
0.756168
0.807879
0.820366
0.790048
0.811572
0.814732
0.77603
0.805926
0.803485
0.816606
0.829401
0.793087
0.808289
0.81147
0.631248
0.818852
0.699214
0.797188
0.793266
0.777556
0.835553
0.809315
0.796568
0.676161
0.667935
0.803554
0.80563
0.81961
0.804222
0.798319
0.651987
0.81504
0.822054
0.818086
0.811948
0.812799
0.799363
0.790893
0.814096
0.56953
0.807873
0.812137
0.814341
0.812508
0.765232
0.821471
0.801494
0.814133
0.812989
0.753866
0.752381
0.803401
0.803482
0.523306
0.812362
0.811871
0.807062
0.811738
0.803298
0.800941
0.727994
0.71186
0.814311
0.748312
0.757912
0.818391
0.837415
0.814115
0.802139
0.808482
0.812181
0.803446
0.816974
0.782487
0.816905
0.811765
0.810656
0.795067
0.810367
0.792088
0.811755
0.589578
0.799511
0.800358
0.811847
0.813423
0.767546
0.801595
0.812127
0.812348
0.817958
0.770209
0.818262
0.808307
0.752457
0.761687
0.812865
0.805741
0.829123
0.824667
0.823146
0.804264
0.59397
0.778943
0.600164
0.803375
0.802914
0.800718
0.814202
0.874003
0.525893
0.593291
0.838263
0.871964
0.811784
0.690072
0.801929
0.716027
0.806779
0.815683
0.706931
0.650782
0.751061
0.812855
0.475763
0.873534
0.824317
0.798433
0.808767
0.478628
0.739572
0.781681
0.817525
0.804605
0.800514
0.83018
0.812238
0.705453
0.684815
0.801536
0.806051
0.809224
0.811506
0.808783
0.811827
0.735473
0.791162
0.797177
0.802494
0.764006
0.817599
0.807869
0.812785
0.811543
0.755046
0.805597
0.804072
0.793187
0.81206
0.815642
0.806885
0.657121
0.787437
0.817447
0.812822
0.8122
0.807344
0.812637
0.804136
0.821113
0.821465
0.612867
0.855116
0.743982
0.820549
0.804896
0.747004
0.82446
0.800889
0.825407
0.548278
0.799418
0.679019
0.811905
0.80921
0.521681
0.799898
0.804622
0.797998
0.802072
0.800602
0.772205
0.811766
0.592306
0.805703
0.806082
0.799177
0.818263
0.764901
0.811901
0.809273
0.797824
0.816152
0.796443
0.802846
0.812259
0.634051
0.769233
0.733857
0.49
0.824672
0.568037
0.802605
0.818756
0.856581
0.702852
0.739515
0.812057
0.80609
0.800877
0.793653
0.765855
0.810834
0.812325
0.797069
0.813043
0.816376
0.471623
0.812291
0.81319
0.80633
0.81002
0.604088
0.815124
0.821483
0.705409
0.788759
0.813098
0.801029
0.828115
0.831293
0.804077
0.742448
0.472878
0.813799
0.570932
0.798698
0.803322
0.774704
0.81193
0.750371
0.811226
0.80657
0.803355
0.485747
0.814197
0.827376
0.830524
0.814727
0.803472
0.803218
0.81232
0.758505
0.847298
0.836785
0.7091
0.798575
0.65331
0.778005
0.667449
0.816023
0.836037
0.798887
0.637618
0.765748
0.813601
0.82439
0.832547
0.813599
0.670067
0.537464
0.804556
0.815845
0.801282
0.815763
0.804687
0.771588
0.851068
0.815171
0.804038
0.816694
0.798999
0.744028
0.797939
0.811326
0.596448
0.689072
0.803308
0.810671
0.8048
0.574976
0.811516
0.604718
0.812329
0.767545
0.816844
0.816248
0.753535
0.806501
0.792352
0.805145
0.836813
0.837104
0.831275
0.804778
0.816068
0.579353
0.812364
0.856759
0.825053
0.829236
0.804194
0.820727
0.799281
0.839791
0.808744
0.814374
0.672447
0.630319
0.835698
0.813298
0.840645
0.715761
0.801177
0.763439
0.797155
0.809563
0.793105
0.806992
0.813013
0.822643
0.828061
0.830028
0.805408
0.750126
0.804056
0.729256
0.793144
0.821472
0.800894
0.815026
0.758196
0.805055
0.804311
0.84695
0.809022
0.803408
0.805978
0.834255
0.831316
0.803584
0.856279
0.795914
0.820012
0.661368
0.80316
0.800235
0.798766
0.831674
0.608706
0.806327
0.805548
0.65843
0.81451
0.829292
0.81378
0.80338
0.806025
0.802496
0.816016
0.798838
0.720571
0.513406
0.813328
0.805582
0.801772
0.804497
0.802956
0.803677
0.810659
0.798029
0.813656
0.583171
0.812751
0.8094
0.811818
0.842322
0.813653
0.834185
0.811334
0.797597
0.812724
0.682345
0.803723
0.850155
0.812757
0.793002
0.814123
0.633828
0.805449
0.566067
0.662037
0.673247
0.809547
0.815445
0.812427
0.497017
0.69441
0.803464
0.83074
0.747295
0.831297
0.805155
0.804675
0.796675
0.694027
0.751215
0.547131
0.802753
0.811602
0.804241
0.820829
0.669795
0.620106
0.853924
0.801493
0.813972
0.728914
0.813485
0.52623
0.820782
0.703151
0.813778
0.817464
0.801657
0.802106
0.825124
0.794836
0.803597
0.803849
0.631239
0.80658
0.653026
0.798738
0.798169
0.813665
0.81532
0.729062
0.815343
0.755805
0.803152
0.721534
0.804943
0.745971
0.671431
0.824497
0.812337
0.79906
0.72629
0.811333
0.658332
0.810862
0.802911
0.728429
0.825817
0.816303
0.63728
0.695974
0.825743
0.803654
0.725546
0.833634
0.834692
0.836085
0.811693
0.548074
0.75101
0.820985
0.820271
0.520782
0.639941
0.815556
0.812397
0.721704
0.778365
0.811985
0.807023
0.757903
0.812124
0.813443
0.80357
0.728641
0.802229
0.796863
0.812037
0.576796
0.805555
0.821736
0.57416
0.818113
0.845277
0.811949
0.676545
0.81168
0.811563
0.811786
0.801157
0.818668
0.803238
0.80668
0.804851
0.803309
0.813455
0.484812
0.809843
0.809654
0.691731
0.603029
0.786073
0.798283
0.812026
0.753272
0.563716
0.811372
0.783458
0.811997
0.821454
0.813434
0.825049
0.748279
0.59013
0.811469
0.839028
0.811945
0.709541
0.803436
0.72725
0.813089
0.811024
0.811854
0.817306
0.801244
0.813012
0.808328
0.757549
0.816192
0.812573
0.751713
0.791883
0.7107
0.558174
0.733472
0.781516
0.815769
0.811259
0.810602
0.810529
0.803294
0.795338
0.80806
0.70748
0.753413
0.811527
0.80342
0.804822
0.818329
0.60401
0.813504
0.80389
0.843512
0.807791
0.636172
0.793672
0.803802
0.84244
0.690587
0.561699
0.576902
0.635152
0.817561
0.80449
0.560201
0.585192
0.819902
0.812127
0.889274
0.804799
0.829411
0.81237
0.769437
0.810744
0.812536
0.812018
0.810577
0.81195
0.797956
0.81212
0.640551
0.815671
0.803627
0.809589
0.756683
0.817104
0.610858
0.85537
0.803926
0.826964
0.811944
0.807993
0.748101
0.822203
0.811867
0.837175
0.811733
0.81246
0.641055
0.82672
0.810087
0.812325
0.836569
0.822518
0.553678
0.796401
0.802715
0.810871
0.816936
0.803935
0.800159
0.815153
0.765054
0.8049
0.815799
0.863432
0.831106
0.586607
0.796012
0.754052
0.813973
0.761461
0.819339
0.804828
0.806381
0.812177
0.789092
0.805567
0.815454
0.821808
0.787326
0.668248
0.733695
0.697697
0.814074
0.835831
0.837768
0.733411
0.808799
0.753939
0.609528
0.811971
0.799409
0.811732
0.803572
0.63069
0.80221
0.776473
0.736717
0.810701
0.744642
0.80754
0.816398
0.85971
0.80962
0.807079
0.739922
0.812431
0.775826
0.839347
0.883732
0.796959
0.520376
0.799619
0.607495
0.769244
0.657196
0.799149
0.494433
0.814936
0.849698
0.805923
0.810555
0.819649
0.802781
0.803251
0.696568
0.822882
0.811874
0.804146
0.806554
0.792421
0.803556
0.80677
0.62826
0.81647
0.801956
0.845124
0.807934
0.804359
0.80143
0.812913
0.813028
0.807491
0.80353
0.787488
0.81209
0.79524
0.801679
0.8132
0.771728
0.566949
0.812599
0.818094
0.803969
0.724678
0.801116
0.807657
0.80348
0.698128
0.872973
0.811545
0.816663
0.811973
0.847657
0.778125
0.812046
0.787582
0.815777
0.82198
0.663148
0.812083
0.728518
0.818983
0.718073
0.799413
0.751123
0.80246
0.569589
0.809141
0.735118
0.476137
0.82012
0.661745
0.769067
0.817162
0.81224
0.776495
0.81118
0.718585
0.638038
0.826111
0.69804
0.816639
0.767299
0.801588
0.807922
0.813195
0.652145
0.804304
0.774856
0.809515
0.811996
0.828929
0.806107
0.687444
0.755409
0.651244
0.798115
0.802953
0.811881
0.815343
0.811885
0.811455
0.809296
0.663363
0.731223
0.48734
0.696264
0.813816
0.808052
0.832916
0.809397
0.814623
0.710247
0.873915
0.815095
0.826131
0.571342
0.822816
0.812098
0.84063
0.845503
0.826512
0.829964
0.820114
0.540317
0.805723
0.814856
0.716121
0.816695
0.801247
0.812032
0.807928
0.812521
0.812588
0.767106
0.721349
0.797937
0.800285
0.571564
0.813939
0.858972
0.815236
0.658523
0.822425
0.813042
0.819463
0.835115
0.686716
0.486277
0.80484
0.8398
0.806057
0.80387
0.814134
0.801557
0.812408
0.809436
0.799899
0.804239
0.804678
0.812387
0.805549
0.806155
0.798521
0.83605
0.830624
0.853166
0.812811
0.807327
0.814384
0.812899
0.811986
0.810935
0.815504
0.833931
0.808595
0.81102
0.60052
0.83047
0.711138
0.868138
0.803614
0.833228
0.798985
0.786064
0.785657
0.740045
0.821099
0.810924
0.811443
0.813301
0.775802
0.807792
0.584168
0.806064
0.812909
0.813065
0.795667
0.811974
0.610987
0.783465
0.558157
0.820712
0.796843
0.774492
0.801841
0.813594
0.812344
0.812379
0.737954
0.808192
0.811831
0.810305
0.803644
0.803811
0.747308
0.767224
0.809226
0.803722
0.69614
0.597776
0.48958
0.840983
0.806058
0.778546
0.781183
0.824224
0.80357
0.803959
0.817958
0.779205
0.757
0.816076
0.807427
0.811095
0.837167
0.80482
0.811648
0.808245
0.483294
0.803438
0.811802
0.773678
0.819347
0.814128
0.825531
0.59924
0.710375
0.572862
0.82822
0.815532
0.74324
0.811818
0.676673
0.813669
0.810596
0.8118
0.803069
0.811819
0.576803
0.686277
0.806079
0.813218
0.793687
0.80123
0.830988
0.798646
0.802991
0.642792
0.807719
0.811863
0.804268
0.812173
0.802737
0.616844
0.814206
0.812289
0.572333
0.696955
0.793078
0.828104
0.697353
0.803993
0.793626
0.812045
0.756553
0.684874
0.810344
0.79589
0.799267
0.766324
0.540476
0.820178
0.673437
0.747608
0.731341
0.803966
0.797261
0.811363
0.659966
0.767535
0.803966
0.814913
0.59252
0.798856
0.825725
0.807131
0.538989
0.805591
0.783395
0.706972
0.705696
0.800391
0.819054
0.812922
0.808597
0.699342
0.739593
0.641366
0.832264
0.842852
0.816828
0.788147
0.865188
0.696675
0.813268
0.766715
0.790198
0.795515
0.811877
0.803981
0.811502
0.787076
0.755199
0.819681
0.796692
0.842083
0.719284
0.791381
0.805513
0.723204
0.803199
0.814409
0.575871
0.80194
0.798924
0.802791
0.821121
0.764229
0.800155
0.722569
0.812057
0.808823
0.725151
0.812058
0.816143
0.828596
0.805578
0.78708
0.797605
0.805607
0.726578
0.812372
0.801128
0.677468
0.806877
0.780253
0.831849
0.820838
0.818939
0.839256
0.848183
0.698966
0.813645
0.795502
0.78729
0.61746
0.816894
0.803603
0.812142
0.776114
0.853432
0.832759
0.781785
0.841961
0.779765
0.800632
0.771932
0.812133
0.721645
0.635724
0.844164
0.660889
0.792804
0.839688
0.812354
0.671077
0.809229
0.751858
0.803962
0.798997
0.781298
0.804153
0.801026
0.802789
0.801888
0.785594
0.81194
0.781389
0.816197
0.807458
0.712574
0.783819
0.815133
0.812376
0.805482
0.563943
0.825073
0.812796
0.811967
0.703292
0.804761
0.801081
0.801275
0.815832
0.746207
0.815915
0.800531
0.804546
0.755164
0.811402
0.812732
0.805886
0.768972
0.807874
0.812914
0.808038
0.815784
0.808288
0.806061
0.822879
0.804595
0.788719
0.806179
0.812109
0.818139
0.778697
0.703498
0.813703
0.812168
0.800716
0.742411
0.788792
0.654021
0.803389
0.540095
0.803165
0.814352
0.774874
0.83455
0.515008
0.809405
0.738407
0.810397
0.534138
0.804333
0.827787
0.813255
0.818673
0.734208
0.840895
0.553463
0.823498
0.702381
0.799525
0.477173
0.669812
0.81249
0.811976
0.741691
0.800947
0.820838
0.611984
0.821958
0.770916
0.833451
0.81198
0.814101
0.813073
0.803824
0.836766
0.81064
0.803755
0.475835
0.803106
0.843452
0.802219
0.801307
0.76756
0.805387
0.811922
0.812077
0.796561
0.734277
0.810371
0.815436
0.602942
0.804159
0.536277
0.815598
0.539385
0.81192
0.770359
0.68247
0.733498
0.783084
0.712988
0.841473
0.813695
0.796859
0.803968
0.703295
0.802553
0.789426
0.802439
0.814933
0.801684
0.731466
0.697803
0.80058
0.772261
0.518819
0.811137
0.663109
0.794094
0.705688
0.825
0.809373
0.825006
0.810169
0.83714
0.807218
0.579802
0.829195
0.806975
0.801517
0.815375
0.811912
0.812536
0.814562
0.825085
0.816334
0.617974
0.804745
0.800654
0.812834
0.69214
0.802309
0.823211
0.756347
0.688531
0.807485
0.688236
0.731646
0.810017
0.812648
0.668494
0.841441
0.766914
0.805389
0.796409
0.809726
0.844461
0.801056
0.538649
0.814834
0.708352
0.51658
0.77818
0.758079
0.769502
0.812129
0.803515
0.816343
0.811942
0.585739
0.787491
0.831199
0.812026
0.591114
0.721428
0.634748
0.816604
0.8104
0.690891
0.803979
0.812106
0.799296
0.834175
0.605966
0.840304
0.740164
0.811899
0.812408
0.669038
0.812474
0.721014
0.79179
0.716549
0.811853
0.784411
0.633843
0.724129
0.712276
0.833111
0.809345
0.819272
0.821985
0.803343
0.808505
0.802787
0.817595
0.803249
0.686949
0.803428
0.603427
0.77668
0.807173
0.802285
0.812101
0.824217
0.803327
0.716831
0.710574
0.667136
0.790249
0.816691
0.749081
0.579049
0.751446
0.810183
0.80185
0.760166
0.803563
0.823115
0.753197
0.568712
0.701925
0.798586
0.8121
0.864269
0.814568
0.811702
0.851792
0.799541
0.801844
0.814349
0.812199
0.805311
0.717567
0.80914
0.695385
0.862206
0.77863
0.813374
0.573598
0.796465
0.529062
0.583158
0.584643
0.807872
0.80363
0.809227
0.7581
0.803553
0.532114
0.782183
0.802886
0.734495
0.814288
0.801602
0.81579
0.842859
0.509261
0.812
0.802079
0.809532
0.816714
0.81282
0.812287
0.754097
0.797123
0.798783
0.80323
0.797541
0.810676
0.845263
0.818517
0.723644
0.804672
0.606643
0.813152
0.811996
0.586462
0.766819
0.766885
0.536167
0.784232
0.803637
0.878246
0.798336
0.813064
0.755157
0.794408
0.797016
0.809213
0.782659
0.541842
0.711365
0.680359
0.78103
0.814614
0.802881
0.821803
0.790219
0.801789
0.812745
0.798053
0.852126
0.704451
0.811811
0.780656
0.530806
0.515461
0.812858
0.80354
0.805437
0.560277
0.796978
0.803738
0.65906
0.813685
0.790581
0.806521
0.814772
0.532444
0.724588
0.718697
0.81241
0.831975
0.629835
0.789815
0.717142
0.813557
0.827226
0.779412
0.773119
0.534999
0.811483
0.802405
0.723611
0.851971
0.805812
0.722611
0.739816
0.763841
0.810757
0.563331
0.796692
0.737953
0.800321
0.821817
0.720286
0.799148
0.811723
0.716472
0.812998
0.705917
0.815949
0.798178
0.759669
0.689731
0.808877
0.799997
0.813329
0.669512
0.805368
0.804825
0.811549
0.699401
0.812104
0.80836
0.831726
0.647593
0.815456
0.740719
0.811893
0.805692
0.842174
0.80368
0.818884
0.749008
0.815149
0.838763
0.832788
0.816419
0.845552
0.752307
0.847704
0.825961
0.803816
0.825722
0.805597
0.646552
0.778042
0.813889
0.746769
0.695081
0.798429
0.804055
0.679619
0.79741
0.53784
0.848417
0.695948
0.706168
0.813531
0.774448
0.806867
0.798926
0.80693
0.803885
0.811989
0.835597
0.729933
0.772114
0.588109
0.809973
0.777009
0.810883
0.805111
0.569939
0.802903
0.802529
0.807459
0.798611
0.816699
0.808148
0.709934
0.823097
0.847872
0.684366
0.743582
0.812142
0.800901
0.712244
0.814259
0.754308
0.796778
0.802896
0.805357
0.83712
0.668653
0.723338
0.800797
0.701933
0.772633
0.832124
0.531878
0.691188
0.799578
0.804284
0.803362
0.741753
0.82235
0.806861
0.803659
0.808124
0.813267
0.696036
0.649072
0.80967
0.81377
0.799221
0.871415
0.802713
0.812328
0.799043
0.809929
0.811242
0.808359
0.652931
0.814738
0.816552
0.803436
0.801849
0.799359
0.617222
0.809683
0.810484
0.812392
0.862259
0.814398
0.801482
0.480457
0.836315
0.692453
0.826366
0.805754
0.813773
0.823984
0.80906
0.812041
0.730887
0.55125
0.491506
0.812303
0.808931
0.533956
0.795554
0.814463
0.833251
0.503886
0.809568
0.813404
0.802249
0.809073
0.530096
0.81309
0.808242
0.559843
0.812183
0.815235
0.538646
0.808744
0.81264
0.775818
0.806263
0.811157
0.809471
0.798978
0.825852
0.533711
0.830152
0.815796
0.804066
0.742049
0.786172
0.81133
0.80938
0.802091
0.815919
0.800701
0.656945
0.806141
0.578129
0.811936
0.659796
0.746274
0.796994
0.718242
0.803541
0.579642
0.849717
0.812178
0.812311
0.799244
0.802701
0.80318
0.813633
0.814338
0.67005
0.717609
0.726163
0.814754
0.721286
0.572925
0.817379
0.783696
0.827856
0.811668
0.809373
0.732468
0.535746
0.798715
0.79002
0.496015
0.813823
0.812983
0.735564
0.805904
0.768489
0.60693
0.809932
0.814639
0.788622
0.609728
0.802306
0.782955
0.826327
0.812951
0.810359
0.81189
0.81281
0.715792
0.800061
0.815716
0.694588
0.480361
0.732878
0.798801
0.730738
0.812988
0.798099
0.805521
0.782558
0.867314
0.803554
0.801668
0.825757
0.859314
0.804613
0.815677
0.794317
0.815886
0.78915
0.74398
0.811905
0.804258
0.816208
0.803247
0.790796
0.842779
0.766083
0.812708
0.773359
0.803715
0.642494
0.509281
0.800982
0.80216
0.809503
0.798147
0.799667
0.811897
0.772898
0.804609
0.81198
0.782186
0.816897
0.777164
0.593263
0.805042
0.760901
0.776189
0.750437
0.763664
0.793914
0.788568
0.823024
0.787507
0.809417
0.803367
0.765105
0.815499
0.542167
0.729482
0.810524
0.81398
0.811387
0.802313
0.812819
0.810514
0.805748
0.821143
0.809683
0.782941
0.816591
0.801678
0.790463
0.795887
0.805165
0.586062
0.80362
0.792165
0.574401
0.813175
0.807231
0.806043
0.810755
0.7023
0.754898
0.821095
0.774894
0.811383
0.81631
0.722277
0.804479
0.824091
0.720023
0.799421
0.809498
0.77856
0.80471
0.836949
0.8019
0.817309
0.772513
0.805335
0.800288
0.81306
0.802096
0.79788
0.588623
0.815201
0.786709
0.806631
0.825609
0.691018
0.828538
0.819957
0.505192
0.806377
0.80445
0.801457
0.812249
0.824231
0.824045
0.804907
0.805896
0.81415
0.813365
0.80352
0.81255
0.804722
0.749242
0.708153
0.780891
0.813647
0.812074
0.77585
0.757772
0.81392
0.824927
0.810515
0.812199
0.691403
0.500633
0.747782
0.817518
0.806707
0.816227
0.844183
0.799864
0.714817
0.654152
0.799646
0.804683
0.694167
0.812649
0.671076
0.836803
0.729206
0.812837
0.89525
0.815604
0.800797
0.777721
0.811094
0.681417
0.814182
0.808205
0.791507
0.805595
0.779413
0.800641
0.810027
0.780447
0.803574
0.852056
0.776993
0.80213
0.492756
0.803166
0.69387
0.804095
0.794445
0.788573
0.783605
0.722199
0.802081
0.788171
0.844447
0.813267
0.812424
0.811761
0.895508
0.746393
0.802732
0.730788
0.803156
0.79835
0.804495
0.716719
0.800915
0.805495
0.63896
0.808648
0.748561
0.533786
0.846502
0.847324
0.750007
0.810754
0.794666
0.772008
0.731703
0.775982
0.785473
0.736208
0.803848
0.804412
0.719419
0.815295
0.804974
0.55673
0.811973
0.82143
0.813233
0.803504
0.61065
0.714934
0.806269
0.859168
0.483607
0.724495
0.806451
0.81595
0.796434
0.713245
0.710623
0.809019
0.813216
0.814993
0.837069
0.745186
0.754364
0.875738
0.806859
0.809199
0.795163
0.637341
0.597255
0.585926
0.656948
0.586077
0.764179
0.800709
0.803374
0.812251
0.809118
0.811472
0.860152
0.715343
0.823855
0.813875
0.817075
0.816624
0.813804
0.812947
0.811558