# vtk DataFile Version 1.0
unstructured grid
ascii
DATASET UNSTRUCTURED_GRID
points 14760 float
-1 0 0
-1 1 0
2 0 0
2 1 0
0 0 0
1 0 0
-1 1 0.1
-1 0 0.1
0 0 0.1
1 0 0.1
2 0 0.1
2 1 0.1
-0.99 0 0
-0.98 0 0
-0.97 0 0
-0.96 0 0
-0.95 0 0
-0.94 0 0
-0.93 0 0
-0.92 0 0
-0.91 0 0
-0.9 0 0
-0.89 0 0
-0.88 0 0
-0.87 0 0
-0.86 0 0
-0.85 0 0
-0.84 0 0
-0.83 0 0
-0.82 0 0
-0.81 0 0
-0.8 0 0
-0.79 0 0
-0.78 0 0
-0.77 0 0
-0.76 0 0
-0.75 0 0
-0.74 0 0
-0.73 0 0
-0.72 0 0
-0.71 0 0
-0.7 0 0
-0.69 0 0
-0.68 0 0
-0.67 0 0
-0.66 0 0
-0.65 0 0
-0.64 0 0
-0.63 0 0
-0.62 0 0
-0.61 0 0
-0.6 0 0
-0.59 0 0
-0.58 0 0
-0.57 0 0
-0.56 0 0
-0.55 0 0
-0.54 0 0
-0.53 0 0
-0.52 0 0
-0.51 0 0
-0.5 0 0
-0.49 0 0
-0.48 0 0
-0.47 0 0
-0.46 0 0
-0.45 0 0
-0.44 0 0
-0.43 0 0
-0.42 0 0
-0.41 0 0
-0.4 0 0
-0.39 0 0
-0.38 0 0
-0.37 0 0
-0.36 0 0
-0.35 0 0
-0.34 0 0
-0.33 0 0
-0.32 0 0
-0.31 0 0
-0.3 0 0
-0.29 0 0
-0.28 0 0
-0.27 0 0
-0.26 0 0
-0.25 0 0
-0.24 0 0
-0.23 0 0
-0.22 0 0
-0.21 0 0
-0.2 0 0
-0.19 0 0
-0.18 0 0
-0.17 0 0
-0.16 0 0
-0.15 0 0
-0.14 0 0
-0.13 0 0
-0.12 0 0
-0.11 0 0
-0.1 0 0
-0.09 0 0
-0.08 0 0
-0.07 0 0
-0.06 0 0
-0.05 0 0
-0.04 0 0
-0.03 0 0
-0.02 0 0
-0.01 0 0
1.01 0 0
1.02 0 0
1.03 0 0
1.04 0 0
1.05 0 0
1.06 0 0
1.07 0 0
1.08 0 0
1.09 0 0
1.1 0 0
1.11 0 0
1.12 0 0
1.13 0 0
1.14 0 0
1.15 0 0
1.16 0 0
1.17 0 0
1.18 0 0
1.19 0 0
1.2 0 0
1.21 0 0
1.22 0 0
1.23 0 0
1.24 0 0
1.25 0 0
1.26 0 0
1.27 0 0
1.28 0 0
1.29 0 0
1.3 0 0
1.31 0 0
1.32 0 0
1.33 0 0
1.34 0 0
1.35 0 0
1.36 0 0
1.37 0 0
1.38 0 0
1.39 0 0
1.4 0 0
1.41 0 0
1.42 0 0
1.43 0 0
1.44 0 0
1.45 0 0
1.46 0 0
1.47 0 0
1.48 0 0
1.49 0 0
1.5 0 0
1.51 0 0
1.52 0 0
1.53 0 0
1.54 0 0
1.55 0 0
1.56 0 0
1.57 0 0
1.58 0 0
1.59 0 0
1.6 0 0
1.61 0 0
1.62 0 0
1.63 0 0
1.64 0 0
1.65 0 0
1.66 0 0
1.67 0 0
1.68 0 0
1.69 0 0
1.7 0 0
1.71 0 0
1.72 0 0
1.73 0 0
1.74 0 0
1.75 0 0
1.76 0 0
1.77 0 0
1.78 0 0
1.79 0 0
1.8 0 0
1.81 0 0
1.82 0 0
1.83 0 0
1.84 0 0
1.85 0 0
1.86 0 0
1.87 0 0
1.88 0 0
1.89 0 0
1.9 0 0
1.91 0 0
1.92 0 0
1.93 0 0
1.94 0 0
1.95 0 0
1.96 0 0
1.97 0 0
1.98 0 0
1.99 0 0
2 0.0100088 0
2 0.0204183 0
2 0.0312446 0
2 0.0425043 0
2 0.0542147 0
2 0.066394 0
2 0.079061 0
2 0.092235 0
2 0.105936 0
2 0.120186 0
2 0.135007 0
2 0.150421 0
2 0.166452 0
2 0.183124 0
2 0.200465 0
2 0.218499 0
2 0.237256 0
2 0.256763 0
2 0.277051 0
2 0.298152 0
2 0.320097 0
2 0.342921 0
2 0.366659 0
2 0.391347 0
2 0.417024 0
2 0.443728 0
2 0.471502 0
2 0.500387 0
2 0.530429 0
2 0.561674 0
2 0.594169 0
2 0.627966 0
2 0.663115 0
2 0.699672 0
2 0.737692 0
2 0.777235 0
2 0.818361 0
2 0.861133 0
2 0.905617 0
2 0.951882 0
1.95 1 0
1.9 1 0
1.85 1 0
1.8 1 0
1.75 1 0
1.7 1 0
1.65 1 0
1.6 1 0
1.55 1 0
1.5 1 0
1.45 1 0
1.4 1 0
1.35 1 0
1.3 1 0
1.25 1 0
1.2 1 0
1.15 1 0
1.1 1 0
1.05 1 0
1 1 0
0.95 1 0
0.9 1 0
0.85 1 0
0.8 1 0
0.75 1 0
0.7 1 0
0.65 1 0
0.6 1 0
0.55 1 0
0.5 1 0
0.45 1 0
0.4 1 0
0.35 1 0
0.3 1 0
0.25 1 0
0.2 1 0
0.15 1 0
0.1 1 0
0.05 1 0
3.69793e-12 1 0
-0.05 1 0
-0.1 1 0
-0.15 1 0
-0.2 1 0
-0.25 1 0
-0.3 1 0
-0.35 1 0
-0.4 1 0
-0.45 1 0
-0.5 1 0
-0.55 1 0
-0.6 1 0
-0.65 1 0
-0.7 1 0
-0.75 1 0
-0.8 1 0
-0.85 1 0
-0.9 1 0
-0.95 1 0
-1 0.951882 0
-1 0.905617 0
-1 0.861133 0
-1 0.818361 0
-1 0.777235 0
-1 0.737692 0
-1 0.699672 0
-1 0.663115 0
-1 0.627966 0
-1 0.594169 0
-1 0.561674 0
-1 0.530429 0
-1 0.500387 0
-1 0.471502 0
-1 0.443728 0
-1 0.417024 0
-1 0.391347 0
-1 0.366659 0
-1 0.342921 0
-1 0.320097 0
-1 0.298152 0
-1 0.277051 0
-1 0.256763 0
-1 0.237256 0
-1 0.218499 0
-1 0.200465 0
-1 0.183124 0
-1 0.166452 0
-1 0.150421 0
-1 0.135007 0
-1 0.120186 0
-1 0.105936 0
-1 0.092235 0
-1 0.079061 0
-1 0.066394 0
-1 0.0542147 0
-1 0.0425043 0
-1 0.0312446 0
-1 0.0204183 0
-1 0.0100088 0
0.00921362 0.00379763 0
0.0184561 0.00752451 0
0.0277268 0.0111804 0
0.0370253 0.0147652 0
0.0463511 0.0182786 0
0.0557034 0.0217203 0
0.0650819 0.0250903 0
0.074486 0.0283883 0
0.083915 0.0316141 0
0.0933685 0.0347675 0
0.102846 0.0378484 0
0.112347 0.0408565 0
0.12187 0.0437917 0
0.131416 0.0466538 0
0.140983 0.0494427 0
0.150572 0.0521581 0
0.160181 0.0547999 0
0.16981 0.0573681 0
0.179458 0.0598623 0
0.189125 0.0622825 0
0.198811 0.0646285 0
0.208514 0.0669001 0
0.218234 0.0690974 0
0.227971 0.07122 0
0.237724 0.073268 0
0.247493 0.0752411 0
0.257276 0.0771393 0
0.267073 0.0789625 0
0.276884 0.0807105 0
0.286708 0.0823832 0
0.296545 0.0839806 0
0.306394 0.0855025 0
0.316254 0.0869488 0
0.326125 0.0883196 0
0.336006 0.0896146 0
0.345896 0.0908339 0
0.355796 0.0919773 0
0.365704 0.0930447 0
0.375621 0.0940362 0
0.385544 0.0949517 0
0.395474 0.095791 0
0.40541 0.0965542 0
0.415352 0.0972412 0
0.425299 0.097852 0
0.43525 0.0983865 0
0.445205 0.0988447 0
0.455164 0.0992266 0
0.465125 0.0995321 0
0.475088 0.0997613 0
0.485052 0.0999141 0
0.495017 0.0999904 0
0.504983 0.0999904 0
0.514948 0.0999141 0
0.524912 0.0997613 0
0.534875 0.0995321 0
0.544836 0.0992266 0
0.554795 0.0988447 0
0.56475 0.0983865 0
0.574701 0.097852 0
0.584648 0.0972412 0
0.59459 0.0965542 0
0.604526 0.095791 0
0.614456 0.0949517 0
0.624379 0.0940362 0
0.634296 0.0930447 0
0.644204 0.0919773 0
0.654104 0.0908339 0
0.663994 0.0896146 0
0.673875 0.0883196 0
0.683746 0.0869488 0
0.693606 0.0855025 0
0.703455 0.0839806 0
0.713292 0.0823832 0
0.723116 0.0807105 0
0.732927 0.0789625 0
0.742724 0.0771393 0
0.752508 0.0752411 0
0.762276 0.073268 0
0.772029 0.07122 0
0.781766 0.0690974 0
0.791486 0.0669001 0
0.801189 0.0646285 0
0.810875 0.0622825 0
0.820542 0.0598623 0
0.83019 0.0573681 0
0.839819 0.0547999 0
0.849428 0.0521581 0
0.859017 0.0494427 0
0.868584 0.0466538 0
0.87813 0.0437917 0
0.887653 0.0408565 0
0.897154 0.0378484 0
0.906631 0.0347675 0
0.916085 0.0316141 0
0.925514 0.0283883 0
0.934918 0.0250903 0
0.944297 0.0217203 0
0.953649 0.0182786 0
0.962975 0.0147652 0
0.972273 0.0111804 0
0.981544 0.00752451 0
0.990786 0.00379763 0
-1 0.951882 0.1
-1 0.905617 0.1
-1 0.861133 0.1
-1 0.818361 0.1
-1 0.777235 0.1
-1 0.737692 0.1
-1 0.699672 0.1
-1 0.663115 0.1
-1 0.627966 0.1
-1 0.594169 0.1
-1 0.561674 0.1
-1 0.530429 0.1
-1 0.500387 0.1
-1 0.471502 0.1
-1 0.443728 0.1
-1 0.417024 0.1
-1 0.391347 0.1
-1 0.366659 0.1
-1 0.342921 0.1
-1 0.320097 0.1
-1 0.298152 0.1
-1 0.277051 0.1
-1 0.256763 0.1
-1 0.237256 0.1
-1 0.218499 0.1
-1 0.200465 0.1
-1 0.183124 0.1
-1 0.166452 0.1
-1 0.150421 0.1
-1 0.135007 0.1
-1 0.120186 0.1
-1 0.105936 0.1
-1 0.092235 0.1
-1 0.079061 0.1
-1 0.066394 0.1
-1 0.0542147 0.1
-1 0.0425043 0.1
-1 0.0312446 0.1
-1 0.0204183 0.1
-1 0.0100088 0.1
-0.99 0 0.1
-0.98 0 0.1
-0.97 0 0.1
-0.96 0 0.1
-0.95 0 0.1
-0.94 0 0.1
-0.93 0 0.1
-0.92 0 0.1
-0.91 0 0.1
-0.9 0 0.1
-0.89 0 0.1
-0.88 0 0.1
-0.87 0 0.1
-0.86 0 0.1
-0.85 0 0.1
-0.84 0 0.1
-0.83 0 0.1
-0.82 0 0.1
-0.81 0 0.1
-0.8 0 0.1
-0.79 0 0.1
-0.78 0 0.1
-0.77 0 0.1
-0.76 0 0.1
-0.75 0 0.1
-0.74 0 0.1
-0.73 0 0.1
-0.72 0 0.1
-0.71 0 0.1
-0.7 0 0.1
-0.69 0 0.1
-0.68 0 0.1
-0.67 0 0.1
-0.66 0 0.1
-0.65 0 0.1
-0.64 0 0.1
-0.63 0 0.1
-0.62 0 0.1
-0.61 0 0.1
-0.6 0 0.1
-0.59 0 0.1
-0.58 0 0.1
-0.57 0 0.1
-0.56 0 0.1
-0.55 0 0.1
-0.54 0 0.1
-0.53 0 0.1
-0.52 0 0.1
-0.51 0 0.1
-0.5 0 0.1
-0.49 0 0.1
-0.48 0 0.1
-0.47 0 0.1
-0.46 0 0.1
-0.45 0 0.1
-0.44 0 0.1
-0.43 0 0.1
-0.42 0 0.1
-0.41 0 0.1
-0.4 0 0.1
-0.39 0 0.1
-0.38 0 0.1
-0.37 0 0.1
-0.36 0 0.1
-0.35 0 0.1
-0.34 0 0.1
-0.33 0 0.1
-0.32 0 0.1
-0.31 0 0.1
-0.3 0 0.1
-0.29 0 0.1
-0.28 0 0.1
-0.27 0 0.1
-0.26 0 0.1
-0.25 0 0.1
-0.24 0 0.1
-0.23 0 0.1
-0.22 0 0.1
-0.21 0 0.1
-0.2 0 0.1
-0.19 0 0.1
-0.18 0 0.1
-0.17 0 0.1
-0.16 0 0.1
-0.15 0 0.1
-0.14 0 0.1
-0.13 0 0.1
-0.12 0 0.1
-0.11 0 0.1
-0.1 0 0.1
-0.09 0 0.1
-0.08 0 0.1
-0.07 0 0.1
-0.06 0 0.1
-0.05 0 0.1
-0.04 0 0.1
-0.03 0 0.1
-0.02 0 0.1
-0.01 0 0.1
0.00921362 0.00379763 0.1
0.0184561 0.00752451 0.1
0.0277268 0.0111804 0.1
0.0370253 0.0147652 0.1
0.0463511 0.0182786 0.1
0.0557034 0.0217203 0.1
0.0650819 0.0250903 0.1
0.074486 0.0283883 0.1
0.083915 0.0316141 0.1
0.0933685 0.0347675 0.1
0.102846 0.0378484 0.1
0.112347 0.0408565 0.1
0.12187 0.0437917 0.1
0.131416 0.0466538 0.1
0.140983 0.0494427 0.1
0.150572 0.0521581 0.1
0.160181 0.0547999 0.1
0.16981 0.0573681 0.1
0.179458 0.0598623 0.1
0.189125 0.0622825 0.1
0.198811 0.0646285 0.1
0.208514 0.0669001 0.1
0.218234 0.0690974 0.1
0.227971 0.07122 0.1
0.237724 0.073268 0.1
0.247493 0.0752411 0.1
0.257276 0.0771393 0.1
0.267073 0.0789625 0.1
0.276884 0.0807105 0.1
0.286708 0.0823832 0.1
0.296545 0.0839806 0.1
0.306394 0.0855025 0.1
0.316254 0.0869488 0.1
0.326125 0.0883196 0.1
0.336006 0.0896146 0.1
0.345896 0.0908339 0.1
0.355796 0.0919773 0.1
0.365704 0.0930447 0.1
0.375621 0.0940362 0.1
0.385544 0.0949517 0.1
0.395474 0.095791 0.1
0.40541 0.0965542 0.1
0.415352 0.0972412 0.1
0.425299 0.097852 0.1
0.43525 0.0983865 0.1
0.445205 0.0988447 0.1
0.455164 0.0992266 0.1
0.465125 0.0995321 0.1
0.475088 0.0997613 0.1
0.485052 0.0999141 0.1
0.495017 0.0999904 0.1
0.504983 0.0999904 0.1
0.514948 0.0999141 0.1
0.524912 0.0997613 0.1
0.534875 0.0995321 0.1
0.544836 0.0992266 0.1
0.554795 0.0988447 0.1
0.56475 0.0983865 0.1
0.574701 0.097852 0.1
0.584648 0.0972412 0.1
0.59459 0.0965542 0.1
0.604526 0.095791 0.1
0.614456 0.0949517 0.1
0.624379 0.0940362 0.1
0.634296 0.0930447 0.1
0.644204 0.0919773 0.1
0.654104 0.0908339 0.1
0.663994 0.0896146 0.1
0.673875 0.0883196 0.1
0.683746 0.0869488 0.1
0.693606 0.0855025 0.1
0.703455 0.0839806 0.1
0.713292 0.0823832 0.1
0.723116 0.0807105 0.1
0.732927 0.0789625 0.1
0.742724 0.0771393 0.1
0.752508 0.0752411 0.1
0.762276 0.073268 0.1
0.772029 0.07122 0.1
0.781766 0.0690974 0.1
0.791486 0.0669001 0.1
0.801189 0.0646285 0.1
0.810875 0.0622825 0.1
0.820542 0.0598623 0.1
0.83019 0.0573681 0.1
0.839819 0.0547999 0.1
0.849428 0.0521581 0.1
0.859017 0.0494427 0.1
0.868584 0.0466538 0.1
0.87813 0.0437917 0.1
0.887653 0.0408565 0.1
0.897154 0.0378484 0.1
0.906631 0.0347675 0.1
0.916085 0.0316141 0.1
0.925514 0.0283883 0.1
0.934918 0.0250903 0.1
0.944297 0.0217203 0.1
0.953649 0.0182786 0.1
0.962975 0.0147652 0.1
0.972273 0.0111804 0.1
0.981544 0.00752451 0.1
0.990786 0.00379763 0.1
1.01 0 0.1
1.02 0 0.1
1.03 0 0.1
[...]
CELL_DATA 14313
SCALARS rho float
LOOKUP_TABLE default
0.781314
0.82418
0.805885
0.537498
0.76626
0.81175
0.81242
0.812305
0.811002
0.81512
0.811986
0.798869
0.796983
0.51725
0.812789
0.831851
0.808759
0.807706
0.810004
0.805342
0.810653
0.813921
0.812352
0.766
0.811981
0.814623
0.742376
0.709757
0.823702
0.824301
0.811847
0.794471
0.799484
0.811952
0.804667
0.810601
0.679678
0.808896
0.811538
0.80235
0.752508
0.810321
0.541701
0.701953
0.817555
0.835682
0.810803
0.777396
0.804386
0.850953
0.675377
0.653177
0.589143
0.810513
0.819604
0.782643
0.817541
0.814676
0.810795
0.812259
0.811857
0.818335
0.794448
0.839171
0.810281
0.813236
0.852696
0.783876
0.840518
0.81278
0.798302
0.831414
0.487066
0.837164
0.725858
0.806888
0.824566
0.747063
0.696389
0.811324
0.591838
0.824653
0.833097
0.80347
0.805499
0.819218
0.811732
0.804451
0.826532
0.80699
0.779855
0.522516
0.807297
0.797878
0.725793
0.80383
0.814567
0.80886
0.803218
0.488681
0.806981
0.809567
0.812386
0.814183
0.748385
0.809288
0.802622
0.699506
0.834405
0.80992
0.813849
0.824812
0.812022
0.819249
0.804159
0.827349
0.819754
0.836176
0.778684
0.798711
0.811497
0.808914
0.859394
0.72068
0.843334
0.753349
0.789522
0.80445
0.814576
0.842847
0.809369
0.811881
0.860695
0.812177
0.823193
0.782608
0.80692
0.792228
0.817591
0.817246
0.812419
0.816685
0.803386
0.80343
0.796528
0.838991
0.805944
0.76066
0.79549
0.817273
0.797176
0.803532
0.812354
0.70894
0.821133
0.803717
0.723043
0.821023
0.811972
0.811855
0.818352
0.808708
0.646381
0.757452
0.823037
0.824351
0.713884
0.812573
0.827958
0.815383
0.688582
0.816215
0.712902
0.787873
0.808854
0.826035
0.808059
0.815405
0.820873
0.741498
0.811287
0.809437
0.773457
0.771845
0.790485
0.810986
0.812773
0.796979
0.496361
0.787197
0.757458
0.742678
0.770211
0.713094
0.812232
0.81486
0.807252
0.803382
0.806038
0.816744
0.76006
0.802889
0.828433
0.814789
0.833396
0.803342
0.816555
0.814218
0.811923
0.834539
0.803967
0.811141
0.795925
0.700865
0.813996
0.820623
0.809514
0.807138
0.834471
0.802869
0.802618
0.819204
0.805949
0.85529
0.809562
0.80311
0.817874
0.802469
0.812305
0.757197
0.635467
0.815049
0.697439
0.826804
0.80238
0.721191
0.81191
0.813966
0.814813
0.826208
0.791677
0.710455
0.747619
0.594961
0.814961
0.723757
0.799262
0.807092
0.837669
0.815042
0.574997
0.804035
0.728619
0.837283
0.801183
0.69464
0.811327
0.826991
0.814539
0.556846
0.813253
0.801127
0.798868
0.805987
0.788355
0.773841
0.815713
0.815529
0.529235
0.814573
0.81372
0.772123
0.802037
0.811964
0.780484
0.817217
0.782984
0.709077
0.802808
0.805819
0.567395
0.543359
0.756208
0.807911
0.820393
0.79006
0.811611
0.814764
0.776046
0.805938
0.80349
0.816636
0.829424
0.793115
0.808295
0.811503
0.631424
0.81887
0.699367
0.797229
0.793275
0.777568
0.835573
0.809325
0.796609
0.676243
0.668022
0.803579
0.805659
0.819622
0.804227
0.798359
0.652039
0.815071
0.822072
0.818098
0.811987
0.812831
0.799403
0.790915
0.814128
0.570018
0.807907
0.812174
0.814373
0.812543
0.765266
0.821494
0.801509
0.814166
0.813021
0.753871
0.75242
0.803402
0.803483
0.528096
0.812399
0.811901
0.80709
0.811772
0.803317
0.800946
0.728044
0.711903
0.814343
0.748343
0.757952
0.818429
0.837435
0.814148
0.802169
0.808488
0.812218
0.803451
0.817004
0.782521
0.816935
0.811776
0.810692
0.79509
0.810401
0.792117
0.811794
0.589643
0.799539
0.800384
0.811879
0.813442
0.767577
0.801602
0.812164
0.812385
0.817987
0.770222
0.818275
0.808332
0.752507
0.761698
0.812873
0.805771
0.829146
0.824692
0.823164
0.80429
0.594147
0.778975
0.600274
0.80338
0.802923
0.800749
0.814233
0.874014
0.526009
0.593415
0.838282
0.871975
0.811817
0.690114
0.801964
0.716137
0.806808
0.81571
0.706969
0.65084
0.751099
0.812888
0.476067
0.873545
0.824342
0.798464
0.808778
0.478828
0.73964
0.781707
0.817554
0.804634
0.800546
0.830202
0.812275
0.70552
0.684884
0.801551
0.806064
0.809262
0.811545
0.808791
0.811866
0.735522
0.791173
0.797185
0.802507
0.76404
0.817628
0.807877
0.81282
0.811582
0.755095
0.805602
0.804076
0.793217
0.812097
0.815668
0.806913
0.657198
0.78745
0.817471
0.812829
0.81223
0.807354
0.81267
0.804175
0.821136
0.821489
0.614688
0.855131
0.744013
0.820576
0.804923
0.746978
0.824478
0.800893
0.825431
0.548374
0.799458
0.67909
0.811944
0.809221
0.52186
0.799924
0.804631
0.798005
0.802081
0.800633
0.772234
0.811805
0.592429
0.805716
0.806093
0.799206
0.81829
0.764932
0.81194
0.809309
0.797863
0.816183
0.796483
0.802853
0.812296
0.634107
0.769262
0.733907
0.490161
0.824697
0.568134
0.802612
0.818784
0.856596
0.702976
0.739583
0.812094
0.806101
0.800906
0.793682
0.765894
0.810869
0.812362
0.797095
0.813077
0.816397
0.471924
0.812326
0.813223
0.806335
0.810059
0.604195
0.815153
0.821509
0.705543
0.788772
0.813132
0.801034
0.828158
0.83131
0.80408
0.742446
0.473079
0.813832
0.571015
0.798736
0.803324
0.7747
0.811969
0.750407
0.811264
0.806579
0.803357
0.485911
0.814228
0.827399
0.830547
0.814747
0.803477
0.803221
0.812356
0.758516
0.847315
0.836832
0.709221
0.798612
0.653363
0.778023
0.667508
0.81605
0.836086
0.798926
0.637738
0.765787
0.813634
0.824414
0.832565
0.81362
0.670278
0.537576
0.804585
0.815875
0.801311
0.815795
0.804711
0.771607
0.851116
0.8152
0.804042
0.816723
0.799005
0.74402
0.797979
0.811356
0.596532
0.689115
0.803314
0.81071
0.804806
0.575053
0.811552
0.60478
0.812365
0.767567
0.816867
0.816277
0.753533
0.80653
0.792378
0.805149
0.836851
0.837152
0.831291
0.804782
0.816098
0.579455
0.8124
0.856774
0.82507
0.829258
0.804199
0.820753
0.799311
0.839806
0.808755
0.814384
0.672562
0.630492
0.835719
0.813332
0.84066
0.715838
0.801206
0.763463
0.797195
0.809574
0.793131
0.807022
0.813047
0.822669
0.828084
0.830051
0.805413
0.75013
0.804085
0.729345
0.793176
0.821495
0.800917
0.815038
0.758231
0.805061
0.80434
0.846967
0.809054
0.803409
0.806005
0.834276
0.831335
0.803587
0.856294
0.795939
0.820038
0.661542
0.803163
0.800241
0.798805
0.831696
0.608766
0.806332
0.805553
0.658508
0.814542
0.829315
0.813813
0.803382
0.806038
0.802502
0.816046
0.798878
0.720504
0.513529
0.813362
0.805613
0.801793
0.804511
0.802979
0.803683
0.810694
0.798069
0.813689
0.583248
0.812784
0.809406
0.811855
0.842339
0.813687
0.834209
0.811373
0.797637
0.812759
0.682388
0.803728
0.850209
0.812792
0.793011
0.814156
0.633886
0.805463
0.566361
0.662235
0.673362
0.809553
0.815475
0.812434
0.497166
0.694452
0.803468
0.830763
0.747327
0.831341
0.805159
0.804713
0.796705
0.694366
0.751259
0.547263
0.802764
0.811641
0.80427
0.820849
0.669842
0.621714
0.853976
0.801522
0.814004
0.729004
0.813519
0.526346
0.820809
0.703239
0.813811
0.817491
0.801672
0.802124
0.825149
0.794858
0.803602
0.803878
0.631298
0.806588
0.653129
0.798776
0.798208
0.813698
0.81533
0.729099
0.815371
0.755788
0.803157
0.721439
0.804972
0.745945
0.671477
0.824521
0.812374
0.7991
0.726345
0.811359
0.658387
0.810894
0.802918
0.728367
0.825841
0.816333
0.637446
0.696016
0.825768
0.803657
0.7256
0.833656
0.834713
0.836105
0.811732
0.548171
0.751041
0.821003
0.820298
0.521079
0.639996
0.815583
0.812434
0.721802
0.778382
0.812023
0.80705
0.757943
0.812159
0.813477
0.803572
0.728723
0.802235
0.796894
0.812066
0.576893
0.805561
0.821762
0.574236
0.81814
0.845328
0.811988
0.676589
0.811718
0.811599
0.811825
0.801161
0.818696
0.803246
0.806686
0.804855
0.803312
0.813488
0.485164
0.809872
0.809677
0.691864
0.603148
0.786087
0.798323
0.812064
0.753269
0.564205
0.811409
0.783489
0.812035
0.82148
0.813468
0.825073
0.748309
0.590296
0.811508
0.839055
0.811984
0.709422
0.803464
0.727289
0.813122
0.811056
0.811893
0.817335
0.801251
0.813046
0.808338
0.757544
0.81622
0.812609
0.751751
0.791894
0.710786
0.558471
0.733531
0.781547
0.815797
0.811297
0.810632
0.810562
0.803297
0.795366
0.808066
0.707361
0.753405
0.811565
0.803425
0.804828
0.818341
0.604131
0.813538
0.803894
0.843528
0.807826
0.636291
0.793682
0.80381
0.842454
0.69072
0.561825
0.576984
0.635208
0.817589
0.804499
0.560338
0.585376
0.81993
0.812164
0.889281
0.804804
0.829428
0.812407
0.769435
0.81078
0.812571
0.812056
0.810613
0.811989
0.797993
0.812152
0.640887
0.815701
0.80363
0.809618
0.756669
0.817133
0.610913
0.855423
0.803929
0.826986
0.811984
0.807999
0.748079
0.822244
0.8119
0.837201
0.811772
0.812494
0.641198
0.826742
0.810126
0.812361
0.836585
0.822544
0.553772
0.796442
0.802746
0.81091
0.816947
0.803938
0.800182
0.815184
0.765084
0.804929
0.815829
0.863443
0.831128
0.586767
0.79604
0.754082
0.814006
0.761492
0.819366
0.804836
0.806387
0.812214
0.789115
0.805593
0.815464
0.821825
0.787338
0.668461
0.733764
0.697848
0.814105
0.835876
0.837806
0.733479
0.80883
0.753931
0.609631
0.81201
0.799438
0.811772
0.803575
0.630826
0.802217
0.776492
0.736702
0.810739
0.744631
0.807569
0.816426
0.859724
0.809629
0.807087
0.739953
0.812467
0.775851
0.839365
0.883741
0.797
0.520493
0.799654
0.607596
0.76927
0.657248
0.799156
0.494622
0.814968
0.849753
0.805928
0.810594
0.819676
0.80282
0.803253
0.696627
0.822923
0.811911
0.80415
0.806585
0.792432
0.80356
0.806797
0.628396
0.8165
0.801986
0.845175
0.807967
0.804368
0.801459
0.812946
0.81306
0.807523
0.803533
0.787515
0.812128
0.795262
0.801714
0.813234
0.771762
0.567041
0.812635
0.818122
0.803978
0.724597
0.801155
0.807685
0.803482
0.69825
0.873043
0.811585
0.81669
0.812012
0.847702
0.778151
0.812084
0.787609
0.815805
0.822006
0.663199
0.81212
0.728558
0.818996
0.718186
0.799452
0.751166
0.802488
0.57394
0.809178
0.735072
0.476325
0.82014
0.661797
0.769066
0.817191
0.812277
0.776523
0.811217
0.718696
0.638092
0.826134
0.698319
0.816669
0.767335
0.801603
0.807927
0.813229
0.652198
0.804314
0.774852
0.809554
0.812029
0.828972
0.806113
0.687504
0.755438
0.651347
0.798155
0.802992
0.81192
0.815372
0.811895
0.811494
0.809335
0.663422
0.731259
0.487783
0.696378
0.813849
0.808081
0.832937
0.809408
0.814655
0.710121
0.873987
0.815126
0.826155
0.571451
0.822842
0.812136
0.840649
0.845518
0.826529
0.829999
0.820142
0.540429
0.805729
0.814884
0.716031
0.816723
0.801286
0.81207
0.807938
0.812556
0.812622
0.767148
0.721263
0.797975
0.800308
0.571671
0.813971
0.858986
0.815266
0.658729
0.822456
0.813076
0.81949
0.835161
0.687298
0.48645
0.804845
0.839817
0.806062
0.803889
0.814167
0.801564
0.812415
0.809473
0.799925
0.804243
0.804682
0.812423
0.805554
0.806162
0.798561
0.836075
0.830646
0.853181
0.812846
0.807359
0.814416
0.812934
0.812024
0.810971
0.815533
0.833947
0.8086
0.811056
0.600728
0.830492
0.710865
0.86815
0.803619
0.833244
0.799025
0.786077
0.785687
0.740026
0.821129
0.810933
0.811482
0.813334
0.775822
0.807826
0.584246
0.80607
0.812944
0.813098
0.795676
0.812011
0.611044
0.783481
0.558243
0.820736
0.796883
0.774517
0.801877
0.813627
0.812381
0.812415
0.737914
0.808225
0.81187
0.810335
0.803648
0.803815
0.747288
0.767265
0.809253
0.803725
0.696293
0.59786
0.489737
0.841
0.806064
0.778572
0.781199
0.824239
0.803573
0.803963
0.817987
0.779222
0.756995
0.816107
0.807456
0.811121
0.837183
0.804828
0.811687
0.808251
0.483462
0.803442
0.811841
0.773706
0.819373
0.814161
0.825555
0.599442
0.710336
0.57297
0.828237
0.815561
0.743281
0.811827
0.676726
0.813708
0.810618
0.81184
0.803092
0.811831
0.576882
0.686347
0.806106
0.813252
0.793694
0.801261
0.831006
0.798686
0.803004
0.642936
0.807747
0.811902
0.804278
0.81221
0.802739
0.616938
0.814245
0.812326
0.57242
0.69711
0.79311
0.828137
0.697467
0.803997
0.793637
0.812083
0.756555
0.684922
0.810382
0.795898
0.799301
0.76634
0.540602
0.820203
0.67349
0.747654
0.731311
0.80397
0.7973
0.811402
0.660064
0.767557
0.80397
0.814945
0.592586
0.798896
0.82574
0.80716
0.539127
0.805596
0.78341
0.707105
0.705832
0.800397
0.819081
0.812957
0.808629
0.699492
0.739627
0.641424
0.832286
0.842866
0.816856
0.788158
0.865199
0.696798
0.813302
0.766741
0.790219
0.795525
0.811916
0.803985
0.811541
0.787081
0.755236
0.819708
0.796732
0.842101
0.719321
0.791386
0.805518
0.723239
0.803222
0.81444
0.575949
0.801945
0.798964
0.802793
0.821148
0.764258
0.800164
0.722609
0.812095
0.808829
0.725192
0.812096
0.816172
0.828619
0.805586
0.787103
0.797643
0.80562
0.72653
0.812409
0.801165
0.677545
0.806891
0.780271
0.831868
0.820858
0.818966
0.839275
0.848228
0.699092
0.813679
0.795525
0.787302
0.617516
0.816917
0.803634
0.812179
0.776147
0.853446
0.832776
0.7818
0.842011
0.779779
0.800636
0.771956
0.812171
0.721685
0.635781
0.84418
0.660974
0.79281
0.839703
0.812391
0.671148
0.809235
0.751888
0.803971
0.799003
0.781331
0.804157
0.801063
0.802795
0.801894
0.785608
0.811978
0.781415
0.816227
0.807466
0.71266
0.783843
0.815145
0.812413
0.805488
0.564027
0.825091
0.812826
0.812003
0.703432
0.80477
0.801099
0.801308
0.815862
0.746209
0.815945
0.80056
0.804569
0.755209
0.81144
0.81274
0.805909
0.768997
0.807903
0.812946
0.808044
0.815807
0.808316
0.806065
0.822905
0.8046
0.788743
0.806212
0.812147
0.818151
0.778733
0.703541
0.813736
0.812176
0.800755
0.742456
0.788804
0.654073
0.803391
0.540208
0.803169
0.814384
0.774891
0.83457
0.515249
0.809439
0.73844
0.810436
0.534247
0.804356
0.827821
0.813288
0.818701
0.734267
0.840913
0.5536
0.823518
0.702486
0.799564
0.477516
0.669863
0.812525
0.812014
0.741737
0.800987
0.820855
0.612041
0.821978
0.77091
0.833472
0.812019
0.814126
0.813107
0.803828
0.836807
0.810662
0.80376
0.476058
0.803111
0.84347
0.802234
0.801338
0.767583
0.805414
0.811959
0.812114
0.796602
0.73431
0.810404
0.815467
0.603002
0.804166
0.536806
0.815629
0.539557
0.811959
0.770391
0.682531
0.733468
0.783087
0.713049
0.841523
0.813708
0.796882
0.803975
0.703338
0.802558
0.78945
0.802448
0.814956
0.801712
0.731412
0.697949
0.800612
0.772284
0.518934
0.811175
0.663283
0.794104
0.705588
0.82502
0.80941
0.825031
0.81019
0.837167
0.807256
0.579973
0.82922
0.807013
0.801549
0.815406
0.811951
0.81257
0.814571
0.825109
0.816364
0.618068
0.804749
0.800658
0.812869
0.692182
0.802314
0.823243
0.756377
0.688577
0.807509
0.688367
0.731684
0.810043
0.812684
0.668546
0.841458
0.766943
0.805393
0.79645
0.809765
0.844478
0.801064
0.538823
0.814866
0.708195
0.523364
0.778179
0.758126
0.769532
0.812167
0.803517
0.816367
0.811982
0.585808
0.787496
0.831238
0.812064
0.591199
0.72153
0.634897
0.816634
0.810435
0.690934
0.803985
0.812142
0.799333
0.834211
0.606093
0.840323
0.740154
0.811935
0.812444
0.66922
0.812508
0.720943
0.791813
0.716466
0.811879
0.784445
0.63392
0.72417
0.712362
0.833129
0.809382
0.8193
0.822011
0.803345
0.808514
0.802818
0.817618
0.803256
0.687087
0.803437
0.603488
0.776713
0.807178
0.802313
0.812139
0.824242
0.803328
0.716934
0.710426
0.667207
0.790281
0.816712
0.749055
0.579478
0.751484
0.810222
0.801855
0.760196
0.803587
0.823133
0.753226
0.56879
0.702033
0.798621
0.812138
0.864282
0.814599
0.811741
0.851806
0.799576
0.801851
0.814381
0.812236
0.805341
0.717626
0.809147
0.695468
0.86222
0.778665
0.813408
0.574116
0.796506
0.52917
0.583227
0.585009
0.807904
0.803632
0.809258
0.758148
0.803555
0.532244
0.782218
0.802921
0.734556
0.814319
0.80164
0.815821
0.842876
0.512569
0.812028
0.802082
0.80957
0.816725
0.812855
0.812323
0.754138
0.797163
0.798792
0.803233
0.797579
0.810709
0.845306
0.818546
0.723702
0.80468
0.607419
0.813186
0.812035
0.58656
0.766846
0.766913
0.5363
0.784266
0.80364
0.878255
0.798376
0.813094
0.755202
0.794417
0.797056
0.809236
0.782675
0.541956
0.711119
0.68041
0.781047
0.814642
0.802891
0.821817
0.790231
0.80182
0.81278
0.798092
0.852141
0.704589
0.81185
0.780673
0.530934
0.515882
0.812893
0.803544
0.805442
0.560373
0.796984
0.803742
0.659112
0.813718
0.790613
0.806559
0.814803
0.533295
0.724526
0.71879
0.812445
0.832011
0.629933
0.789827
0.717048
0.81359
0.827248
0.779429
0.773153
0.53516
0.811517
0.802408
0.723646
0.852022
0.805816
0.722711
0.739851
0.763873
0.810795
0.563411
0.796698
0.737952
0.800326
0.821848
0.720191
0.799187
0.811751
0.716508
0.813008
0.705964
0.815979
0.798217
0.759659
0.689891
0.808906
0.800003
0.813363
0.669564
0.805372
0.804857
0.811587
0.699448
0.812141
0.808389
0.831744
0.649481
0.815487
0.740754
0.81193
0.805722
0.842193
0.803685
0.818912
0.74903
0.81518
0.838782
0.832809
0.816442
0.845595
0.752306
0.847756
0.826003
0.803843
0.825739
0.80561
0.646605
0.778073
0.813921
0.746807
0.69517
0.798469
0.804084
0.679955
0.797451
0.537952
0.848459
0.696104
0.706215
0.813564
0.77447
0.806891
0.798933
0.806953
0.803889
0.812024
0.835634
0.730013
0.772143
0.58821
0.810012
0.777021
0.810903
0.805115
0.570022
0.802907
0.802531
0.807493
0.798646
0.816729
0.808154
0.709824
0.823122
0.847923
0.684417
0.743623
0.812178
0.80094
0.712345
0.814282
0.754349
0.796787
0.802904
0.805365
0.83714
0.668713
0.723267
0.800802
0.701992
0.772644
0.832143
0.531988
0.691257
0.799583
0.804289
0.803365
0.741746
0.822376
0.806893
0.803663
0.808131
0.813301
0.696078
0.649209
0.809676
0.813803
0.799252
0.871484
0.802733
0.812365
0.799048
0.80996
0.811276
0.808369
0.653042
0.814746
0.816582
0.803439
0.801888
0.799393
0.617284
0.809715
0.81052
0.812428
0.862323
0.814429
0.80149
0.480654
0.836338
0.692628
0.82639
0.805781
0.813785
0.824025
0.809099
0.812077
0.730966
0.551348
0.491723
0.812339
0.808965
0.534097
0.795564
0.814494
0.833277
0.504047
0.80958
0.813437
0.802273
0.809085
0.530269
0.813123
0.808248
0.559938
0.812219
0.815266
0.538772
0.808774
0.812674
0.775836
0.806286
0.811176
0.809511
0.79901
0.825876
0.533821
0.830182
0.815806
0.804069
0.742094
0.786196
0.811368
0.809393
0.802129
0.815946
0.800706
0.65713
0.806174
0.58222
0.811975
0.659852
0.746316
0.797001
0.718284
0.803543
0.579714
0.849733
0.812215
0.812345
0.799281
0.802712
0.803182
0.813644
0.814371
0.670102
0.717707
0.726239
0.814786
0.721384
0.574526
0.817402
0.783722
0.827878
0.811701
0.809383
0.732506
0.535905
0.798723
0.79005
0.4962
0.813856
0.813018
0.735597
0.805915
0.768517
0.607059
0.809962
0.814651
0.788649
0.609793
0.802312
0.78297
0.826351
0.812986
0.810398
0.811897
0.812845
0.715686
0.800084
0.815747
0.694757
0.480549
0.732955
0.798807
0.7308
0.813022
0.798138
0.805528
0.782573
0.867327
0.803555
0.801674
0.825779
0.859329
0.804618
0.815703
0.794348
0.815916
0.789163
0.74401
0.811915
0.804263
0.816237
0.80325
0.790826
0.842798
0.766099
0.812743
0.773385
0.803734
0.642547
0.509421
0.800989
0.802168
0.809541
0.798154
0.799689
0.811937
0.772913
0.804632
0.812018
0.782212
0.816921
0.777164
0.593358
0.805048
0.760901
0.77621
0.750473
0.763666
0.793924
0.788581
0.823038
0.787518
0.809423
0.803368
0.76514
0.815529
0.542283
0.729545
0.810558
0.814011
0.811424
0.802342
0.812851
0.810535
0.805755
0.821169
0.809689
0.782957
0.81662
0.801707
0.790493
0.795897
0.80517
0.586142
0.803626
0.792176
0.574512
0.813196
0.807238
0.806048
0.810762
0.702359
0.754879
0.821122
0.774896
0.811391
0.81634
0.722191
0.804483
0.824115
0.720074
0.799431
0.809532
0.77858
0.804737
0.836982
0.801909
0.817338
0.77254
0.80534
0.800315
0.813093
0.802129
0.797917
0.588725
0.815232
0.786742
0.806636
0.825634
0.691178
0.828561
0.819977
0.505349
0.806401
0.804455
0.801496
0.812283
0.824252
0.82407
0.804912
0.805925
0.814183
0.813376
0.803522
0.812583
0.804745
0.749265
0.708273
0.78092
0.81368
0.812104
0.775877
0.757801
0.813928
0.824945
0.810525
0.812235
0.69158
0.500786
0.747775
0.817547
0.806733
0.816257
0.844198
0.799896
0.714915
0.654264
0.799684
0.80471
0.694255
0.812684
0.671218
0.836821
0.729246
0.812869
0.895257
0.815613
0.800827
0.777751
0.811105
0.681524
0.814193
0.808237
0.791519
0.805625
0.779415
0.800671
0.810033
0.780482
0.803577
0.852071
0.777006
0.802133
0.492971
0.803186
0.693912
0.804099
0.794454
0.788579
0.783631
0.722235
0.802111
0.788199
0.844465
0.813301
0.81246
0.811799
0.895515
0.746436
0.802738
0.730867
0.803158
0.798388
0.80451
0.716784
0.800945
0.805503
0.639128
0.808677
0.748596
0.534273
0.846519
0.847341
0.75005
0.810765
0.794677
0.77204
0.731777
0.776003
0.785491
0.736242
0.803854
0.80443
0.719512
0.815327
0.80498
0.556875
0.812011
0.821457
0.81326
0.803508
0.610716
0.715037
0.806276
0.859182
0.483822
0.724553
0.806471
0.815962
0.79646
0.713208
0.710743
0.809025
0.81325
0.815025
0.837089
0.745175
0.754405
0.875749
0.806873
0.809238
0.795174
0.637579
0.597685
0.586025
0.657041
0.586267
0.764222
0.80074
0.803394
0.812285
0.80914
0.811479
0.860165
0.71546
0.823879
0.813908
0.817104
0.816654
0.813837
0.812982
0.811593