# vtk DataFile Version 1.0
unstructured grid
ascii
DATASET UNSTRUCTURED_GRID
points 14760 float
-1 0 0
-1 1 0
2 0 0
2 1 0
0 0 0
1 0 0
-1 1 0.1
-1 0 0.1
0 0 0.1
1 0 0.1
2 0 0.1
2 1 0.1
-0.99 0 0
-0.98 0 0
-0.97 0 0
-0.96 0 0
-0.95 0 0
-0.94 0 0
-0.93 0 0
-0.92 0 0
-0.91 0 0
-0.9 0 0
-0.89 0 0
-0.88 0 0
-0.87 0 0
-0.86 0 0
-0.85 0 0
-0.84 0 0
-0.83 0 0
-0.82 0 0
-0.81 0 0
-0.8 0 0
-0.79 0 0
-0.78 0 0
-0.77 0 0
-0.76 0 0
-0.75 0 0
-0.74 0 0
-0.73 0 0
-0.72 0 0
-0.71 0 0
-0.7 0 0
-0.69 0 0
-0.68 0 0
-0.67 0 0
-0.66 0 0
-0.65 0 0
-0.64 0 0
-0.63 0 0
-0.62 0 0
-0.61 0 0
-0.6 0 0
-0.59 0 0
-0.58 0 0
-0.57 0 0
-0.56 0 0
-0.55 0 0
-0.54 0 0
-0.53 0 0
-0.52 0 0
-0.51 0 0
-0.5 0 0
-0.49 0 0
-0.48 0 0
-0.47 0 0
-0.46 0 0
-0.45 0 0
-0.44 0 0
-0.43 0 0
-0.42 0 0
-0.41 0 0
-0.4 0 0
-0.39 0 0
-0.38 0 0
-0.37 0 0
-0.36 0 0
-0.35 0 0
-0.34 0 0
-0.33 0 0
-0.32 0 0
-0.31 0 0
-0.3 0 0
-0.29 0 0
-0.28 0 0
-0.27 0 0
-0.26 0 0
-0.25 0 0
-0.24 0 0
-0.23 0 0
-0.22 0 0
-0.21 0 0
-0.2 0 0
-0.19 0 0
-0.18 0 0
-0.17 0 0
-0.16 0 0
-0.15 0 0
-0.14 0 0
-0.13 0 0
-0.12 0 0
-0.11 0 0
-0.1 0 0
-0.09 0 0
-0.08 0 0
-0.07 0 0
-0.06 0 0
-0.05 0 0
-0.04 0 0
-0.03 0 0
-0.02 0 0
-0.01 0 0
1.01 0 0
1.02 0 0
1.03 0 0
1.04 0 0
1.05 0 0
1.06 0 0
1.07 0 0
1.08 0 0
1.09 0 0
1.1 0 0
1.11 0 0
1.12 0 0
1.13 0 0
1.14 0 0
1.15 0 0
1.16 0 0
1.17 0 0
1.18 0 0
1.19 0 0
1.2 0 0
1.21 0 0
1.22 0 0
1.23 0 0
1.24 0 0
1.25 0 0
1.26 0 0
1.27 0 0
1.28 0 0
1.29 0 0
1.3 0 0
1.31 0 0
1.32 0 0
1.33 0 0
1.34 0 0
1.35 0 0
1.36 0 0
1.37 0 0
1.38 0 0
1.39 0 0
1.4 0 0
1.41 0 0
1.42 0 0
1.43 0 0
1.44 0 0
1.45 0 0
1.46 0 0
1.47 0 0
1.48 0 0
1.49 0 0
1.5 0 0
1.51 0 0
1.52 0 0
1.53 0 0
1.54 0 0
1.55 0 0
1.56 0 0
1.57 0 0
1.58 0 0
1.59 0 0
1.6 0 0
1.61 0 0
1.62 0 0
1.63 0 0
1.64 0 0
1.65 0 0
1.66 0 0
1.67 0 0
1.68 0 0
1.69 0 0
1.7 0 0
1.71 0 0
1.72 0 0
1.73 0 0
1.74 0 0
1.75 0 0
1.76 0 0
1.77 0 0
1.78 0 0
1.79 0 0
1.8 0 0
1.81 0 0
1.82 0 0
1.83 0 0
1.84 0 0
1.85 0 0
1.86 0 0
1.87 0 0
1.88 0 0
1.89 0 0
1.9 0 0
1.91 0 0
1.92 0 0
1.93 0 0
1.94 0 0
1.95 0 0
1.96 0 0
1.97 0 0
1.98 0 0
1.99 0 0
2 0.0100088 0
2 0.0204183 0
2 0.0312446 0
2 0.0425043 0
2 0.0542147 0
2 0.066394 0
2 0.079061 0
2 0.092235 0
2 0.105936 0
2 0.120186 0
2 0.135007 0
2 0.150421 0
2 0.166452 0
2 0.183124 0
2 0.200465 0
2 0.218499 0
2 0.237256 0
2 0.256763 0
2 0.277051 0
2 0.298152 0
2 0.320097 0
2 0.342921 0
2 0.366659 0
2 0.391347 0
2 0.417024 0
2 0.443728 0
2 0.471502 0
2 0.500387 0
2 0.530429 0
2 0.561674 0
2 0.594169 0
2 0.627966 0
2 0.663115 0
2 0.699672 0
2 0.737692 0
2 0.777235 0
2 0.818361 0
2 0.861133 0
2 0.905617 0
2 0.951882 0
1.95 1 0
1.9 1 0
1.85 1 0
1.8 1 0
1.75 1 0
1.7 1 0
1.65 1 0
1.6 1 0
1.55 1 0
1.5 1 0
1.45 1 0
1.4 1 0
1.35 1 0
1.3 1 0
1.25 1 0
1.2 1 0
1.15 1 0
1.1 1 0
1.05 1 0
1 1 0
0.95 1 0
0.9 1 0
0.85 1 0
0.8 1 0
0.75 1 0
0.7 1 0
0.65 1 0
0.6 1 0
0.55 1 0
0.5 1 0
0.45 1 0
0.4 1 0
0.35 1 0
0.3 1 0
0.25 1 0
0.2 1 0
0.15 1 0
0.1 1 0
0.05 1 0
3.69793e-12 1 0
-0.05 1 0
-0.1 1 0
-0.15 1 0
-0.2 1 0
-0.25 1 0
-0.3 1 0
-0.35 1 0
-0.4 1 0
-0.45 1 0
-0.5 1 0
-0.55 1 0
-0.6 1 0
-0.65 1 0
-0.7 1 0
-0.75 1 0
-0.8 1 0
-0.85 1 0
-0.9 1 0
-0.95 1 0
-1 0.951882 0
-1 0.905617 0
-1 0.861133 0
-1 0.818361 0
-1 0.777235 0
-1 0.737692 0
-1 0.699672 0
-1 0.663115 0
-1 0.627966 0
-1 0.594169 0
-1 0.561674 0
-1 0.530429 0
-1 0.500387 0
-1 0.471502 0
-1 0.443728 0
-1 0.417024 0
-1 0.391347 0
-1 0.366659 0
-1 0.342921 0
-1 0.320097 0
-1 0.298152 0
-1 0.277051 0
-1 0.256763 0
-1 0.237256 0
-1 0.218499 0
-1 0.200465 0
-1 0.183124 0
-1 0.166452 0
-1 0.150421 0
-1 0.135007 0
-1 0.120186 0
-1 0.105936 0
-1 0.092235 0
-1 0.079061 0
-1 0.066394 0
-1 0.0542147 0
-1 0.0425043 0
-1 0.0312446 0
-1 0.0204183 0
-1 0.0100088 0
0.00921362 0.00379763 0
0.0184561 0.00752451 0
0.0277268 0.0111804 0
0.0370253 0.0147652 0
0.0463511 0.0182786 0
0.0557034 0.0217203 0
0.0650819 0.0250903 0
0.074486 0.0283883 0
0.083915 0.0316141 0
0.0933685 0.0347675 0
0.102846 0.0378484 0
0.112347 0.0408565 0
0.12187 0.0437917 0
0.131416 0.0466538 0
0.140983 0.0494427 0
0.150572 0.0521581 0
0.160181 0.0547999 0
0.16981 0.0573681 0
0.179458 0.0598623 0
0.189125 0.0622825 0
0.198811 0.0646285 0
0.208514 0.0669001 0
0.218234 0.0690974 0
0.227971 0.07122 0
0.237724 0.073268 0
0.247493 0.0752411 0
0.257276 0.0771393 0
0.267073 0.0789625 0
0.276884 0.0807105 0
0.286708 0.0823832 0
0.296545 0.0839806 0
0.306394 0.0855025 0
0.316254 0.0869488 0
0.326125 0.0883196 0
0.336006 0.0896146 0
0.345896 0.0908339 0
0.355796 0.0919773 0
0.365704 0.0930447 0
0.375621 0.0940362 0
0.385544 0.0949517 0
0.395474 0.095791 0
0.40541 0.0965542 0
0.415352 0.0972412 0
0.425299 0.097852 0
0.43525 0.0983865 0
0.445205 0.0988447 0
0.455164 0.0992266 0
0.465125 0.0995321 0
0.475088 0.0997613 0
0.485052 0.0999141 0
0.495017 0.0999904 0
0.504983 0.0999904 0
0.514948 0.0999141 0
0.524912 0.0997613 0
0.534875 0.0995321 0
0.544836 0.0992266 0
0.554795 0.0988447 0
0.56475 0.0983865 0
0.574701 0.097852 0
0.584648 0.0972412 0
0.59459 0.0965542 0
0.604526 0.095791 0
0.614456 0.0949517 0
0.624379 0.0940362 0
0.634296 0.0930447 0
0.644204 0.0919773 0
0.654104 0.0908339 0
0.663994 0.0896146 0
0.673875 0.0883196 0
0.683746 0.0869488 0
0.693606 0.0855025 0
0.703455 0.0839806 0
0.713292 0.0823832 0
0.723116 0.0807105 0
0.732927 0.0789625 0
0.742724 0.0771393 0
0.752508 0.0752411 0
0.762276 0.073268 0
0.772029 0.07122 0
0.781766 0.0690974 0
0.791486 0.0669001 0
0.801189 0.0646285 0
0.810875 0.0622825 0
0.820542 0.0598623 0
0.83019 0.0573681 0
0.839819 0.0547999 0
0.849428 0.0521581 0
0.859017 0.0494427 0
0.868584 0.0466538 0
0.87813 0.0437917 0
0.887653 0.0408565 0
0.897154 0.0378484 0
0.906631 0.0347675 0
0.916085 0.0316141 0
0.925514 0.0283883 0
0.934918 0.0250903 0
0.944297 0.0217203 0
0.953649 0.0182786 0
0.962975 0.0147652 0
0.972273 0.0111804 0
0.981544 0.00752451 0
0.990786 0.00379763 0
-1 0.951882 0.1
-1 0.905617 0.1
-1 0.861133 0.1
-1 0.818361 0.1
-1 0.777235 0.1
-1 0.737692 0.1
-1 0.699672 0.1
-1 0.663115 0.1
-1 0.627966 0.1
-1 0.594169 0.1
-1 0.561674 0.1
-1 0.530429 0.1
-1 0.500387 0.1
-1 0.471502 0.1
-1 0.443728 0.1
-1 0.417024 0.1
-1 0.391347 0.1
-1 0.366659 0.1
-1 0.342921 0.1
-1 0.320097 0.1
-1 0.298152 0.1
-1 0.277051 0.1
-1 0.256763 0.1
-1 0.237256 0.1
-1 0.218499 0.1
-1 0.200465 0.1
-1 0.183124 0.1
-1 0.166452 0.1
-1 0.150421 0.1
-1 0.135007 0.1
-1 0.120186 0.1
-1 0.105936 0.1
-1 0.092235 0.1
-1 0.079061 0.1
-1 0.066394 0.1
-1 0.0542147 0.1
-1 0.0425043 0.1
-1 0.0312446 0.1
-1 0.0204183 0.1
-1 0.0100088 0.1
-0.99 0 0.1
-0.98 0 0.1
-0.97 0 0.1
-0.96 0 0.1
-0.95 0 0.1
-0.94 0 0.1
-0.93 0 0.1
-0.92 0 0.1
-0.91 0 0.1
-0.9 0 0.1
-0.89 0 0.1
-0.88 0 0.1
-0.87 0 0.1
-0.86 0 0.1
-0.85 0 0.1
-0.84 0 0.1
-0.83 0 0.1
-0.82 0 0.1
-0.81 0 0.1
-0.8 0 0.1
-0.79 0 0.1
-0.78 0 0.1
-0.77 0 0.1
-0.76 0 0.1
-0.75 0 0.1
-0.74 0 0.1
-0.73 0 0.1
-0.72 0 0.1
-0.71 0 0.1
-0.7 0 0.1
-0.69 0 0.1
-0.68 0 0.1
-0.67 0 0.1
-0.66 0 0.1
-0.65 0 0.1
-0.64 0 0.1
-0.63 0 0.1
-0.62 0 0.1
-0.61 0 0.1
-0.6 0 0.1
-0.59 0 0.1
-0.58 0 0.1
-0.57 0 0.1
-0.56 0 0.1
-0.55 0 0.1
-0.54 0 0.1
-0.53 0 0.1
-0.52 0 0.1
-0.51 0 0.1
-0.5 0 0.1
-0.49 0 0.1
-0.48 0 0.1
-0.47 0 0.1
-0.46 0 0.1
-0.45 0 0.1
-0.44 0 0.1
-0.43 0 0.1
-0.42 0 0.1
-0.41 0 0.1
-0.4 0 0.1
-0.39 0 0.1
-0.38 0 0.1
-0.37 0 0.1
-0.36 0 0.1
-0.35 0 0.1
-0.34 0 0.1
-0.33 0 0.1
-0.32 0 0.1
-0.31 0 0.1
-0.3 0 0.1
-0.29 0 0.1
-0.28 0 0.1
-0.27 0 0.1
-0.26 0 0.1
-0.25 0 0.1
-0.24 0 0.1
-0.23 0 0.1
-0.22 0 0.1
-0.21 0 0.1
-0.2 0 0.1
-0.19 0 0.1
-0.18 0 0.1
-0.17 0 0.1
-0.16 0 0.1
-0.15 0 0.1
-0.14 0 0.1
-0.13 0 0.1
-0.12 0 0.1
-0.11 0 0.1
-0.1 0 0.1
-0.09 0 0.1
-0.08 0 0.1
-0.07 0 0.1
-0.06 0 0.1
-0.05 0 0.1
-0.04 0 0.1
-0.03 0 0.1
-0.02 0 0.1
-0.01 0 0.1
0.00921362 0.00379763 0.1
0.0184561 0.00752451 0.1
0.0277268 0.0111804 0.1
0.0370253 0.0147652 0.1
0.0463511 0.0182786 0.1
0.0557034 0.0217203 0.1
0.0650819 0.0250903 0.1
0.074486 0.0283883 0.1
0.083915 0.0316141 0.1
0.0933685 0.0347675 0.1
0.102846 0.0378484 0.1
0.112347 0.0408565 0.1
0.12187 0.0437917 0.1
0.131416 0.0466538 0.1
0.140983 0.0494427 0.1
0.150572 0.0521581 0.1
0.160181 0.0547999 0.1
0.16981 0.0573681 0.1
0.179458 0.0598623 0.1
0.189125 0.0622825 0.1
0.198811 0.0646285 0.1
0.208514 0.0669001 0.1
0.218234 0.0690974 0.1
0.227971 0.07122 0.1
0.237724 0.073268 0.1
0.247493 0.0752411 0.1
0.257276 0.0771393 0.1
0.267073 0.0789625 0.1
0.276884 0.0807105 0.1
0.286708 0.0823832 0.1
0.296545 0.0839806 0.1
0.306394 0.0855025 0.1
0.316254 0.0869488 0.1
0.326125 0.0883196 0.1
0.336006 0.0896146 0.1
0.345896 0.0908339 0.1
0.355796 0.0919773 0.1
0.365704 0.0930447 0.1
0.375621 0.0940362 0.1
0.385544 0.0949517 0.1
0.395474 0.095791 0.1
0.40541 0.0965542 0.1
0.415352 0.0972412 0.1
0.425299 0.097852 0.1
0.43525 0.0983865 0.1
0.445205 0.0988447 0.1
0.455164 0.0992266 0.1
0.465125 0.0995321 0.1
0.475088 0.0997613 0.1
0.485052 0.0999141 0.1
0.495017 0.0999904 0.1
0.504983 0.0999904 0.1
0.514948 0.0999141 0.1
0.524912 0.0997613 0.1
0.534875 0.0995321 0.1
0.544836 0.0992266 0.1
0.554795 0.0988447 0.1
0.56475 0.0983865 0.1
0.574701 0.097852 0.1
0.584648 0.0972412 0.1
0.59459 0.0965542 0.1
0.604526 0.095791 0.1
0.614456 0.0949517 0.1
0.624379 0.0940362 0.1
0.634296 0.0930447 0.1
0.644204 0.0919773 0.1
0.654104 0.0908339 0.1
0.663994 0.0896146 0.1
0.673875 0.0883196 0.1
0.683746 0.0869488 0.1
0.693606 0.0855025 0.1
0.703455 0.0839806 0.1
0.713292 0.0823832 0.1
0.723116 0.0807105 0.1
0.732927 0.0789625 0.1
0.742724 0.0771393 0.1
0.752508 0.0752411 0.1
0.762276 0.073268 0.1
0.772029 0.07122 0.1
0.781766 0.0690974 0.1
0.791486 0.0669001 0.1
0.801189 0.0646285 0.1
0.810875 0.0622825 0.1
0.820542 0.0598623 0.1
0.83019 0.0573681 0.1
0.839819 0.0547999 0.1
0.849428 0.0521581 0.1
0.859017 0.0494427 0.1
0.868584 0.0466538 0.1
0.87813 0.0437917 0.1
0.887653 0.0408565 0.1
0.897154 0.0378484 0.1
0.906631 0.0347675 0.1
0.916085 0.0316141 0.1
0.925514 0.0283883 0.1
0.934918 0.0250903 0.1
0.944297 0.0217203 0.1
0.953649 0.0182786 0.1
0.962975 0.0147652 0.1
0.972273 0.0111804 0.1
0.981544 0.00752451 0.1
0.990786 0.00379763 0.1
1.01 0 0.1
1.02 0 0.1
1.03 0 0.1
[...]
CELL_DATA 14313
SCALARS rho float
LOOKUP_TABLE default
0.784127
0.826038
0.807164
0.550094
0.770884
0.816221
0.81643
0.816383
0.812012
0.816571
0.816445
0.800024
0.799884
0.55468
0.816628
0.834104
0.81015
0.808841
0.81369
0.80664
0.815095
0.815294
0.816395
0.770652
0.81592
0.816073
0.745753
0.703796
0.825513
0.826707
0.81611
0.795803
0.802887
0.815892
0.805534
0.814246
0.687078
0.810271
0.815497
0.803533
0.756204
0.814736
0.554102
0.708355
0.820593
0.837262
0.814634
0.779921
0.806914
0.854946
0.682823
0.658877
0.610162
0.814161
0.822356
0.785013
0.820579
0.816101
0.811783
0.816164
0.816282
0.821344
0.795782
0.840681
0.814697
0.8169
0.856825
0.786156
0.84245
0.81662
0.799493
0.833681
0.552169
0.839088
0.735397
0.810062
0.827393
0.750367
0.700885
0.815616
0.599401
0.827056
0.834705
0.803986
0.808675
0.82213
0.816195
0.805309
0.828277
0.808165
0.782465
0.560711
0.808614
0.800928
0.735382
0.804359
0.817979
0.812999
0.804231
0.559692
0.80975
0.813568
0.816414
0.816268
0.752164
0.810465
0.803935
0.703854
0.836473
0.813599
0.814946
0.827364
0.815447
0.822163
0.804779
0.829717
0.822504
0.838128
0.781398
0.801542
0.815445
0.813089
0.860546
0.730111
0.846683
0.758214
0.792555
0.805315
0.818008
0.846219
0.813245
0.816126
0.861815
0.816268
0.825876
0.784977
0.810381
0.793911
0.820632
0.820362
0.81643
0.819572
0.803549
0.803846
0.798069
0.840978
0.806718
0.764209
0.797961
0.820384
0.800392
0.803971
0.816398
0.714893
0.823647
0.804264
0.726899
0.82384
0.815993
0.813084
0.821355
0.809875
0.677938
0.761402
0.825728
0.827104
0.721285
0.816305
0.83035
0.818126
0.695473
0.817367
0.717576
0.790975
0.812211
0.828906
0.811557
0.817481
0.823699
0.748256
0.815593
0.813312
0.776336
0.772333
0.792303
0.814575
0.816622
0.798504
0.515904
0.789854
0.762431
0.749341
0.772471
0.725678
0.816135
0.818041
0.808592
0.803873
0.809522
0.819909
0.763543
0.804058
0.830809
0.818195
0.835502
0.803785
0.817723
0.815341
0.815959
0.836168
0.806438
0.813745
0.798413
0.705213
0.817429
0.824437
0.81351
0.809654
0.836497
0.804827
0.803657
0.820479
0.809433
0.856793
0.812124
0.804125
0.82093
0.803021
0.816383
0.760712
0.66747
0.816297
0.701929
0.829252
0.802979
0.73063
0.815505
0.817392
0.817985
0.829053
0.793357
0.702874
0.752959
0.618619
0.818284
0.727596
0.802626
0.808152
0.839545
0.817788
0.58553
0.804727
0.734774
0.839346
0.803522
0.701207
0.813957
0.829363
0.817961
0.573501
0.814321
0.803466
0.80203
0.808854
0.790979
0.776713
0.816905
0.816692
0.555599
0.818005
0.8172
0.774956
0.803234
0.816451
0.782792
0.820068
0.786551
0.716421
0.804203
0.806589
0.578405
0.555287
0.761318
0.811415
0.823253
0.791895
0.816125
0.818175
0.778583
0.807092
0.804011
0.819812
0.831793
0.796063
0.809207
0.814332
0.652487
0.820744
0.715076
0.800443
0.794709
0.779929
0.837566
0.810429
0.799599
0.685681
0.678165
0.806126
0.808195
0.820939
0.805023
0.801692
0.657755
0.818372
0.823866
0.81936
0.816458
0.816363
0.802764
0.793305
0.817644
0.636993
0.811661
0.816337
0.817819
0.816273
0.768878
0.82397
0.802601
0.817673
0.816499
0.754755
0.757482
0.803604
0.803664
0.684966
0.816401
0.814532
0.809594
0.815392
0.805041
0.801789
0.734111
0.716583
0.817799
0.751614
0.762993
0.822167
0.839491
0.817613
0.804608
0.80938
0.816289
0.804308
0.820142
0.786105
0.82008
0.812932
0.814643
0.797592
0.81409
0.795099
0.816154
0.597184
0.801551
0.802375
0.814681
0.815443
0.770853
0.802802
0.816274
0.816412
0.821033
0.772558
0.819645
0.810897
0.757879
0.762976
0.813937
0.808939
0.831529
0.827282
0.824944
0.8066
0.617259
0.782352
0.613161
0.80428
0.804225
0.804026
0.817611
0.875038
0.540205
0.608697
0.840152
0.873021
0.815279
0.69469
0.804882
0.727994
0.809841
0.818159
0.711097
0.65733
0.755189
0.816429
0.691607
0.874574
0.826934
0.801629
0.809943
0.609878
0.74695
0.78452
0.82064
0.807124
0.803044
0.832522
0.81637
0.712946
0.692781
0.802626
0.80734
0.813639
0.815931
0.810026
0.816291
0.740801
0.792887
0.798479
0.803556
0.767637
0.820706
0.809132
0.816643
0.815949
0.760322
0.806312
0.804585
0.796325
0.816325
0.81842
0.809811
0.666132
0.789478
0.819931
0.813929
0.815385
0.808414
0.816264
0.807668
0.82358
0.824001
0.690939
0.856634
0.747353
0.823423
0.807732
0.746247
0.826263
0.801611
0.827955
0.559942
0.802876
0.687174
0.816344
0.810389
0.549045
0.802343
0.805496
0.799246
0.803487
0.80391
0.775345
0.816187
0.607466
0.806997
0.807155
0.801846
0.821163
0.768233
0.816331
0.813399
0.801063
0.819399
0.7995
0.803402
0.816375
0.640276
0.772409
0.739374
0.511345
0.827286
0.580137
0.803689
0.821753
0.858071
0.714665
0.746886
0.81632
0.807152
0.803245
0.796773
0.770049
0.814699
0.816408
0.80015
0.816813
0.818457
0.688992
0.816213
0.816888
0.807209
0.814474
0.6169
0.818275
0.824216
0.719301
0.790708
0.816856
0.801875
0.832029
0.833005
0.804662
0.742679
0.664882
0.817298
0.580899
0.801729
0.803549
0.775377
0.81645
0.755081
0.815496
0.807888
0.803595
0.507693
0.817618
0.829824
0.832868
0.816859
0.80394
0.803551
0.816285
0.759705
0.848975
0.840734
0.721837
0.801445
0.659119
0.780597
0.674275
0.818794
0.840511
0.802307
0.651895
0.76996
0.817224
0.826992
0.834465
0.81575
0.692011
0.551097
0.807079
0.819023
0.80364
0.818591
0.807209
0.774401
0.855008
0.818334
0.804547
0.819768
0.8001
0.744059
0.801313
0.813993
0.606417
0.693745
0.804257
0.815138
0.805501
0.584109
0.815438
0.611905
0.816405
0.77076
0.819337
0.819371
0.754718
0.809578
0.795169
0.80581
0.84
0.841541
0.832941
0.805476
0.819323
0.591131
0.81639
0.858249
0.826853
0.831586
0.804828
0.823513
0.801438
0.841338
0.810087
0.815658
0.685541
0.651245
0.837837
0.816997
0.842151
0.724317
0.803576
0.766956
0.800145
0.810948
0.795904
0.81016
0.816812
0.825383
0.830424
0.832394
0.806314
0.750847
0.807112
0.739175
0.796509
0.823901
0.802651
0.816391
0.762787
0.805996
0.806823
0.84863
0.812402
0.803562
0.808365
0.836448
0.833281
0.803931
0.857776
0.798954
0.822854
0.68066
0.803479
0.801259
0.802122
0.83397
0.615719
0.807226
0.806273
0.667503
0.817983
0.831647
0.817367
0.803588
0.807334
0.803497
0.819182
0.802203
0.715194
0.528525
0.817041
0.808825
0.803438
0.805889
0.804941
0.804588
0.814568
0.801395
0.817292
0.592281
0.816362
0.810364
0.815943
0.843998
0.817267
0.836384
0.815763
0.800705
0.816621
0.687071
0.804594
0.854787
0.816642
0.794457
0.81762
0.640527
0.806823
0.610933
0.683475
0.686454
0.810492
0.818671
0.813507
0.516618
0.699005
0.803894
0.833061
0.750729
0.835086
0.805819
0.808148
0.799893
0.698172
0.756716
0.56377
0.803681
0.816145
0.806757
0.822922
0.674948
0.691453
0.858046
0.803834
0.81749
0.738886
0.817159
0.540482
0.823574
0.69842
0.817359
0.820395
0.802728
0.803611
0.827724
0.797204
0.804552
0.806936
0.638054
0.807861
0.665158
0.801774
0.801539
0.817296
0.816596
0.733038
0.818422
0.755609
0.80357
0.717069
0.807471
0.746906
0.676522
0.827099
0.816402
0.802472
0.732373
0.81373
0.664615
0.814359
0.803455
0.724758
0.828379
0.819434
0.65695
0.700545
0.828311
0.804028
0.731585
0.835741
0.83687
0.838211
0.816166
0.559797
0.754332
0.822847
0.8231
0.606463
0.646133
0.818002
0.816429
0.732538
0.780918
0.816375
0.809902
0.762991
0.816086
0.817127
0.803865
0.737958
0.803235
0.800054
0.815224
0.588299
0.806309
0.824523
0.583223
0.821013
0.849768
0.816441
0.6814
0.816108
0.815503
0.81616
0.801855
0.821674
0.804506
0.807619
0.805551
0.803564
0.817015
0.689514
0.812962
0.811803
0.70622
0.617458
0.788207
0.801655
0.816357
0.754344
0.636468
0.815594
0.786721
0.816372
0.824197
0.817094
0.827652
0.751537
0.611858
0.81595
0.84149
0.816439
0.698011
0.806297
0.731601
0.816739
0.814539
0.816366
0.820416
0.802386
0.816811
0.809436
0.758406
0.819186
0.816525
0.755868
0.793589
0.720278
0.608257
0.740618
0.784808
0.818794
0.815528
0.813271
0.81407
0.80356
0.798289
0.808939
0.696533
0.753925
0.815879
0.803924
0.805536
0.819658
0.618691
0.81715
0.804468
0.845124
0.811574
0.65028
0.795287
0.804585
0.843918
0.705055
0.577101
0.586647
0.641373
0.820467
0.805838
0.577329
0.610429
0.822822
0.81634
0.889939
0.805462
0.831155
0.816396
0.770369
0.814694
0.816395
0.81636
0.814565
0.816444
0.800726
0.815575
0.674102
0.818877
0.804016
0.812726
0.75649
0.82023
0.617194
0.859667
0.804416
0.829254
0.816472
0.808881
0.747399
0.825983
0.815457
0.83957
0.816186
0.816144
0.657898
0.829002
0.814576
0.8163
0.838182
0.825265
0.565031
0.799473
0.805338
0.814475
0.81821
0.804431
0.801853
0.818532
0.769097
0.807415
0.819086
0.864528
0.833426
0.607379
0.798938
0.758209
0.81752
0.765626
0.822231
0.805611
0.807315
0.816307
0.791526
0.808389
0.816706
0.823602
0.789275
0.69044
0.741231
0.713523
0.817396
0.839893
0.841005
0.740906
0.812233
0.754452
0.621765
0.816379
0.801554
0.816234
0.803941
0.646737
0.803351
0.77931
0.736811
0.81511
0.744981
0.810109
0.819389
0.861122
0.810911
0.80835
0.743359
0.816434
0.778533
0.841163
0.8845
0.800199
0.534525
0.802395
0.619575
0.772896
0.662929
0.800246
0.531615
0.818346
0.854415
0.806837
0.815023
0.822524
0.806305
0.803447
0.70322
0.82667
0.815977
0.804804
0.809765
0.794106
0.80396
0.809605
0.644316
0.819689
0.804478
0.849652
0.811517
0.805681
0.803785
0.816425
0.81655
0.810951
0.803865
0.790373
0.816343
0.797591
0.804646
0.816907
0.775364
0.578016
0.816538
0.821156
0.805328
0.7213
0.804613
0.810572
0.803709
0.711421
0.878796
0.816088
0.819601
0.816381
0.851344
0.780882
0.816333
0.790445
0.818823
0.824755
0.668933
0.816346
0.732847
0.820354
0.730145
0.802849
0.756603
0.804766
0.690408
0.813224
0.732772
0.528043
0.822227
0.667536
0.770012
0.820257
0.816372
0.779489
0.815414
0.730565
0.644228
0.828542
0.681307
0.819834
0.77116
0.802683
0.808794
0.816916
0.657976
0.805259
0.775441
0.813966
0.815571
0.832779
0.807039
0.694312
0.758534
0.663287
0.801486
0.806476
0.816356
0.818444
0.813052
0.815935
0.81376
0.670148
0.735192
0.688513
0.708859
0.817411
0.810621
0.835162
0.810525
0.818071
0.692441
0.879862
0.818484
0.828651
0.584021
0.825499
0.816322
0.842581
0.84706
0.828313
0.832937
0.823019
0.553901
0.806717
0.81782
0.708229
0.819779
0.804737
0.816316
0.809031
0.816376
0.81625
0.771546
0.715248
0.801026
0.801961
0.584316
0.817492
0.860392
0.818547
0.68089
0.825194
0.816766
0.822414
0.839235
0.683086
0.509857
0.805511
0.841616
0.806834
0.805595
0.817647
0.802694
0.81346
0.813516
0.801771
0.804838
0.805397
0.816396
0.806279
0.80736
0.80189
0.838411
0.832912
0.854734
0.816677
0.810793
0.817821
0.816737
0.816376
0.814928
0.818603
0.83555
0.809509
0.814984
0.627474
0.832769
0.69386
0.869284
0.804142
0.834865
0.802445
0.78816
0.78882
0.73979
0.823823
0.812217
0.81499
0.817004
0.778666
0.811543
0.593358
0.807032
0.81674
0.816733
0.79721
0.816182
0.617542
0.785784
0.568531
0.823291
0.799917
0.77721
0.804808
0.817134
0.816397
0.816388
0.73611
0.811735
0.816183
0.812995
0.804148
0.8046
0.748307
0.771636
0.811618
0.80431
0.712174
0.607817
0.510182
0.842726
0.806827
0.781286
0.783531
0.8257
0.803947
0.804424
0.821033
0.781757
0.757822
0.81934
0.809984
0.813495
0.838735
0.806113
0.816103
0.80914
0.506181
0.803899
0.816177
0.776712
0.822169
0.817649
0.828078
0.62563
0.704758
0.586063
0.82994
0.818646
0.747737
0.81311
0.682625
0.817289
0.812661
0.816283
0.805059
0.813064
0.586179
0.694282
0.808933
0.816959
0.795066
0.804556
0.832827
0.802011
0.804134
0.659805
0.810676
0.816346
0.805224
0.816302
0.803035
0.627993
0.817843
0.816387
0.582705
0.713123
0.796448
0.831008
0.709944
0.804781
0.795304
0.816331
0.75797
0.690182
0.814739
0.797301
0.801917
0.768963
0.556512
0.8228
0.679379
0.75345
0.729005
0.804435
0.800248
0.815792
0.671484
0.770798
0.804795
0.818329
0.600266
0.802268
0.827179
0.810191
0.556413
0.806503
0.785632
0.72104
0.719989
0.801429
0.822037
0.816742
0.812039
0.715047
0.743202
0.647927
0.834537
0.8443
0.819789
0.789995
0.866242
0.71007
0.816994
0.770354
0.793062
0.797079
0.81635
0.804624
0.815857
0.788396
0.760043
0.822617
0.799779
0.843933
0.723289
0.792618
0.806369
0.727028
0.805172
0.817846
0.585186
0.802783
0.802379
0.803075
0.823949
0.768158
0.80164
0.726958
0.816349
0.809747
0.729653
0.816343
0.819245
0.831014
0.806788
0.789577
0.800555
0.806979
0.723072
0.816427
0.804203
0.68637
0.808234
0.782811
0.833757
0.822866
0.821783
0.841266
0.851867
0.71265
0.817277
0.797914
0.789241
0.623873
0.819343
0.806978
0.81635
0.779605
0.854782
0.834564
0.784082
0.846323
0.782202
0.801287
0.775294
0.816334
0.72609
0.642274
0.845781
0.670869
0.794129
0.841205
0.816394
0.679281
0.810173
0.755111
0.804765
0.800067
0.784805
0.804824
0.804058
0.803793
0.802886
0.787731
0.816168
0.784101
0.819447
0.80876
0.722199
0.786377
0.816417
0.816422
0.806466
0.574017
0.826965
0.816101
0.815953
0.718066
0.806105
0.802375
0.804021
0.819124
0.746716
0.819189
0.803596
0.807007
0.760042
0.815648
0.813782
0.807999
0.772473
0.810438
0.8164
0.808931
0.818153
0.811242
0.806813
0.825562
0.805307
0.791274
0.809731
0.816315
0.819447
0.782491
0.708216
0.817284
0.813404
0.804195
0.748154
0.79066
0.65979
0.803596
0.553521
0.803541
0.817851
0.776978
0.836619
0.587781
0.813132
0.742039
0.814791
0.547576
0.806406
0.830677
0.816861
0.821687
0.74135
0.842849
0.570651
0.825575
0.703083
0.802783
0.692435
0.675509
0.816351
0.816367
0.746725
0.804433
0.822628
0.618567
0.824066
0.771498
0.835677
0.816387
0.816444
0.816796
0.804393
0.8402
0.812756
0.804585
0.684968
0.803512
0.845262
0.803461
0.804632
0.770856
0.807756
0.816151
0.816329
0.799711
0.73785
0.813914
0.81875
0.609959
0.804861
0.646627
0.818919
0.565101
0.816306
0.773788
0.689461
0.731426
0.784203
0.719811
0.845843
0.815164
0.799263
0.804667
0.708027
0.803334
0.791988
0.803051
0.817321
0.804723
0.728548
0.712113
0.803111
0.775468
0.532857
0.815373
0.682357
0.795757
0.694149
0.827159
0.81345
0.827606
0.812398
0.839647
0.810795
0.603126
0.831567
0.810555
0.804151
0.818725
0.816299
0.816273
0.81579
0.827574
0.819568
0.629171
0.805392
0.801317
0.816691
0.696801
0.803131
0.82597
0.759575
0.693631
0.809931
0.702675
0.735812
0.812382
0.81656
0.674237
0.843188
0.770787
0.806073
0.79946
0.814153
0.846227
0.802322
0.564012
0.81825
0.687249
0.684068
0.778972
0.763187
0.772673
0.81635
0.803731
0.818905
0.816474
0.59381
0.78879
0.834503
0.816311
0.601286
0.732644
0.652536
0.819809
0.814348
0.695523
0.804598
0.816094
0.802294
0.837281
0.621643
0.842279
0.739846
0.815852
0.816427
0.68863
0.816212
0.715713
0.794184
0.710733
0.814244
0.787982
0.643073
0.728642
0.721808
0.834979
0.813471
0.822239
0.824765
0.803565
0.80982
0.805413
0.820017
0.80429
0.702113
0.804807
0.610535
0.780132
0.808019
0.804607
0.816324
0.826853
0.803493
0.728054
0.68882
0.675364
0.793609
0.818776
0.748303
0.633924
0.755542
0.814673
0.802692
0.76339
0.805672
0.824964
0.756348
0.578155
0.702175
0.801132
0.816331
0.865517
0.817343
0.81613
0.853194
0.802315
0.80299
0.817851
0.816287
0.80856
0.724215
0.810086
0.704768
0.863552
0.782396
0.817075
0.640035
0.79962
0.542268
0.591297
0.632471
0.811351
0.803945
0.812611
0.763231
0.803857
0.548152
0.785921
0.805814
0.741138
0.817591
0.804898
0.81905
0.844541
0.690581
0.815045
0.802608
0.813811
0.817922
0.816659
0.81639
0.758616
0.800138
0.800213
0.803685
0.800337
0.814252
0.848809
0.821545
0.730079
0.805451
0.673646
0.816888
0.81637
0.598295
0.770581
0.770619
0.552993
0.787818
0.804222
0.87917
0.801566
0.816335
0.760077
0.795936
0.800105
0.811379
0.785025
0.555766
0.697396
0.686104
0.783544
0.817581
0.803701
0.823197
0.792042
0.805013
0.816603
0.801282
0.853632
0.719038
0.816139
0.783194
0.54666
0.66036
0.816697
0.804021
0.806386
0.571766
0.798048
0.804222
0.664765
0.817265
0.793924
0.810097
0.81809
0.673372
0.723291
0.728896
0.816294
0.83501
0.641533
0.791655
0.709726
0.817159
0.829448
0.782008
0.77676
0.556936
0.815259
0.802772
0.727474
0.856118
0.806545
0.73361
0.743568
0.768099
0.815161
0.572992
0.797967
0.73934
0.801121
0.82456
0.714009
0.802369
0.814771
0.720481
0.814258
0.711089
0.819227
0.801248
0.759783
0.706671
0.81196
0.801026
0.81704
0.675199
0.806074
0.808251
0.815915
0.704653
0.81631
0.810926
0.833589
0.69422
0.818769
0.744453
0.81614
0.808276
0.844073
0.804188
0.821881
0.752408
0.818504
0.840791
0.834773
0.818826
0.84911
0.753377
0.852199
0.829827
0.806149
0.827515
0.806878
0.652549
0.781282
0.817428
0.751758
0.705124
0.801801
0.806562
0.700604
0.800716
0.551489
0.85189
0.712238
0.711372
0.817133
0.777575
0.809335
0.800218
0.809326
0.804524
0.815887
0.838741
0.73906
0.775257
0.600086
0.814425
0.779053
0.812948
0.805791
0.579858
0.803249
0.802871
0.811186
0.801154
0.819863
0.809042
0.69705
0.825757
0.852234
0.690072
0.748094
0.816228
0.804396
0.723257
0.816502
0.759474
0.79829
0.803525
0.806557
0.839185
0.675531
0.721824
0.801519
0.708581
0.774725
0.833926
0.545292
0.699059
0.800402
0.804872
0.803613
0.742479
0.825027
0.810303
0.804083
0.809183
0.816993
0.700583
0.665052
0.810636
0.817382
0.801522
0.877073
0.804466
0.816406
0.799927
0.813263
0.814757
0.809466
0.665897
0.815894
0.819759
0.804039
0.805347
0.801985
0.62445
0.813041
0.814432
0.816424
0.867681
0.817764
0.802741
0.611411
0.838472
0.710005
0.828864
0.808134
0.815125
0.827798
0.813488
0.816049
0.739469
0.563514
0.62475
0.816269
0.812711
0.552027
0.797149
0.817829
0.835688
0.525402
0.810832
0.81694
0.804246
0.810327
0.557419
0.816793
0.809315
0.571172
0.816272
0.818581
0.554531
0.81142
0.816388
0.777668
0.808383
0.813225
0.813967
0.801309
0.828308
0.547539
0.832822
0.817022
0.804666
0.747021
0.788698
0.815553
0.810782
0.805387
0.818757
0.801464
0.677514
0.809691
0.691297
0.816431
0.666138
0.751738
0.798065
0.722853
0.803816
0.588218
0.851304
0.816356
0.81605
0.802255
0.803615
0.803377
0.814966
0.817843
0.67579
0.728389
0.734906
0.818184
0.732105
0.68379
0.819768
0.786513
0.830068
0.815165
0.810695
0.736615
0.557643
0.800067
0.793201
0.535117
0.817385
0.816773
0.739109
0.8071
0.771527
0.622893
0.813227
0.815982
0.791565
0.617512
0.803393
0.785271
0.82886
0.816757
0.814841
0.812999
0.816649
0.708146
0.802442
0.819022
0.710927
0.516598
0.741225
0.799874
0.738181
0.816779
0.801326
0.806675
0.784862
0.868492
0.803713
0.802665
0.828106
0.860736
0.805253
0.81851
0.797601
0.819129
0.791094
0.748228
0.813202
0.804869
0.819289
0.803691
0.794019
0.844663
0.768772
0.816583
0.776152
0.805472
0.648514
0.52726
0.802111
0.803485
0.813844
0.799312
0.802057
0.816405
0.775247
0.806686
0.816386
0.784903
0.819449
0.778157
0.604766
0.806059
0.7621
0.779145
0.755226
0.76506
0.795572
0.790447
0.824401
0.789371
0.810404
0.803564
0.76878
0.818832
0.556304
0.736365
0.814282
0.8173
0.815446
0.805377
0.816306
0.812686
0.80682
0.823944
0.810656
0.785288
0.819666
0.80401
0.793661
0.797443
0.806042
0.59563
0.804212
0.793897
0.587886
0.815276
0.808272
0.806807
0.811784
0.708998
0.754663
0.823923
0.776129
0.812629
0.819494
0.716684
0.80521
0.82666
0.725641
0.800908
0.81323
0.780818
0.807587
0.839835
0.803319
0.820437
0.775326
0.806022
0.802334
0.816692
0.804765
0.800652
0.600791
0.818568
0.790178
0.807445
0.828173
0.707812
0.830956
0.822001
0.526348
0.808511
0.805069
0.804757
0.815961
0.826404
0.826635
0.80569
0.80905
0.817682
0.814572
0.803925
0.816148
0.806808
0.752752
0.721062
0.78397
0.817278
0.815384
0.778683
0.76096
0.815127
0.826797
0.811671
0.816268
0.709269
0.520932
0.748617
0.820629
0.809047
0.81943
0.84574
0.802301
0.725511
0.667248
0.802875
0.807043
0.704153
0.816574
0.687052
0.838709
0.733642
0.816222
0.895832
0.816753
0.803167
0.780978
0.812317
0.693642
0.815454
0.811626
0.793316
0.808754
0.780572
0.803016
0.810993
0.784253
0.803935
0.853575
0.779079
0.802659
0.627783
0.804907
0.698502
0.804701
0.795802
0.789968
0.786425
0.726041
0.805297
0.791133
0.846289
0.816996
0.816427
0.815938
0.896075
0.751907
0.803763
0.739802
0.803435
0.801389
0.805927
0.723922
0.803291
0.806819
0.658795
0.811769
0.752364
0.643686
0.848273
0.849062
0.754608
0.812109
0.796323
0.775434
0.739708
0.778974
0.788168
0.739931
0.804474
0.806104
0.729602
0.818656
0.805688
0.57529
0.816364
0.823901
0.816093
0.804112
0.618519
0.726173
0.807344
0.860581
0.662314
0.730971
0.808571
0.817206
0.799201
0.7095
0.723524
0.809984
0.816957
0.818373
0.839137
0.745603
0.759547
0.876695
0.808233
0.813614
0.796776
0.664267
0.646491
0.597739
0.667823
0.612164
0.76886
0.80394
0.80512
0.81599
0.81137
0.8125
0.861527
0.727872
0.826446
0.817466
0.820172
0.819819
0.817405
0.816765
0.815335