# vtk DataFile Version 1.0
unstructured grid
ascii
DATASET UNSTRUCTURED_GRID
points 14760 float
-1 0 0
-1 1 0
2 0 0
2 1 0
0 0 0
1 0 0
-1 1 0.1
-1 0 0.1
0 0 0.1
1 0 0.1
2 0 0.1
2 1 0.1
-0.99 0 0
-0.98 0 0
-0.97 0 0
-0.96 0 0
-0.95 0 0
-0.94 0 0
-0.93 0 0
-0.92 0 0
-0.91 0 0
-0.9 0 0
-0.89 0 0
-0.88 0 0
-0.87 0 0
-0.86 0 0
-0.85 0 0
-0.84 0 0
-0.83 0 0
-0.82 0 0
-0.81 0 0
-0.8 0 0
-0.79 0 0
-0.78 0 0
-0.77 0 0
-0.76 0 0
-0.75 0 0
-0.74 0 0
-0.73 0 0
-0.72 0 0
-0.71 0 0
-0.7 0 0
-0.69 0 0
-0.68 0 0
-0.67 0 0
-0.66 0 0
-0.65 0 0
-0.64 0 0
-0.63 0 0
-0.62 0 0
-0.61 0 0
-0.6 0 0
-0.59 0 0
-0.58 0 0
-0.57 0 0
-0.56 0 0
-0.55 0 0
-0.54 0 0
-0.53 0 0
-0.52 0 0
-0.51 0 0
-0.5 0 0
-0.49 0 0
-0.48 0 0
-0.47 0 0
-0.46 0 0
-0.45 0 0
-0.44 0 0
-0.43 0 0
-0.42 0 0
-0.41 0 0
-0.4 0 0
-0.39 0 0
-0.38 0 0
-0.37 0 0
-0.36 0 0
-0.35 0 0
-0.34 0 0
-0.33 0 0
-0.32 0 0
-0.31 0 0
-0.3 0 0
-0.29 0 0
-0.28 0 0
-0.27 0 0
-0.26 0 0
-0.25 0 0
-0.24 0 0
-0.23 0 0
-0.22 0 0
-0.21 0 0
-0.2 0 0
-0.19 0 0
-0.18 0 0
-0.17 0 0
-0.16 0 0
-0.15 0 0
-0.14 0 0
-0.13 0 0
-0.12 0 0
-0.11 0 0
-0.1 0 0
-0.09 0 0
-0.08 0 0
-0.07 0 0
-0.06 0 0
-0.05 0 0
-0.04 0 0
-0.03 0 0
-0.02 0 0
-0.01 0 0
1.01 0 0
1.02 0 0
1.03 0 0
1.04 0 0
1.05 0 0
1.06 0 0
1.07 0 0
1.08 0 0
1.09 0 0
1.1 0 0
1.11 0 0
1.12 0 0
1.13 0 0
1.14 0 0
1.15 0 0
1.16 0 0
1.17 0 0
1.18 0 0
1.19 0 0
1.2 0 0
1.21 0 0
1.22 0 0
1.23 0 0
1.24 0 0
1.25 0 0
1.26 0 0
1.27 0 0
1.28 0 0
1.29 0 0
1.3 0 0
1.31 0 0
1.32 0 0
1.33 0 0
1.34 0 0
1.35 0 0
1.36 0 0
1.37 0 0
1.38 0 0
1.39 0 0
1.4 0 0
1.41 0 0
1.42 0 0
1.43 0 0
1.44 0 0
1.45 0 0
1.46 0 0
1.47 0 0
1.48 0 0
1.49 0 0
1.5 0 0
1.51 0 0
1.52 0 0
1.53 0 0
1.54 0 0
1.55 0 0
1.56 0 0
1.57 0 0
1.58 0 0
1.59 0 0
1.6 0 0
1.61 0 0
1.62 0 0
1.63 0 0
1.64 0 0
1.65 0 0
1.66 0 0
1.67 0 0
1.68 0 0
1.69 0 0
1.7 0 0
1.71 0 0
1.72 0 0
1.73 0 0
1.74 0 0
1.75 0 0
1.76 0 0
1.77 0 0
1.78 0 0
1.79 0 0
1.8 0 0
1.81 0 0
1.82 0 0
1.83 0 0
1.84 0 0
1.85 0 0
1.86 0 0
1.87 0 0
1.88 0 0
1.89 0 0
1.9 0 0
1.91 0 0
1.92 0 0
1.93 0 0
1.94 0 0
1.95 0 0
1.96 0 0
1.97 0 0
1.98 0 0
1.99 0 0
2 0.0100088 0
2 0.0204183 0
2 0.0312446 0
2 0.0425043 0
2 0.0542147 0
2 0.066394 0
2 0.079061 0
2 0.092235 0
2 0.105936 0
2 0.120186 0
2 0.135007 0
2 0.150421 0
2 0.166452 0
2 0.183124 0
2 0.200465 0
2 0.218499 0
2 0.237256 0
2 0.256763 0
2 0.277051 0
2 0.298152 0
2 0.320097 0
2 0.342921 0
2 0.366659 0
2 0.391347 0
2 0.417024 0
2 0.443728 0
2 0.471502 0
2 0.500387 0
2 0.530429 0
2 0.561674 0
2 0.594169 0
2 0.627966 0
2 0.663115 0
2 0.699672 0
2 0.737692 0
2 0.777235 0
2 0.818361 0
2 0.861133 0
2 0.905617 0
2 0.951882 0
1.95 1 0
1.9 1 0
1.85 1 0
1.8 1 0
1.75 1 0
1.7 1 0
1.65 1 0
1.6 1 0
1.55 1 0
1.5 1 0
1.45 1 0
1.4 1 0
1.35 1 0
1.3 1 0
1.25 1 0
1.2 1 0
1.15 1 0
1.1 1 0
1.05 1 0
1 1 0
0.95 1 0
0.9 1 0
0.85 1 0
0.8 1 0
0.75 1 0
0.7 1 0
0.65 1 0
0.6 1 0
0.55 1 0
0.5 1 0
0.45 1 0
0.4 1 0
0.35 1 0
0.3 1 0
0.25 1 0
0.2 1 0
0.15 1 0
0.1 1 0
0.05 1 0
3.69793e-12 1 0
-0.05 1 0
-0.1 1 0
-0.15 1 0
-0.2 1 0
-0.25 1 0
-0.3 1 0
-0.35 1 0
-0.4 1 0
-0.45 1 0
-0.5 1 0
-0.55 1 0
-0.6 1 0
-0.65 1 0
-0.7 1 0
-0.75 1 0
-0.8 1 0
-0.85 1 0
-0.9 1 0
-0.95 1 0
-1 0.951882 0
-1 0.905617 0
-1 0.861133 0
-1 0.818361 0
-1 0.777235 0
-1 0.737692 0
-1 0.699672 0
-1 0.663115 0
-1 0.627966 0
-1 0.594169 0
-1 0.561674 0
-1 0.530429 0
-1 0.500387 0
-1 0.471502 0
-1 0.443728 0
-1 0.417024 0
-1 0.391347 0
-1 0.366659 0
-1 0.342921 0
-1 0.320097 0
-1 0.298152 0
-1 0.277051 0
-1 0.256763 0
-1 0.237256 0
-1 0.218499 0
-1 0.200465 0
-1 0.183124 0
-1 0.166452 0
-1 0.150421 0
-1 0.135007 0
-1 0.120186 0
-1 0.105936 0
-1 0.092235 0
-1 0.079061 0
-1 0.066394 0
-1 0.0542147 0
-1 0.0425043 0
-1 0.0312446 0
-1 0.0204183 0
-1 0.0100088 0
0.00921362 0.00379763 0
0.0184561 0.00752451 0
0.0277268 0.0111804 0
0.0370253 0.0147652 0
0.0463511 0.0182786 0
0.0557034 0.0217203 0
0.0650819 0.0250903 0
0.074486 0.0283883 0
0.083915 0.0316141 0
0.0933685 0.0347675 0
0.102846 0.0378484 0
0.112347 0.0408565 0
0.12187 0.0437917 0
0.131416 0.0466538 0
0.140983 0.0494427 0
0.150572 0.0521581 0
0.160181 0.0547999 0
0.16981 0.0573681 0
0.179458 0.0598623 0
0.189125 0.0622825 0
0.198811 0.0646285 0
0.208514 0.0669001 0
0.218234 0.0690974 0
0.227971 0.07122 0
0.237724 0.073268 0
0.247493 0.0752411 0
0.257276 0.0771393 0
0.267073 0.0789625 0
0.276884 0.0807105 0
0.286708 0.0823832 0
0.296545 0.0839806 0
0.306394 0.0855025 0
0.316254 0.0869488 0
0.326125 0.0883196 0
0.336006 0.0896146 0
0.345896 0.0908339 0
0.355796 0.0919773 0
0.365704 0.0930447 0
0.375621 0.0940362 0
0.385544 0.0949517 0
0.395474 0.095791 0
0.40541 0.0965542 0
0.415352 0.0972412 0
0.425299 0.097852 0
0.43525 0.0983865 0
0.445205 0.0988447 0
0.455164 0.0992266 0
0.465125 0.0995321 0
0.475088 0.0997613 0
0.485052 0.0999141 0
0.495017 0.0999904 0
0.504983 0.0999904 0
0.514948 0.0999141 0
0.524912 0.0997613 0
0.534875 0.0995321 0
0.544836 0.0992266 0
0.554795 0.0988447 0
0.56475 0.0983865 0
0.574701 0.097852 0
0.584648 0.0972412 0
0.59459 0.0965542 0
0.604526 0.095791 0
0.614456 0.0949517 0
0.624379 0.0940362 0
0.634296 0.0930447 0
0.644204 0.0919773 0
0.654104 0.0908339 0
0.663994 0.0896146 0
0.673875 0.0883196 0
0.683746 0.0869488 0
0.693606 0.0855025 0
0.703455 0.0839806 0
0.713292 0.0823832 0
0.723116 0.0807105 0
0.732927 0.0789625 0
0.742724 0.0771393 0
0.752508 0.0752411 0
0.762276 0.073268 0
0.772029 0.07122 0
0.781766 0.0690974 0
0.791486 0.0669001 0
0.801189 0.0646285 0
0.810875 0.0622825 0
0.820542 0.0598623 0
0.83019 0.0573681 0
0.839819 0.0547999 0
0.849428 0.0521581 0
0.859017 0.0494427 0
0.868584 0.0466538 0
0.87813 0.0437917 0
0.887653 0.0408565 0
0.897154 0.0378484 0
0.906631 0.0347675 0
0.916085 0.0316141 0
0.925514 0.0283883 0
0.934918 0.0250903 0
0.944297 0.0217203 0
0.953649 0.0182786 0
0.962975 0.0147652 0
0.972273 0.0111804 0
0.981544 0.00752451 0
0.990786 0.00379763 0
-1 0.951882 0.1
-1 0.905617 0.1
-1 0.861133 0.1
-1 0.818361 0.1
-1 0.777235 0.1
-1 0.737692 0.1
-1 0.699672 0.1
-1 0.663115 0.1
-1 0.627966 0.1
-1 0.594169 0.1
-1 0.561674 0.1
-1 0.530429 0.1
-1 0.500387 0.1
-1 0.471502 0.1
-1 0.443728 0.1
-1 0.417024 0.1
-1 0.391347 0.1
-1 0.366659 0.1
-1 0.342921 0.1
-1 0.320097 0.1
-1 0.298152 0.1
-1 0.277051 0.1
-1 0.256763 0.1
-1 0.237256 0.1
-1 0.218499 0.1
-1 0.200465 0.1
-1 0.183124 0.1
-1 0.166452 0.1
-1 0.150421 0.1
-1 0.135007 0.1
-1 0.120186 0.1
-1 0.105936 0.1
-1 0.092235 0.1
-1 0.079061 0.1
-1 0.066394 0.1
-1 0.0542147 0.1
-1 0.0425043 0.1
-1 0.0312446 0.1
-1 0.0204183 0.1
-1 0.0100088 0.1
-0.99 0 0.1
-0.98 0 0.1
-0.97 0 0.1
-0.96 0 0.1
-0.95 0 0.1
-0.94 0 0.1
-0.93 0 0.1
-0.92 0 0.1
-0.91 0 0.1
-0.9 0 0.1
-0.89 0 0.1
-0.88 0 0.1
-0.87 0 0.1
-0.86 0 0.1
-0.85 0 0.1
-0.84 0 0.1
-0.83 0 0.1
-0.82 0 0.1
-0.81 0 0.1
-0.8 0 0.1
-0.79 0 0.1
-0.78 0 0.1
-0.77 0 0.1
-0.76 0 0.1
-0.75 0 0.1
-0.74 0 0.1
-0.73 0 0.1
-0.72 0 0.1
-0.71 0 0.1
-0.7 0 0.1
-0.69 0 0.1
-0.68 0 0.1
-0.67 0 0.1
-0.66 0 0.1
-0.65 0 0.1
-0.64 0 0.1
-0.63 0 0.1
-0.62 0 0.1
-0.61 0 0.1
-0.6 0 0.1
-0.59 0 0.1
-0.58 0 0.1
-0.57 0 0.1
-0.56 0 0.1
-0.55 0 0.1
-0.54 0 0.1
-0.53 0 0.1
-0.52 0 0.1
-0.51 0 0.1
-0.5 0 0.1
-0.49 0 0.1
-0.48 0 0.1
-0.47 0 0.1
-0.46 0 0.1
-0.45 0 0.1
-0.44 0 0.1
-0.43 0 0.1
-0.42 0 0.1
-0.41 0 0.1
-0.4 0 0.1
-0.39 0 0.1
-0.38 0 0.1
-0.37 0 0.1
-0.36 0 0.1
-0.35 0 0.1
-0.34 0 0.1
-0.33 0 0.1
-0.32 0 0.1
-0.31 0 0.1
-0.3 0 0.1
-0.29 0 0.1
-0.28 0 0.1
-0.27 0 0.1
-0.26 0 0.1
-0.25 0 0.1
-0.24 0 0.1
-0.23 0 0.1
-0.22 0 0.1
-0.21 0 0.1
-0.2 0 0.1
-0.19 0 0.1
-0.18 0 0.1
-0.17 0 0.1
-0.16 0 0.1
-0.15 0 0.1
-0.14 0 0.1
-0.13 0 0.1
-0.12 0 0.1
-0.11 0 0.1
-0.1 0 0.1
-0.09 0 0.1
-0.08 0 0.1
-0.07 0 0.1
-0.06 0 0.1
-0.05 0 0.1
-0.04 0 0.1
-0.03 0 0.1
-0.02 0 0.1
-0.01 0 0.1
0.00921362 0.00379763 0.1
0.0184561 0.00752451 0.1
0.0277268 0.0111804 0.1
0.0370253 0.0147652 0.1
0.0463511 0.0182786 0.1
0.0557034 0.0217203 0.1
0.0650819 0.0250903 0.1
0.074486 0.0283883 0.1
0.083915 0.0316141 0.1
0.0933685 0.0347675 0.1
0.102846 0.0378484 0.1
0.112347 0.0408565 0.1
0.12187 0.0437917 0.1
0.131416 0.0466538 0.1
0.140983 0.0494427 0.1
0.150572 0.0521581 0.1
0.160181 0.0547999 0.1
0.16981 0.0573681 0.1
0.179458 0.0598623 0.1
0.189125 0.0622825 0.1
0.198811 0.0646285 0.1
0.208514 0.0669001 0.1
0.218234 0.0690974 0.1
0.227971 0.07122 0.1
0.237724 0.073268 0.1
0.247493 0.0752411 0.1
0.257276 0.0771393 0.1
0.267073 0.0789625 0.1
0.276884 0.0807105 0.1
0.286708 0.0823832 0.1
0.296545 0.0839806 0.1
0.306394 0.0855025 0.1
0.316254 0.0869488 0.1
0.326125 0.0883196 0.1
0.336006 0.0896146 0.1
0.345896 0.0908339 0.1
0.355796 0.0919773 0.1
0.365704 0.0930447 0.1
0.375621 0.0940362 0.1
0.385544 0.0949517 0.1
0.395474 0.095791 0.1
0.40541 0.0965542 0.1
0.415352 0.0972412 0.1
0.425299 0.097852 0.1
0.43525 0.0983865 0.1
0.445205 0.0988447 0.1
0.455164 0.0992266 0.1
0.465125 0.0995321 0.1
0.475088 0.0997613 0.1
0.485052 0.0999141 0.1
0.495017 0.0999904 0.1
0.504983 0.0999904 0.1
0.514948 0.0999141 0.1
0.524912 0.0997613 0.1
0.534875 0.0995321 0.1
0.544836 0.0992266 0.1
0.554795 0.0988447 0.1
0.56475 0.0983865 0.1
0.574701 0.097852 0.1
0.584648 0.0972412 0.1
0.59459 0.0965542 0.1
0.604526 0.095791 0.1
0.614456 0.0949517 0.1
0.624379 0.0940362 0.1
0.634296 0.0930447 0.1
0.644204 0.0919773 0.1
0.654104 0.0908339 0.1
0.663994 0.0896146 0.1
0.673875 0.0883196 0.1
0.683746 0.0869488 0.1
0.693606 0.0855025 0.1
0.703455 0.0839806 0.1
0.713292 0.0823832 0.1
0.723116 0.0807105 0.1
0.732927 0.0789625 0.1
0.742724 0.0771393 0.1
0.752508 0.0752411 0.1
0.762276 0.073268 0.1
0.772029 0.07122 0.1
0.781766 0.0690974 0.1
0.791486 0.0669001 0.1
0.801189 0.0646285 0.1
0.810875 0.0622825 0.1
0.820542 0.0598623 0.1
0.83019 0.0573681 0.1
0.839819 0.0547999 0.1
0.849428 0.0521581 0.1
0.859017 0.0494427 0.1
0.868584 0.0466538 0.1
0.87813 0.0437917 0.1
0.887653 0.0408565 0.1
0.897154 0.0378484 0.1
0.906631 0.0347675 0.1
0.916085 0.0316141 0.1
0.925514 0.0283883 0.1
0.934918 0.0250903 0.1
0.944297 0.0217203 0.1
0.953649 0.0182786 0.1
0.962975 0.0147652 0.1
0.972273 0.0111804 0.1
0.981544 0.00752451 0.1
0.990786 0.00379763 0.1
1.01 0 0.1
1.02 0 0.1
1.03 0 0.1
[...]
CELL_DATA 14313
SCALARS rho float
LOOKUP_TABLE default
0.794577
0.828379
0.809733
0.593448
0.785319
0.824106
0.824481
0.824397
0.813959
0.818692
0.824329
0.801912
0.801006
0.658961
0.824786
0.841921
0.811957
0.811089
0.822096
0.809233
0.822998
0.817905
0.824428
0.785143
0.824026
0.818191
0.757818
0.703342
0.827836
0.834872
0.824046
0.797748
0.804994
0.823997
0.806557
0.822662
0.710961
0.812087
0.823599
0.804296
0.76925
0.822649
0.596621
0.728988
0.829123
0.844226
0.822859
0.784917
0.816145
0.857801
0.707142
0.678211
0.665429
0.822577
0.830836
0.789057
0.829107
0.818723
0.813722
0.824287
0.824173
0.829846
0.79772
0.847458
0.822609
0.825181
0.859711
0.790286
0.84972
0.824777
0.801431
0.84152
0.651916
0.846419
0.757213
0.819267
0.830115
0.762242
0.71638
0.823549
0.627729
0.835206
0.841753
0.80453
0.818012
0.83062
0.82408
0.806274
0.835698
0.810478
0.786964
0.660587
0.810265
0.802319
0.757247
0.805131
0.826415
0.821052
0.805046
0.653542
0.819018
0.821698
0.824455
0.824515
0.765485
0.812229
0.804845
0.718867
0.844036
0.822016
0.817127
0.83559
0.824
0.830651
0.805543
0.837753
0.83098
0.845515
0.786077
0.802853
0.823557
0.82112
0.866341
0.752566
0.849373
0.773622
0.803215
0.806293
0.826428
0.848932
0.821489
0.824069
0.867535
0.824277
0.834203
0.78898
0.814047
0.796842
0.829156
0.828871
0.824481
0.828194
0.803785
0.804414
0.801026
0.848353
0.807979
0.771042
0.807392
0.828896
0.801857
0.804472
0.82443
0.734279
0.832
0.805064
0.740465
0.832266
0.824046
0.815025
0.829861
0.811573
0.710894
0.768788
0.834062
0.829787
0.730973
0.824553
0.838384
0.820799
0.717842
0.819604
0.733777
0.801823
0.821062
0.831624
0.820317
0.825675
0.832129
0.759575
0.823522
0.821555
0.787013
0.775933
0.79555
0.818228
0.824773
0.801444
0.613875
0.799844
0.771124
0.760531
0.777641
0.744742
0.82426
0.82663
0.810239
0.804383
0.818481
0.828417
0.775943
0.804916
0.83882
0.826628
0.843134
0.804394
0.819991
0.817532
0.824004
0.843177
0.808374
0.822665
0.807871
0.720223
0.825872
0.827962
0.821645
0.811922
0.844014
0.806247
0.804371
0.822624
0.8184
0.863198
0.82111
0.804926
0.829438
0.803387
0.824397
0.773239
0.706423
0.818347
0.717413
0.837359
0.803359
0.753036
0.823902
0.825845
0.826585
0.831768
0.796998
0.701826
0.769408
0.673975
0.826771
0.741123
0.80464
0.809657
0.846806
0.82045
0.622148
0.805508
0.744589
0.84684
0.8049
0.722538
0.822882
0.837411
0.826389
0.629733
0.816412
0.804832
0.812107
0.818235
0.800875
0.787374
0.819218
0.818961
0.650724
0.826424
0.825618
0.780527
0.805463
0.82433
0.787428
0.828661
0.798411
0.738124
0.807027
0.807832
0.615808
0.595712
0.770267
0.820179
0.831701
0.795139
0.824005
0.826603
0.783673
0.808481
0.804564
0.828318
0.839769
0.806413
0.810977
0.816956
0.695207
0.828529
0.737564
0.801914
0.796819
0.783952
0.845017
0.812158
0.800763
0.713046
0.707414
0.815415
0.810352
0.8231
0.806377
0.80352
0.677146
0.82687
0.826192
0.821484
0.824339
0.824777
0.804788
0.802513
0.826015
0.685674
0.820117
0.824311
0.826237
0.824523
0.78148
0.832285
0.803138
0.82605
0.824952
0.758898
0.766371
0.803886
0.803916
0.66637
0.824457
0.817071
0.811843
0.823774
0.806375
0.803027
0.743821
0.732798
0.826209
0.763409
0.771775
0.82572
0.846978
0.826023
0.806241
0.811106
0.824308
0.805752
0.828653
0.798022
0.828589
0.814839
0.822776
0.807092
0.822473
0.805556
0.824061
0.625535
0.802357
0.80332
0.817306
0.823574
0.782629
0.805011
0.824273
0.824453
0.82954
0.77779
0.821803
0.81996
0.774102
0.767044
0.816019
0.818259
0.839522
0.835528
0.827249
0.808474
0.672572
0.794066
0.653346
0.805823
0.807229
0.813841
0.82609
0.880375
0.590121
0.656812
0.847384
0.878418
0.823812
0.710445
0.806843
0.745805
0.81913
0.820704
0.725486
0.680311
0.769207
0.82483
0.663712
0.879928
0.83519
0.811746
0.811658
0.650011
0.766148
0.79496
0.829149
0.809155
0.804418
0.840438
0.824376
0.735048
0.717145
0.803163
0.808824
0.821578
0.823834
0.812568
0.824182
0.75774
0.796564
0.800623
0.804258
0.780242
0.829217
0.811696
0.824812
0.823856
0.776201
0.807487
0.805299
0.80688
0.824272
0.827103
0.819119
0.694685
0.793122
0.828423
0.816106
0.824157
0.80994
0.824628
0.810355
0.831897
0.832334
0.687087
0.863045
0.759331
0.831865
0.817167
0.7502
0.833789
0.802572
0.836146
0.599855
0.805012
0.71237
0.82424
0.81213
0.649652
0.805821
0.806501
0.801305
0.806329
0.813735
0.786656
0.824088
0.65521
0.808435
0.808522
0.805432
0.829702
0.780118
0.824228
0.821471
0.802619
0.827903
0.800661
0.803834
0.824389
0.661364
0.783841
0.756697
0.623879
0.835532
0.623243
0.805627
0.83025
0.864415
0.72683
0.766091
0.824268
0.808522
0.804562
0.807281
0.783713
0.822925
0.824439
0.803928
0.825042
0.820832
0.661686
0.824348
0.825169
0.808831
0.82239
0.656768
0.826887
0.832614
0.737385
0.794203
0.825092
0.803119
0.835138
0.840203
0.805544
0.746884
0.649945
0.825723
0.616983
0.80321
0.803816
0.77899
0.82433
0.763482
0.823452
0.810758
0.803878
0.622356
0.826086
0.837898
0.840777
0.82513
0.804454
0.803907
0.824389
0.763827
0.855743
0.84393
0.738474
0.802746
0.678648
0.78556
0.6975
0.82746
0.843939
0.804303
0.689473
0.783661
0.825553
0.835242
0.841875
0.824074
0.722376
0.595867
0.8091
0.82758
0.805041
0.821285
0.81638
0.779977
0.857806
0.826932
0.805256
0.828336
0.801822
0.748182
0.803073
0.816524
0.641092
0.709619
0.805901
0.823042
0.806455
0.617912
0.823595
0.637801
0.82444
0.776926
0.82787
0.827939
0.759777
0.818888
0.805303
0.806888
0.842711
0.84494
0.840093
0.806607
0.827824
0.629868
0.824454
0.864591
0.834372
0.839537
0.805616
0.831949
0.802285
0.848074
0.812848
0.818172
0.716528
0.694017
0.845428
0.825275
0.848821
0.74668
0.804982
0.773617
0.801323
0.813723
0.805985
0.819369
0.825019
0.833736
0.838415
0.840334
0.807953
0.755024
0.816656
0.756156
0.807246
0.832174
0.80351
0.818485
0.770886
0.807689
0.808817
0.855412
0.821247
0.803787
0.810453
0.844129
0.840787
0.804366
0.864134
0.802749
0.831318
0.715179
0.803824
0.802883
0.803997
0.841809
0.641282
0.808888
0.807477
0.696074
0.826396
0.839596
0.825718
0.803843
0.808816
0.805218
0.827738
0.804092
0.717657
0.587801
0.825307
0.81813
0.804413
0.807194
0.806379
0.806164
0.822763
0.803162
0.825608
0.625751
0.824735
0.812244
0.823959
0.850858
0.825602
0.838732
0.823667
0.802067
0.824763
0.703206
0.806078
0.857873
0.824792
0.796581
0.826032
0.664774
0.808266
0.676665
0.717218
0.717452
0.812337
0.827221
0.815669
0.615334
0.71473
0.804378
0.840945
0.762961
0.838348
0.8069
0.810809
0.810204
0.695139
0.766196
0.624405
0.804337
0.824026
0.808738
0.830923
0.692421
0.68864
0.860867
0.805262
0.825891
0.755931
0.825451
0.590911
0.832003
0.694615
0.825717
0.828966
0.803275
0.804538
0.835949
0.806311
0.806229
0.816502
0.662584
0.810713
0.698316
0.80327
0.803336
0.825616
0.819087
0.746928
0.827059
0.759495
0.803979
0.720098
0.809543
0.75121
0.69385
0.835345
0.824443
0.804476
0.751031
0.816138
0.686578
0.822946
0.803894
0.727896
0.836565
0.827992
0.697585
0.716207
0.8365
0.804508
0.750196
0.838055
0.844528
0.845785
0.824057
0.599229
0.766241
0.830544
0.831556
0.670865
0.668376
0.820523
0.824489
0.749134
0.78584
0.824281
0.819186
0.771776
0.824197
0.825411
0.804247
0.752702
0.804953
0.810332
0.824002
0.626753
0.80749
0.832916
0.616807
0.829558
0.852865
0.824326
0.697952
0.824009
0.823643
0.824073
0.802785
0.83017
0.807476
0.809378
0.806688
0.803862
0.825404
0.666861
0.821952
0.814022
0.734227
0.661377
0.792063
0.803468
0.824281
0.759342
0.684708
0.823569
0.797988
0.824283
0.832593
0.825399
0.835879
0.763174
0.66737
0.823842
0.843866
0.824323
0.69843
0.815865
0.746598
0.825065
0.823094
0.824248
0.828938
0.804396
0.825018
0.811077
0.763069
0.827806
0.824632
0.76993
0.796526
0.744
0.677132
0.751902
0.796207
0.82743
0.823485
0.81578
0.822633
0.803865
0.808483
0.810588
0.696944
0.7584
0.823802
0.804444
0.806513
0.821805
0.66294
0.825465
0.805323
0.851866
0.820039
0.687814
0.798781
0.805367
0.850516
0.733226
0.628586
0.621868
0.662447
0.82904
0.808543
0.633753
0.671133
0.831286
0.824308
0.894449
0.806426
0.838441
0.82446
0.7745
0.822851
0.824569
0.82428
0.822698
0.824328
0.801826
0.824125
0.708649
0.827427
0.804509
0.821729
0.760365
0.828754
0.640792
0.862533
0.805086
0.837219
0.824351
0.810501
0.751358
0.829087
0.823892
0.841975
0.82408
0.824466
0.69666
0.836974
0.822484
0.824397
0.845103
0.833623
0.603645
0.800648
0.807174
0.817456
0.820335
0.805108
0.802547
0.826991
0.776192
0.809466
0.827579
0.870129
0.841301
0.663373
0.809065
0.765899
0.825898
0.773077
0.830723
0.806608
0.809041
0.824315
0.80079
0.81778
0.81912
0.825911
0.792318
0.721199
0.761074
0.738168
0.82595
0.842972
0.843729
0.760723
0.82104
0.758986
0.659465
0.824281
0.802403
0.82412
0.804375
0.687103
0.805417
0.784469
0.741574
0.823026
0.749657
0.812419
0.828003
0.867298
0.813646
0.810924
0.755506
0.824511
0.788568
0.848282
0.889277
0.801614
0.59136
0.803797
0.657464
0.779239
0.682239
0.801976
0.651921
0.826792
0.857537
0.80851
0.822929
0.831004
0.80889
0.803725
0.724506
0.829772
0.824004
0.805839
0.818991
0.797058
0.804426
0.818908
0.685132
0.828193
0.806115
0.852771
0.820221
0.808285
0.805204
0.824879
0.824988
0.819841
0.804283
0.800794
0.824295
0.806658
0.806572
0.82518
0.78776
0.615028
0.824654
0.829662
0.80803
0.724672
0.807012
0.819809
0.804017
0.73812
0.881983
0.82397
0.828213
0.824283
0.854082
0.791114
0.824272
0.80082
0.827447
0.833138
0.688913
0.824293
0.747781
0.822508
0.751446
0.80494
0.766043
0.806338
0.675296
0.821333
0.736268
0.645402
0.830265
0.687534
0.774088
0.828793
0.824378
0.790374
0.823386
0.751685
0.6665
0.836644
0.667546
0.828345
0.784148
0.803231
0.810459
0.82518
0.677563
0.806258
0.779015
0.821892
0.824014
0.835856
0.808755
0.716542
0.769775
0.696473
0.803273
0.809069
0.824244
0.827067
0.81498
0.823828
0.821686
0.69355
0.749045
0.667708
0.735805
0.825755
0.812958
0.842925
0.81228
0.8265
0.689183
0.883081
0.826937
0.836805
0.627621
0.833832
0.824285
0.849853
0.853678
0.835769
0.835653
0.831476
0.599909
0.808556
0.82653
0.709513
0.828338
0.807142
0.824257
0.810644
0.824555
0.824586
0.785579
0.717343
0.802427
0.802654
0.628439
0.825865
0.866586
0.827048
0.715484
0.827883
0.825032
0.830891
0.842339
0.668839
0.634268
0.806491
0.84872
0.80815
0.80702
0.826046
0.804711
0.815512
0.821618
0.802527
0.805614
0.806564
0.82447
0.807444
0.809708
0.803744
0.840827
0.840772
0.86125
0.824839
0.819688
0.826269
0.824917
0.824283
0.823048
0.827222
0.842569
0.811255
0.823122
0.681543
0.840639
0.690715
0.87489
0.804729
0.841928
0.804505
0.79161
0.79982
0.744307
0.826496
0.814883
0.817947
0.825277
0.783921
0.820045
0.627052
0.808825
0.824926
0.825044
0.800011
0.824154
0.641722
0.789934
0.606085
0.831671
0.801121
0.787276
0.806757
0.825533
0.824445
0.824462
0.739777
0.820467
0.824102
0.815499
0.804722
0.805901
0.752618
0.785615
0.813937
0.805183
0.737134
0.642706
0.612716
0.849708
0.808116
0.791479
0.788117
0.827996
0.804399
0.805047
0.82954
0.786595
0.762441
0.827835
0.812274
0.81589
0.845599
0.808647
0.823998
0.810795
0.631455
0.804396
0.82409
0.787738
0.830665
0.82604
0.836266
0.680032
0.704665
0.632405
0.837239
0.827251
0.762759
0.815735
0.703027
0.820321
0.814877
0.824171
0.806521
0.814993
0.620633
0.718631
0.818287
0.825206
0.798502
0.814293
0.840189
0.803876
0.804992
0.698394
0.819912
0.824233
0.80621
0.82431
0.803437
0.66333
0.820883
0.82441
0.62006
0.736788
0.807196
0.833717
0.73672
0.80609
0.798422
0.82427
0.763083
0.708317
0.822664
0.799665
0.803141
0.774633
0.614552
0.831227
0.699874
0.76338
0.732505
0.805063
0.801425
0.823696
0.703009
0.776988
0.806196
0.82677
0.628932
0.804243
0.82942
0.819455
0.622076
0.808152
0.789985
0.741682
0.740753
0.803101
0.830525
0.824936
0.82085
0.738275
0.75597
0.671155
0.842342
0.850869
0.828385
0.793914
0.871743
0.737
0.825251
0.776947
0.796929
0.799957
0.824239
0.805618
0.823779
0.792073
0.768545
0.831087
0.800988
0.851043
0.737209
0.796065
0.807887
0.740373
0.806644
0.826293
0.619456
0.80409
0.804424
0.803462
0.832368
0.775203
0.80462
0.742107
0.824286
0.811544
0.745107
0.824283
0.827826
0.839032
0.809137
0.799031
0.801759
0.808438
0.726211
0.824473
0.806166
0.712844
0.809854
0.787442
0.841179
0.830788
0.830295
0.84864
0.854591
0.739069
0.825597
0.807157
0.792279
0.647459
0.827842
0.816376
0.82432
0.791581
0.860931
0.841824
0.788607
0.84943
0.786191
0.802107
0.78114
0.824308
0.741408
0.665678
0.852513
0.700504
0.797562
0.847931
0.824449
0.705166
0.81203
0.766762
0.805593
0.801703
0.796599
0.805881
0.805977
0.80554
0.804558
0.791292
0.824132
0.794214
0.827945
0.811544
0.745718
0.795999
0.818493
0.824473
0.808292
0.610534
0.829303
0.824744
0.824051
0.741024
0.808885
0.802959
0.805712
0.827612
0.75092
0.827686
0.813485
0.816108
0.775318
0.823612
0.815814
0.809923
0.778773
0.812761
0.824879
0.810611
0.826646
0.820428
0.808105
0.833893
0.806461
0.800932
0.818632
0.824287
0.821569
0.794897
0.724451
0.825644
0.815906
0.806519
0.757849
0.793672
0.679169
0.803855
0.598919
0.803924
0.826251
0.780996
0.844161
0.668125
0.82156
0.754865
0.822717
0.592295
0.808122
0.833377
0.825218
0.830183
0.7527
0.85012
0.626813
0.833454
0.703595
0.804669
0.66517
0.694888
0.824525
0.824273
0.762851
0.806795
0.824943
0.64276
0.832043
0.775137
0.843411
0.824289
0.818894
0.825061
0.805235
0.843156
0.815009
0.805975
0.65783
0.803909
0.85229
0.804229
0.814363
0.777084
0.809781
0.824114
0.824281
0.800975
0.750396
0.822482
0.827241
0.636234
0.805667
0.679898
0.827399
0.652585
0.824215
0.785797
0.712271
0.735011
0.787849
0.740415
0.848948
0.817261
0.808469
0.805427
0.724335
0.80454
0.801657
0.803445
0.825862
0.814495
0.731944
0.727034
0.8045
0.781267
0.585663
0.823345
0.71652
0.798868
0.69431
0.835079
0.821555
0.835836
0.820958
0.842108
0.813668
0.665654
0.834194
0.813421
0.805796
0.827195
0.824207
0.824546
0.81821
0.835747
0.82807
0.66464
0.806325
0.802149
0.824859
0.712795
0.804412
0.828652
0.771201
0.711157
0.818887
0.731438
0.750252
0.814717
0.824693
0.693956
0.850161
0.777556
0.807197
0.800613
0.82208
0.853176
0.804669
0.651071
0.826695
0.681705
0.664073
0.782528
0.778675
0.784094
0.824314
0.80402
0.827495
0.824352
0.623918
0.792446
0.837532
0.824251
0.636584
0.750968
0.693403
0.828315
0.822518
0.711321
0.805318
0.824187
0.803845
0.84
0.667115
0.849586
0.743941
0.823975
0.824494
0.72106
0.824485
0.718243
0.803348
0.712223
0.816658
0.799704
0.674071
0.744127
0.745258
0.842311
0.821544
0.830721
0.833146
0.803833
0.812589
0.807268
0.828461
0.806158
0.731028
0.807682
0.637079
0.792012
0.809598
0.806167
0.824288
0.835123
0.803735
0.743981
0.683492
0.701649
0.804627
0.821165
0.752185
0.686349
0.769477
0.822581
0.803987
0.775009
0.807307
0.83259
0.76766
0.613163
0.702287
0.802159
0.824292
0.87135
0.819997
0.82403
0.859461
0.803702
0.805052
0.826248
0.824317
0.817882
0.74424
0.811814
0.729985
0.869579
0.794763
0.825348
0.6873
0.800884
0.58767
0.621505
0.686603
0.820182
0.804352
0.821438
0.77875
0.804254
0.610009
0.798033
0.807894
0.760025
0.826147
0.807117
0.82756
0.851394
0.672478
0.823914
0.803296
0.821793
0.820024
0.824841
0.82441
0.773322
0.80134
0.802917
0.804309
0.801405
0.822767
0.851531
0.830043
0.749408
0.806422
0.696204
0.82514
0.824281
0.636512
0.77728
0.777291
0.618278
0.799572
0.805086
0.884258
0.803201
0.824983
0.77542
0.798537
0.801363
0.81359
0.788879
0.602987
0.695807
0.705761
0.788024
0.826302
0.804309
0.825422
0.79518
0.814743
0.824773
0.802858
0.86006
0.74183
0.824066
0.787697
0.608796
0.674479
0.824878
0.804553
0.808121
0.61172
0.799478
0.8048
0.684004
0.825626
0.804898
0.81295
0.826611
0.679542
0.727401
0.751846
0.824454
0.837728
0.676718
0.794801
0.711348
0.825508
0.837346
0.78676
0.789123
0.642246
0.823537
0.803251
0.740949
0.858983
0.807779
0.751644
0.756765
0.775496
0.823079
0.608854
0.801207
0.745061
0.802199
0.827237
0.716043
0.804138
0.823654
0.734375
0.81676
0.728614
0.827719
0.802664
0.76374
0.733459
0.821051
0.802643
0.825307
0.6945
0.80722
0.817449
0.823833
0.722482
0.824281
0.813277
0.84096
0.687584
0.82726
0.757608
0.824097
0.810455
0.851247
0.80478
0.830372
0.759445
0.826979
0.848195
0.837074
0.827323
0.851827
0.757604
0.855272
0.832941
0.807964
0.834981
0.808286
0.673721
0.792688
0.825815
0.760535
0.73098
0.803642
0.808516
0.71074
0.802282
0.596471
0.854521
0.736919
0.728987
0.825482
0.782977
0.818344
0.803383
0.818235
0.805509
0.824048
0.841454
0.753619
0.786568
0.63835
0.822342
0.783696
0.82121
0.80689
0.615806
0.803574
0.803323
0.819745
0.802167
0.828386
0.810711
0.696552
0.834074
0.855256
0.709505
0.763148
0.82426
0.806774
0.747295
0.818918
0.768442
0.8011
0.80401
0.808866
0.846667
0.698849
0.725854
0.802468
0.729547
0.77963
0.836167
0.591495
0.722773
0.801468
0.805658
0.803907
0.74767
0.833378
0.819274
0.804586
0.81126
0.82525
0.716073
0.701717
0.812551
0.825714
0.802468
0.880221
0.805698
0.824439
0.801085
0.822081
0.818361
0.811123
0.699774
0.818125
0.828266
0.80493
0.807823
0.803214
0.651427
0.821857
0.822601
0.824483
0.870862
0.826266
0.805094
0.651478
0.840779
0.731918
0.836999
0.810201
0.817173
0.830902
0.821427
0.824131
0.760257
0.60491
0.659479
0.824372
0.821111
0.626475
0.800515
0.82633
0.838226
0.632102
0.812635
0.82535
0.805566
0.812085
0.652569
0.825074
0.811429
0.610742
0.824301
0.82706
0.613472
0.813849
0.824648
0.781565
0.810346
0.821494
0.821886
0.802219
0.836433
0.595897
0.835405
0.819383
0.805574
0.76303
0.798257
0.823528
0.812644
0.807654
0.827424
0.802494
0.713228
0.818596
0.676988
0.824315
0.688227
0.761116
0.799492
0.73868
0.804171
0.62015
0.857897
0.82434
0.82433
0.803829
0.804255
0.803659
0.817566
0.826239
0.695488
0.743464
0.747999
0.826621
0.748654
0.686466
0.828195
0.79687
0.837942
0.823699
0.813454
0.751008
0.643893
0.802507
0.804016
0.653281
0.825756
0.824988
0.751583
0.808516
0.782591
0.668631
0.82208
0.818051
0.802061
0.646675
0.805323
0.789651
0.837016
0.82496
0.822747
0.815212
0.824831
0.708722
0.811545
0.827507
0.728506
0.645788
0.761707
0.8015
0.749734
0.824993
0.802909
0.808883
0.789282
0.874163
0.803934
0.804324
0.836166
0.866931
0.806167
0.827197
0.808181
0.827646
0.79479
0.756194
0.815856
0.805666
0.827878
0.804296
0.804845
0.851809
0.774503
0.824741
0.786477
0.806889
0.669852
0.609925
0.804067
0.806535
0.821802
0.801136
0.811189
0.824288
0.780349
0.808442
0.824288
0.795021
0.82801
0.781978
0.642459
0.807938
0.766861
0.784251
0.763729
0.76985
0.798613
0.79346
0.826605
0.793322
0.812359
0.803837
0.781454
0.827308
0.60416
0.755882
0.822619
0.825859
0.823509
0.815097
0.824786
0.82115
0.808839
0.832361
0.812526
0.789561
0.828237
0.805468
0.804478
0.800325
0.807595
0.630097
0.804835
0.797515
0.634699
0.823545
0.810277
0.808129
0.813829
0.73006
0.758538
0.832343
0.780292
0.815143
0.828026
0.719118
0.806399
0.834908
0.743785
0.803902
0.821649
0.784776
0.817063
0.842415
0.806136
0.828951
0.785694
0.807169
0.803281
0.825035
0.806548
0.801746
0.639599
0.827033
0.8016
0.808882
0.836367
0.734317
0.838976
0.829968
0.633576
0.810498
0.805929
0.806959
0.824267
0.834359
0.834893
0.807009
0.818384
0.826064
0.816577
0.804474
0.824544
0.808587
0.759884
0.745547
0.794968
0.825599
0.824067
0.789152
0.772462
0.817499
0.829145
0.813517
0.824309
0.732721
0.624474
0.75287
0.829141
0.811175
0.827955
0.852391
0.803464
0.749126
0.701176
0.804731
0.808986
0.730019
0.824698
0.719423
0.845999
0.748845
0.824794
0.900102
0.818973
0.804471
0.792431
0.814212
0.722818
0.8175
0.820497
0.796771
0.818109
0.784477
0.804294
0.812892
0.79658
0.804386
0.860022
0.783755
0.803352
0.66116
0.806222
0.714419
0.805612
0.797791
0.793638
0.796796
0.73943
0.815004
0.801678
0.85335
0.825251
0.824504
0.823928
0.900322
0.761363
0.805577
0.754276
0.803812
0.802806
0.807267
0.744799
0.804628
0.809497
0.699229
0.820865
0.765648
0.678468
0.8552
0.855928
0.769614
0.814823
0.799533
0.787391
0.760098
0.783983
0.792102
0.753046
0.805173
0.807584
0.752465
0.827122
0.80669
0.638727
0.824271
0.826466
0.824927
0.805014
0.647913
0.749813
0.809392
0.866764
0.658718
0.750328
0.816962
0.819305
0.809088
0.71116
0.747291
0.811877
0.825203
0.826839
0.846619
0.750393
0.768546
0.881864
0.809848
0.821553
0.800162
0.704851
0.692532
0.635813
0.699041
0.672729
0.783411
0.813797
0.806474
0.824271
0.819993
0.814556
0.867633
0.74905
0.83471
0.825811
0.828709
0.82833
0.825743
0.82496
0.823611
0.824321
0.715362
0.8145
0.745224
0.825174