# vtk DataFile Version 1.0
unstructured grid
ascii
DATASET UNSTRUCTURED_GRID
points 14760 float
-1 0 0
-1 1 0
2 0 0
2 1 0
0 0 0
1 0 0
-1 1 0.1
-1 0 0.1
0 0 0.1
1 0 0.1
2 0 0.1
2 1 0.1
-0.99 0 0
-0.98 0 0
-0.97 0 0
-0.96 0 0
-0.95 0 0
-0.94 0 0
-0.93 0 0
-0.92 0 0
-0.91 0 0
-0.9 0 0
-0.89 0 0
-0.88 0 0
-0.87 0 0
-0.86 0 0
-0.85 0 0
-0.84 0 0
-0.83 0 0
-0.82 0 0
-0.81 0 0
-0.8 0 0
-0.79 0 0
-0.78 0 0
-0.77 0 0
-0.76 0 0
-0.75 0 0
-0.74 0 0
-0.73 0 0
-0.72 0 0
-0.71 0 0
-0.7 0 0
-0.69 0 0
-0.68 0 0
-0.67 0 0
-0.66 0 0
-0.65 0 0
-0.64 0 0
-0.63 0 0
-0.62 0 0
-0.61 0 0
-0.6 0 0
-0.59 0 0
-0.58 0 0
-0.57 0 0
-0.56 0 0
-0.55 0 0
-0.54 0 0
-0.53 0 0
-0.52 0 0
-0.51 0 0
-0.5 0 0
-0.49 0 0
-0.48 0 0
-0.47 0 0
-0.46 0 0
-0.45 0 0
-0.44 0 0
-0.43 0 0
-0.42 0 0
-0.41 0 0
-0.4 0 0
-0.39 0 0
-0.38 0 0
-0.37 0 0
-0.36 0 0
-0.35 0 0
-0.34 0 0
-0.33 0 0
-0.32 0 0
-0.31 0 0
-0.3 0 0
-0.29 0 0
-0.28 0 0
-0.27 0 0
-0.26 0 0
-0.25 0 0
-0.24 0 0
-0.23 0 0
-0.22 0 0
-0.21 0 0
-0.2 0 0
-0.19 0 0
-0.18 0 0
-0.17 0 0
-0.16 0 0
-0.15 0 0
-0.14 0 0
-0.13 0 0
-0.12 0 0
-0.11 0 0
-0.1 0 0
-0.09 0 0
-0.08 0 0
-0.07 0 0
-0.06 0 0
-0.05 0 0
-0.04 0 0
-0.03 0 0
-0.02 0 0
-0.01 0 0
1.01 0 0
1.02 0 0
1.03 0 0
1.04 0 0
1.05 0 0
1.06 0 0
1.07 0 0
1.08 0 0
1.09 0 0
1.1 0 0
1.11 0 0
1.12 0 0
1.13 0 0
1.14 0 0
1.15 0 0
1.16 0 0
1.17 0 0
1.18 0 0
1.19 0 0
1.2 0 0
1.21 0 0
1.22 0 0
1.23 0 0
1.24 0 0
1.25 0 0
1.26 0 0
1.27 0 0
1.28 0 0
1.29 0 0
1.3 0 0
1.31 0 0
1.32 0 0
1.33 0 0
1.34 0 0
1.35 0 0
1.36 0 0
1.37 0 0
1.38 0 0
1.39 0 0
1.4 0 0
1.41 0 0
1.42 0 0
1.43 0 0
1.44 0 0
1.45 0 0
1.46 0 0
1.47 0 0
1.48 0 0
1.49 0 0
1.5 0 0
1.51 0 0
1.52 0 0
1.53 0 0
1.54 0 0
1.55 0 0
1.56 0 0
1.57 0 0
1.58 0 0
1.59 0 0
1.6 0 0
1.61 0 0
1.62 0 0
1.63 0 0
1.64 0 0
1.65 0 0
1.66 0 0
1.67 0 0
1.68 0 0
1.69 0 0
1.7 0 0
1.71 0 0
1.72 0 0
1.73 0 0
1.74 0 0
1.75 0 0
1.76 0 0
1.77 0 0
1.78 0 0
1.79 0 0
1.8 0 0
1.81 0 0
1.82 0 0
1.83 0 0
1.84 0 0
1.85 0 0
1.86 0 0
1.87 0 0
1.88 0 0
1.89 0 0
1.9 0 0
1.91 0 0
1.92 0 0
1.93 0 0
1.94 0 0
1.95 0 0
1.96 0 0
1.97 0 0
1.98 0 0
1.99 0 0
2 0.0100088 0
2 0.0204183 0
2 0.0312446 0
2 0.0425043 0
2 0.0542147 0
2 0.066394 0
2 0.079061 0
2 0.092235 0
2 0.105936 0
2 0.120186 0
2 0.135007 0
2 0.150421 0
2 0.166452 0
2 0.183124 0
2 0.200465 0
2 0.218499 0
2 0.237256 0
2 0.256763 0
2 0.277051 0
2 0.298152 0
2 0.320097 0
2 0.342921 0
2 0.366659 0
2 0.391347 0
2 0.417024 0
2 0.443728 0
2 0.471502 0
2 0.500387 0
2 0.530429 0
2 0.561674 0
2 0.594169 0
2 0.627966 0
2 0.663115 0
2 0.699672 0
2 0.737692 0
2 0.777235 0
2 0.818361 0
2 0.861133 0
2 0.905617 0
2 0.951882 0
1.95 1 0
1.9 1 0
1.85 1 0
1.8 1 0
1.75 1 0
1.7 1 0
1.65 1 0
1.6 1 0
1.55 1 0
1.5 1 0
1.45 1 0
1.4 1 0
1.35 1 0
1.3 1 0
1.25 1 0
1.2 1 0
1.15 1 0
1.1 1 0
1.05 1 0
1 1 0
0.95 1 0
0.9 1 0
0.85 1 0
0.8 1 0
0.75 1 0
0.7 1 0
0.65 1 0
0.6 1 0
0.55 1 0
0.5 1 0
0.45 1 0
0.4 1 0
0.35 1 0
0.3 1 0
0.25 1 0
0.2 1 0
0.15 1 0
0.1 1 0
0.05 1 0
3.69793e-12 1 0
-0.05 1 0
-0.1 1 0
-0.15 1 0
-0.2 1 0
-0.25 1 0
-0.3 1 0
-0.35 1 0
-0.4 1 0
-0.45 1 0
-0.5 1 0
-0.55 1 0
-0.6 1 0
-0.65 1 0
-0.7 1 0
-0.75 1 0
-0.8 1 0
-0.85 1 0
-0.9 1 0
-0.95 1 0
-1 0.951882 0
-1 0.905617 0
-1 0.861133 0
-1 0.818361 0
-1 0.777235 0
-1 0.737692 0
-1 0.699672 0
-1 0.663115 0
-1 0.627966 0
-1 0.594169 0
-1 0.561674 0
-1 0.530429 0
-1 0.500387 0
-1 0.471502 0
-1 0.443728 0
-1 0.417024 0
-1 0.391347 0
-1 0.366659 0
-1 0.342921 0
-1 0.320097 0
-1 0.298152 0
-1 0.277051 0
-1 0.256763 0
-1 0.237256 0
-1 0.218499 0
-1 0.200465 0
-1 0.183124 0
-1 0.166452 0
-1 0.150421 0
-1 0.135007 0
-1 0.120186 0
-1 0.105936 0
-1 0.092235 0
-1 0.079061 0
-1 0.066394 0
-1 0.0542147 0
-1 0.0425043 0
-1 0.0312446 0
-1 0.0204183 0
-1 0.0100088 0
0.00921362 0.00379763 0
0.0184561 0.00752451 0
0.0277268 0.0111804 0
0.0370253 0.0147652 0
0.0463511 0.0182786 0
0.0557034 0.0217203 0
0.0650819 0.0250903 0
0.074486 0.0283883 0
0.083915 0.0316141 0
0.0933685 0.0347675 0
0.102846 0.0378484 0
0.112347 0.0408565 0
0.12187 0.0437917 0
0.131416 0.0466538 0
0.140983 0.0494427 0
0.150572 0.0521581 0
0.160181 0.0547999 0
0.16981 0.0573681 0
0.179458 0.0598623 0
0.189125 0.0622825 0
0.198811 0.0646285 0
0.208514 0.0669001 0
0.218234 0.0690974 0
0.227971 0.07122 0
0.237724 0.073268 0
0.247493 0.0752411 0
0.257276 0.0771393 0
0.267073 0.0789625 0
0.276884 0.0807105 0
0.286708 0.0823832 0
0.296545 0.0839806 0
0.306394 0.0855025 0
0.316254 0.0869488 0
0.326125 0.0883196 0
0.336006 0.0896146 0
0.345896 0.0908339 0
0.355796 0.0919773 0
0.365704 0.0930447 0
0.375621 0.0940362 0
0.385544 0.0949517 0
0.395474 0.095791 0
0.40541 0.0965542 0
0.415352 0.0972412 0
0.425299 0.097852 0
0.43525 0.0983865 0
0.445205 0.0988447 0
0.455164 0.0992266 0
0.465125 0.0995321 0
0.475088 0.0997613 0
0.485052 0.0999141 0
0.495017 0.0999904 0
0.504983 0.0999904 0
0.514948 0.0999141 0
0.524912 0.0997613 0
0.534875 0.0995321 0
0.544836 0.0992266 0
0.554795 0.0988447 0
0.56475 0.0983865 0
0.574701 0.097852 0
0.584648 0.0972412 0
0.59459 0.0965542 0
0.604526 0.095791 0
0.614456 0.0949517 0
0.624379 0.0940362 0
0.634296 0.0930447 0
0.644204 0.0919773 0
0.654104 0.0908339 0
0.663994 0.0896146 0
0.673875 0.0883196 0
0.683746 0.0869488 0
0.693606 0.0855025 0
0.703455 0.0839806 0
0.713292 0.0823832 0
0.723116 0.0807105 0
0.732927 0.0789625 0
0.742724 0.0771393 0
0.752508 0.0752411 0
0.762276 0.073268 0
0.772029 0.07122 0
0.781766 0.0690974 0
0.791486 0.0669001 0
0.801189 0.0646285 0
0.810875 0.0622825 0
0.820542 0.0598623 0
0.83019 0.0573681 0
0.839819 0.0547999 0
0.849428 0.0521581 0
0.859017 0.0494427 0
0.868584 0.0466538 0
0.87813 0.0437917 0
0.887653 0.0408565 0
0.897154 0.0378484 0
0.906631 0.0347675 0
0.916085 0.0316141 0
0.925514 0.0283883 0
0.934918 0.0250903 0
0.944297 0.0217203 0
0.953649 0.0182786 0
0.962975 0.0147652 0
0.972273 0.0111804 0
0.981544 0.00752451 0
0.990786 0.00379763 0
-1 0.951882 0.1
-1 0.905617 0.1
-1 0.861133 0.1
-1 0.818361 0.1
-1 0.777235 0.1
-1 0.737692 0.1
-1 0.699672 0.1
-1 0.663115 0.1
-1 0.627966 0.1
-1 0.594169 0.1
-1 0.561674 0.1
-1 0.530429 0.1
-1 0.500387 0.1
-1 0.471502 0.1
-1 0.443728 0.1
-1 0.417024 0.1
-1 0.391347 0.1
-1 0.366659 0.1
-1 0.342921 0.1
-1 0.320097 0.1
-1 0.298152 0.1
-1 0.277051 0.1
-1 0.256763 0.1
-1 0.237256 0.1
-1 0.218499 0.1
-1 0.200465 0.1
-1 0.183124 0.1
-1 0.166452 0.1
-1 0.150421 0.1
-1 0.135007 0.1
-1 0.120186 0.1
-1 0.105936 0.1
-1 0.092235 0.1
-1 0.079061 0.1
-1 0.066394 0.1
-1 0.0542147 0.1
-1 0.0425043 0.1
-1 0.0312446 0.1
-1 0.0204183 0.1
-1 0.0100088 0.1
-0.99 0 0.1
-0.98 0 0.1
-0.97 0 0.1
-0.96 0 0.1
-0.95 0 0.1
-0.94 0 0.1
-0.93 0 0.1
-0.92 0 0.1
-0.91 0 0.1
-0.9 0 0.1
-0.89 0 0.1
-0.88 0 0.1
-0.87 0 0.1
-0.86 0 0.1
-0.85 0 0.1
-0.84 0 0.1
-0.83 0 0.1
-0.82 0 0.1
-0.81 0 0.1
-0.8 0 0.1
-0.79 0 0.1
-0.78 0 0.1
-0.77 0 0.1
-0.76 0 0.1
-0.75 0 0.1
-0.74 0 0.1
-0.73 0 0.1
-0.72 0 0.1
-0.71 0 0.1
-0.7 0 0.1
-0.69 0 0.1
-0.68 0 0.1
-0.67 0 0.1
-0.66 0 0.1
-0.65 0 0.1
-0.64 0 0.1
-0.63 0 0.1
-0.62 0 0.1
-0.61 0 0.1
-0.6 0 0.1
-0.59 0 0.1
-0.58 0 0.1
-0.57 0 0.1
-0.56 0 0.1
-0.55 0 0.1
-0.54 0 0.1
-0.53 0 0.1
-0.52 0 0.1
-0.51 0 0.1
-0.5 0 0.1
-0.49 0 0.1
-0.48 0 0.1
-0.47 0 0.1
-0.46 0 0.1
-0.45 0 0.1
-0.44 0 0.1
-0.43 0 0.1
-0.42 0 0.1
-0.41 0 0.1
-0.4 0 0.1
-0.39 0 0.1
-0.38 0 0.1
-0.37 0 0.1
-0.36 0 0.1
-0.35 0 0.1
-0.34 0 0.1
-0.33 0 0.1
-0.32 0 0.1
-0.31 0 0.1
-0.3 0 0.1
-0.29 0 0.1
-0.28 0 0.1
-0.27 0 0.1
-0.26 0 0.1
-0.25 0 0.1
-0.24 0 0.1
-0.23 0 0.1
-0.22 0 0.1
-0.21 0 0.1
-0.2 0 0.1
-0.19 0 0.1
-0.18 0 0.1
-0.17 0 0.1
-0.16 0 0.1
-0.15 0 0.1
-0.14 0 0.1
-0.13 0 0.1
-0.12 0 0.1
-0.11 0 0.1
-0.1 0 0.1
-0.09 0 0.1
-0.08 0 0.1
-0.07 0 0.1
-0.06 0 0.1
-0.05 0 0.1
-0.04 0 0.1
-0.03 0 0.1
-0.02 0 0.1
-0.01 0 0.1
0.00921362 0.00379763 0.1
0.0184561 0.00752451 0.1
0.0277268 0.0111804 0.1
0.0370253 0.0147652 0.1
0.0463511 0.0182786 0.1
0.0557034 0.0217203 0.1
0.0650819 0.0250903 0.1
0.074486 0.0283883 0.1
0.083915 0.0316141 0.1
0.0933685 0.0347675 0.1
0.102846 0.0378484 0.1
0.112347 0.0408565 0.1
0.12187 0.0437917 0.1
0.131416 0.0466538 0.1
0.140983 0.0494427 0.1
0.150572 0.0521581 0.1
0.160181 0.0547999 0.1
0.16981 0.0573681 0.1
0.179458 0.0598623 0.1
0.189125 0.0622825 0.1
0.198811 0.0646285 0.1
0.208514 0.0669001 0.1
0.218234 0.0690974 0.1
0.227971 0.07122 0.1
0.237724 0.073268 0.1
0.247493 0.0752411 0.1
0.257276 0.0771393 0.1
0.267073 0.0789625 0.1
0.276884 0.0807105 0.1
0.286708 0.0823832 0.1
0.296545 0.0839806 0.1
0.306394 0.0855025 0.1
0.316254 0.0869488 0.1
0.326125 0.0883196 0.1
0.336006 0.0896146 0.1
0.345896 0.0908339 0.1
0.355796 0.0919773 0.1
0.365704 0.0930447 0.1
0.375621 0.0940362 0.1
0.385544 0.0949517 0.1
0.395474 0.095791 0.1
0.40541 0.0965542 0.1
0.415352 0.0972412 0.1
0.425299 0.097852 0.1
0.43525 0.0983865 0.1
0.445205 0.0988447 0.1
0.455164 0.0992266 0.1
0.465125 0.0995321 0.1
0.475088 0.0997613 0.1
0.485052 0.0999141 0.1
0.495017 0.0999904 0.1
0.504983 0.0999904 0.1
0.514948 0.0999141 0.1
0.524912 0.0997613 0.1
0.534875 0.0995321 0.1
0.544836 0.0992266 0.1
0.554795 0.0988447 0.1
0.56475 0.0983865 0.1
0.574701 0.097852 0.1
0.584648 0.0972412 0.1
0.59459 0.0965542 0.1
0.604526 0.095791 0.1
0.614456 0.0949517 0.1
0.624379 0.0940362 0.1
0.634296 0.0930447 0.1
0.644204 0.0919773 0.1
0.654104 0.0908339 0.1
0.663994 0.0896146 0.1
0.673875 0.0883196 0.1
0.683746 0.0869488 0.1
0.693606 0.0855025 0.1
0.703455 0.0839806 0.1
0.713292 0.0823832 0.1
0.723116 0.0807105 0.1
0.732927 0.0789625 0.1
0.742724 0.0771393 0.1
0.752508 0.0752411 0.1
0.762276 0.073268 0.1
0.772029 0.07122 0.1
0.781766 0.0690974 0.1
0.791486 0.0669001 0.1
0.801189 0.0646285 0.1
0.810875 0.0622825 0.1
0.820542 0.0598623 0.1
0.83019 0.0573681 0.1
0.839819 0.0547999 0.1
0.849428 0.0521581 0.1
0.859017 0.0494427 0.1
0.868584 0.0466538 0.1
0.87813 0.0437917 0.1
0.887653 0.0408565 0.1
0.897154 0.0378484 0.1
0.906631 0.0347675 0.1
0.916085 0.0316141 0.1
0.925514 0.0283883 0.1
0.934918 0.0250903 0.1
0.944297 0.0217203 0.1
0.953649 0.0182786 0.1
0.962975 0.0147652 0.1
0.972273 0.0111804 0.1
0.981544 0.00752451 0.1
0.990786 0.00379763 0.1
1.01 0 0.1
1.02 0 0.1
1.03 0 0.1
[...]
CELL_DATA 14313
SCALARS rho float
LOOKUP_TABLE default
0.811332
0.827657
0.816227
0.713056
0.805212
0.907339
0.893823
0.895918
0.817962
0.821136
0.907208
0.810943
0.802272
0.744302
0.888541
0.857558
0.814954
0.816851
0.87906
0.815929
0.905413
0.821052
0.894856
0.805165
0.890868
0.820762
0.787675
0.762589
0.827305
0.853234
0.901189
0.808375
0.807465
0.890935
0.807923
0.878392
0.765882
0.815165
0.891053
0.804552
0.795515
0.904147
0.714437
0.774446
0.865828
0.844131
0.885533
0.802756
0.829817
0.844738
0.764157
0.741106
0.752127
0.87844
0.858425
0.802987
0.865854
0.821608
0.817806
0.890105
0.906084
0.865849
0.80826
0.846265
0.904139
0.882996
0.845844
0.804558
0.858415
0.888556
0.810694
0.857543
0.736284
0.8546
0.787702
0.85372
0.828883
0.790547
0.762387
0.90143
0.720068
0.853561
0.842259
0.804907
0.851195
0.86351
0.907009
0.807373
0.838499
0.816591
0.801904
0.744966
0.813046
0.803245
0.787738
0.808351
0.875546
0.893538
0.805432
0.737605
0.839891
0.889624
0.894372
0.832409
0.793222
0.815508
0.805235
0.76352
0.855389
0.878564
0.820547
0.858407
0.872329
0.8636
0.806293
0.855794
0.858515
0.854286
0.801239
0.803586
0.890486
0.894992
0.858954
0.786073
0.840158
0.797933
0.820101
0.807501
0.876321
0.839902
0.885062
0.900622
0.859554
0.896181
0.860648
0.803002
0.819395
0.808188
0.866059
0.868264
0.893828
0.859098
0.80611
0.807682
0.811002
0.858084
0.810668
0.796116
0.81991
0.868038
0.802958
0.804909
0.894865
0.776521
0.852493
0.808598
0.776937
0.862447
0.89359
0.818283
0.865613
0.814664
0.770446
0.795023
0.860801
0.828641
0.777929
0.884497
0.857244
0.822719
0.769081
0.822094
0.774695
0.818946
0.864538
0.829754
0.868474
0.83348
0.862631
0.789863
0.901916
0.885027
0.806412
0.798804
0.807441
0.821858
0.888915
0.811316
0.724762
0.814786
0.793618
0.790276
0.799754
0.783622
0.889999
0.867388
0.812915
0.804721
0.864245
0.869348
0.7997
0.805272
0.857243
0.875608
0.855244
0.807933
0.822323
0.820827
0.894099
0.844455
0.810741
0.841365
0.820511
0.764631
0.875619
0.827655
0.889355
0.815035
0.854347
0.80746
0.804599
0.823986
0.864006
0.863124
0.837683
0.805311
0.866932
0.803815
0.895882
0.797835
0.769125
0.820965
0.763151
0.857561
0.803803
0.786257
0.878502
0.875173
0.866922
0.82988
0.809406
0.761565
0.795748
0.755987
0.872785
0.777309
0.806831
0.812518
0.85389
0.822451
0.723112
0.806249
0.784364
0.858333
0.8057
0.770899
0.842327
0.855491
0.87593
0.73682
0.819978
0.805617
0.837407
0.841209
0.815599
0.806571
0.821917
0.821767
0.742298
0.876354
0.876913
0.800616
0.813328
0.907969
0.80399
0.858617
0.817666
0.779472
0.81477
0.810494
0.721152
0.712969
0.793249
0.868588
0.863167
0.807231
0.908417
0.875815
0.802142
0.810572
0.804939
0.86963
0.85822
0.823216
0.815596
0.819747
0.764361
0.833526
0.781049
0.803015
0.807663
0.802501
0.854646
0.815454
0.802107
0.768395
0.766498
0.829196
0.813269
0.824318
0.811867
0.805232
0.740693
0.872154
0.826301
0.823248
0.90751
0.877501
0.807002
0.816538
0.878804
0.757908
0.878166
0.898434
0.876553
0.884361
0.803396
0.851902
0.80363
0.878525
0.875781
0.788855
0.793197
0.805959
0.805617
0.741416
0.893552
0.819802
0.814887
0.879237
0.807535
0.811003
0.783998
0.774067
0.876908
0.791102
0.793104
0.826293
0.858242
0.87698
0.807657
0.815486
0.895581
0.812034
0.868714
0.81697
0.868931
0.818142
0.889559
0.819867
0.8797
0.822338
0.904063
0.719092
0.803168
0.803757
0.820034
0.830552
0.803888
0.813063
0.896794
0.894352
0.866686
0.7998
0.823429
0.836121
0.797763
0.793267
0.819681
0.851372
0.858352
0.859495
0.826947
0.810804
0.755197
0.812401
0.743987
0.812369
0.815214
0.845194
0.873821
0.871006
0.716941
0.748203
0.854519
0.869515
0.873393
0.758433
0.808905
0.784195
0.848364
0.822649
0.767264
0.747918
0.795496
0.878035
0.740912
0.870591
0.859171
0.836565
0.814859
0.735078
0.792323
0.811735
0.867572
0.811795
0.805155
0.857661
0.896411
0.778008
0.769395
0.80365
0.81112
0.90192
0.904595
0.817899
0.906067
0.789242
0.809128
0.810299
0.804507
0.802344
0.867341
0.817447
0.888008
0.904009
0.79914
0.810231
0.807052
0.825863
0.900397
0.852917
0.843814
0.759547
0.806069
0.846009
0.819935
0.862307
0.812808
0.879626
0.81417
0.85032
0.852968
0.755157
0.862964
0.78846
0.862944
0.837692
0.78559
0.837116
0.810782
0.858275
0.714279
0.80756
0.767407
0.905446
0.815297
0.74179
0.814812
0.807745
0.810661
0.814288
0.844957
0.806284
0.904744
0.747092
0.810529
0.81084
0.814655
0.860844
0.802108
0.905093
0.892483
0.803757
0.870498
0.802045
0.804132
0.895914
0.732746
0.804579
0.78854
0.726865
0.85944
0.730775
0.813111
0.864941
0.863728
0.776414
0.792376
0.900332
0.810949
0.805243
0.826237
0.804833
0.885543
0.894982
0.813734
0.885358
0.822685
0.739922
0.889523
0.88302
0.813873
0.903902
0.745336
0.865492
0.859358
0.781269
0.806737
0.884952
0.810995
0.831999
0.842447
0.809036
0.782522
0.735037
0.876505
0.719325
0.804143
0.804172
0.800436
0.907742
0.792598
0.899538
0.817099
0.804244
0.726017
0.874315
0.857522
0.858097
0.833448
0.804873
0.804235
0.891045
0.7916
0.858835
0.836716
0.781794
0.8035
0.741792
0.802727
0.758044
0.85316
0.837038
0.806456
0.760545
0.804682
0.880831
0.858763
0.848953
0.832619
0.775314
0.715383
0.811672
0.867579
0.805923
0.82304
0.829624
0.800319
0.844799
0.866082
0.807083
0.864895
0.81081
0.78327
0.804632
0.819383
0.732744
0.75822
0.812672
0.90491
0.807815
0.717929
0.888494
0.723752
0.894741
0.798696
0.845358
0.866061
0.791095
0.848487
0.820287
0.809649
0.836298
0.837748
0.841451
0.810282
0.870743
0.732131
0.893157
0.863898
0.83763
0.856773
0.806487
0.860122
0.803125
0.847859
0.81835
0.82119
0.771418
0.763721
0.858127
0.883133
0.847641
0.78363
0.805835
0.797274
0.802402
0.818926
0.82086
0.852641
0.886303
0.861064
0.855793
0.858171
0.813576
0.786899
0.843094
0.78638
0.83061
0.849779
0.803862
0.821043
0.794913
0.81363
0.811347
0.858434
0.864435
0.805802
0.813336
0.858036
0.848709
0.805408
0.86368
0.812991
0.861183
0.77206
0.804179
0.811291
0.805814
0.85802
0.725677
0.814062
0.810442
0.760398
0.876663
0.857078
0.879807
0.804216
0.811011
0.812519
0.867289
0.805945
0.768418
0.716858
0.883676
0.852766
0.804766
0.808634
0.807628
0.812623
0.886833
0.804734
0.881437
0.722313
0.879143
0.816726
0.895667
0.853632
0.880513
0.833594
0.904554
0.802995
0.889285
0.753844
0.812299
0.845555
0.888904
0.807524
0.876929
0.7396
0.810219
0.755061
0.77309
0.771962
0.816639
0.868757
0.819623
0.725904
0.761536
0.80482
0.857663
0.791135
0.833617
0.809789
0.81447
0.833848
0.758616
0.792576
0.734752
0.804563
0.908074
0.811226
0.839634
0.748507
0.756239
0.846544
0.806217
0.877545
0.78635
0.882491
0.718178
0.860495
0.758509
0.879491
0.860841
0.803707
0.804864
0.859508
0.819026
0.812924
0.843773
0.738717
0.817003
0.763351
0.804228
0.804976
0.881209
0.821665
0.781441
0.863206
0.790325
0.804275
0.769288
0.812284
0.784358
0.749116
0.858859
0.894374
0.806641
0.785669
0.819045
0.750475
0.872011
0.804169
0.773707
0.859186
0.866505
0.764913
0.762448
0.859332
0.805756
0.785135
0.833144
0.858051
0.858163
0.906238
0.712878
0.793061
0.834991
0.861017
0.748603
0.739807
0.82246
0.893368
0.785444
0.803011
0.90404
0.842646
0.793068
0.890707
0.882824
0.805519
0.786721
0.812399
0.833317
0.862183
0.730535
0.809927
0.86155
0.716692
0.860651
0.842574
0.906964
0.75094
0.904871
0.889222
0.903364
0.810729
0.865204
0.815282
0.814692
0.810248
0.804214
0.878311
0.74325
0.855859
0.817093
0.779042
0.749072
0.805559
0.805139
0.902329
0.790895
0.757432
0.898161
0.815639
0.903597
0.859719
0.881904
0.859623
0.790803
0.75303
0.906237
0.836131
0.907014
0.757785
0.836021
0.78198
0.881074
0.873053
0.907447
0.867056
0.812474
0.886327
0.814191
0.792638
0.8613
0.890971
0.796142
0.807878
0.782693
0.75511
0.787472
0.814005
0.86181
0.89948
0.818752
0.87316
0.804225
0.825637
0.814647
0.756759
0.790186
0.902406
0.804769
0.808017
0.823462
0.75014
0.881482
0.808784
0.853399
0.877801
0.759576
0.810346
0.806026
0.848857
0.778583
0.736225
0.72122
0.733239
0.860092
0.815548
0.738393
0.75446
0.863709
0.89886
0.877533
0.808185
0.841167
0.89313
0.798308
0.888351
0.887786
0.902679
0.889438
0.907087
0.802742
0.87242
0.769634
0.868338
0.805706
0.856176
0.790756
0.867392
0.724091
0.847835
0.806962
0.852506
0.907996
0.81432
0.78634
0.828282
0.877119
0.835075
0.905622
0.881421
0.764143
0.851894
0.905113
0.891444
0.845834
0.861202
0.714316
0.802034
0.809079
0.820399
0.822516
0.806895
0.803317
0.874032
0.796378
0.812129
0.871541
0.861677
0.858065
0.75122
0.826102
0.793741
0.878548
0.796019
0.86203
0.807977
0.814406
0.896301
0.815259
0.838318
0.821816
0.826108
0.804607
0.774815
0.790208
0.78095
0.870382
0.83673
0.836932
0.790018
0.866159
0.79041
0.745444
0.904567
0.803169
0.907039
0.804836
0.760147
0.813158
0.801546
0.782048
0.903337
0.785905
0.815562
0.861525
0.865091
0.818575
0.816907
0.785989
0.89245
0.807426
0.853819
0.874218
0.802696
0.718017
0.804555
0.744494
0.797603
0.743989
0.810911
0.737538
0.874827
0.84536
0.813935
0.904846
0.86179
0.8126
0.806643
0.77208
0.828718
0.895018
0.810044
0.853442
0.808281
0.804871
0.8407
0.759286
0.869937
0.807486
0.842531
0.870429
0.815386
0.80611
0.875748
0.876395
0.864819
0.80529
0.81648
0.900065
0.819095
0.808528
0.883379
0.807551
0.720021
0.890581
0.866422
0.815326
0.771522
0.810304
0.844929
0.80563
0.780404
0.860044
0.908015
0.859986
0.904556
0.842734
0.809119
0.901035
0.816261
0.862641
0.861371
0.749864
0.900364
0.782608
0.823904
0.784869
0.807362
0.792707
0.807698
0.747336
0.890739
0.777807
0.732774
0.839168
0.748907
0.798074
0.866343
0.896409
0.808811
0.898336
0.784907
0.73863
0.85554
0.742025
0.869257
0.805467
0.803676
0.814777
0.883802
0.7411
0.807366
0.800405
0.903339
0.876654
0.832463
0.814208
0.768101
0.795277
0.762236
0.804884
0.812788
0.906449
0.864019
0.818351
0.906174
0.903581
0.756024
0.782998
0.744155
0.779372
0.880124
0.81609
0.858004
0.815686
0.875872
0.753555
0.860815
0.874324
0.858283
0.732587
0.85941
0.899158
0.858437
0.8542
0.839334
0.832203
0.863455
0.71973
0.814527
0.858261
0.764429
0.865364
0.810455
0.900919
0.813772
0.887551
0.880773
0.805903
0.768852
0.803337
0.803355
0.733834
0.87879
0.864651
0.871639
0.772635
0.827463
0.88368
0.864283
0.836318
0.742626
0.729813
0.808274
0.854399
0.81132
0.808525
0.877549
0.812681
0.819312
0.891066
0.803274
0.806521
0.810526
0.892584
0.80994
0.816118
0.805513
0.834381
0.856572
0.862147
0.888351
0.864803
0.875105
0.887517
0.904043
0.890112
0.864151
0.842957
0.815544
0.889213
0.759152
0.8568
0.754631
0.867653
0.805187
0.842666
0.806877
0.804515
0.81703
0.783318
0.826577
0.819277
0.820733
0.883346
0.801266
0.876546
0.723626
0.814522
0.88725
0.881713
0.810279
0.898535
0.724827
0.804192
0.7134
0.853472
0.802256
0.806412
0.808758
0.877749
0.894005
0.892603
0.779838
0.869446
0.902739
0.818487
0.805209
0.811533
0.785186
0.805949
0.817067
0.80911
0.780557
0.734154
0.724176
0.853792
0.811089
0.809146
0.804224
0.826938
0.804955
0.806341
0.866709
0.80323
0.792334
0.871039
0.815367
0.818795
0.845243
0.815577
0.905616
0.814642
0.728215
0.80475
0.903384
0.806966
0.859567
0.877876
0.858393
0.75829
0.763294
0.735466
0.839498
0.864789
0.791822
0.819772
0.759087
0.822538
0.817852
0.9066
0.807857
0.818151
0.720195
0.770266
0.840234
0.884541
0.810565
0.846982
0.845184
0.805665
0.805396
0.765088
0.846361
0.906721
0.807223
0.896236
0.808567
0.745889
0.822888
0.895411
0.721939
0.780625
0.830607
0.831057
0.779761
0.811597
0.809401
0.90099
0.792818
0.760108
0.902447
0.809787
0.803744
0.798286
0.730215
0.853945
0.75727
0.791821
0.775639
0.806278
0.802466
0.904545
0.764914
0.798713
0.811998
0.87509
0.721467
0.806333
0.827712
0.849005
0.732393
0.813646
0.805096
0.782523
0.782194
0.811432
0.864871
0.886924
0.866163
0.781118
0.786723
0.7424
0.858021
0.848387
0.861062
0.807791
0.862489
0.779896
0.884078
0.797879
0.809575
0.810246
0.90637
0.809789
0.902498
0.807222
0.794117
0.864002
0.802178
0.857507
0.775069
0.809307
0.812952
0.776579
0.808007
0.875141
0.71895
0.811309
0.806751
0.808292
0.862123
0.79693
0.813397
0.779389
0.901214
0.816042
0.781202
0.900955
0.865214
0.858079
0.815749
0.814252
0.80268
0.810436
0.772615
0.894124
0.808192
0.768144
0.812504
0.803057
0.847905
0.838086
0.859787
0.858543
0.843074
0.780739
0.881225
0.819391
0.804558
0.728014
0.844237
0.853852
0.898712
0.810551
0.857639
0.846475
0.804589
0.840562
0.803748
0.810922
0.798686
0.898468
0.778865
0.739132
0.85423
0.763014
0.81003
0.846811
0.893599
0.76379
0.816579
0.793449
0.806364
0.810737
0.815079
0.809994
0.807906
0.812746
0.812124
0.804296
0.899084
0.81091
0.870707
0.817398
0.783357
0.812255
0.821147
0.893812
0.81436
0.715107
0.828153
0.867803
0.89136
0.781945
0.815815
0.803538
0.807105
0.871756
0.784574
0.87122
0.836751
0.828314
0.79914
0.899028
0.819413
0.812622
0.798596
0.81587
0.874778
0.814851
0.840413
0.847354
0.81132
0.859482
0.810532
0.815274
0.866057
0.898596
0.823257
0.8141
0.768826
0.879442
0.819853
0.809607
0.790088
0.805778
0.741976
0.804276
0.718561
0.804246
0.877367
0.80097
0.85505
0.747074
0.878318
0.786116
0.902408
0.713738
0.810221
0.830831
0.879727
0.865465
0.787683
0.858828
0.735161
0.84254
0.763287
0.806477
0.742022
0.752715
0.887817
0.904072
0.791887
0.809995
0.825514
0.725809
0.841353
0.798264
0.858019
0.90452
0.821218
0.883696
0.808833
0.836103
0.818048
0.811932
0.738833
0.804228
0.857952
0.804468
0.847116
0.798565
0.812547
0.899145
0.89999
0.802151
0.782938
0.873002
0.872016
0.723989
0.806431
0.753321
0.87249
0.744616
0.903848
0.805987
0.766179
0.777106
0.805039
0.780387
0.840225
0.82004
0.820454
0.806073
0.768606
0.811179
0.815989
0.803839
0.839884
0.838205
0.775912
0.776555
0.805256
0.799709
0.715893
0.898338
0.772706
0.809753
0.755146
0.8464
0.890839
0.859373
0.830391
0.835135
0.817343
0.752567
0.830664
0.817119
0.807116
0.873242
0.903889
0.883444
0.821208
0.856082
0.870313
0.746871
0.807927
0.810936
0.888061
0.760566
0.8113
0.827955
0.796239
0.761327
0.831444
0.777956
0.78402
0.817753
0.889688
0.752625
0.85444
0.796992
0.809968
0.80203
0.90279
0.857991
0.812953
0.743532
0.87496
0.749537
0.740162
0.802283
0.800717
0.804598
0.899099
0.805392
0.846848
0.908132
0.718873
0.807483
0.832949
0.900922
0.730895
0.785184
0.763313
0.8696
0.887847
0.759273
0.805945
0.891569
0.804858
0.834748
0.752025
0.858748
0.781143
0.890082
0.89296
0.774576
0.883379
0.768781
0.816939
0.766781
0.819441
0.819129
0.749615
0.780653
0.783057
0.848287
0.89257
0.864573
0.861618
0.804224
0.81804
0.809247
0.844303
0.813285
0.777905
0.815206
0.725072
0.810642
0.813822
0.807506
0.899106
0.859617
0.80628
0.783928
0.75079
0.762203
0.825187
0.822951
0.786696
0.759357
0.79594
0.90524
0.811282
0.798803
0.809128
0.836724
0.793724
0.715566
0.762392
0.802975
0.899425
0.866065
0.822101
0.904854
0.857096
0.804454
0.812914
0.877496
0.894973
0.852546
0.782225
0.815597
0.776332
0.866167
0.813605
0.883316
0.75901
0.802103
0.714164
0.717806
0.759989
0.866339
0.80561
0.865091
0.8007
0.805708
0.727634
0.817714
0.810305
0.790087
0.869939
0.809815
0.870532
0.854376
0.745937
0.856775
0.810075
0.897911
0.822294
0.88743
0.895545
0.798084
0.80241
0.812101
0.808173
0.802533
0.874642
0.841338
0.865748
0.784819
0.807757
0.761985
0.88429
0.903558
0.733663
0.797503
0.797683
0.731106
0.819024
0.809163
0.872734
0.80444
0.867055
0.799059
0.809152
0.802416
0.816731
0.802518
0.721686
0.757178
0.760113
0.803139
0.858013
0.804536
0.825667
0.807099
0.844498
0.887961
0.804007
0.859741
0.782223
0.90199
0.802787
0.726692
0.74972
0.887458
0.804955
0.813988
0.721501
0.809671
0.805404
0.745135
0.879388
0.825399
0.816734
0.871234
0.752004
0.771743
0.785666
0.88844
0.833421
0.753031
0.806755
0.765368
0.879983
0.85085
0.802708
0.808709
0.739875
0.883326
0.809438
0.777318
0.845761
0.810763
0.785412
0.7876
0.795537
0.903143
0.713837
0.81195
0.784066
0.810813
0.827051
0.768008
0.805632
0.856474
0.773121
0.820424
0.772314
0.87141
0.803551
0.792696
0.779182
0.852898
0.811164
0.883625
0.752602
0.809942
0.858347
0.902952
0.768864
0.89861
0.81638
0.846597
0.755372
0.871981
0.788004
0.899642
0.81341
0.858794
0.805358
0.865156
0.791103
0.873182
0.858509
0.832495
0.842254
0.841518
0.788061
0.844037
0.830674
0.810132
0.838306
0.810244
0.741783
0.81095
0.878196
0.791324
0.776975
0.805377
0.810918
0.768566
0.803483
0.716469
0.842758
0.780632
0.772762
0.87995
0.799546
0.831242
0.813078
0.829923
0.809822
0.888328
0.83561
0.787099
0.806379
0.735077
0.903784
0.802698
0.828671
0.809665
0.718042
0.803945
0.809115
0.875148
0.802973
0.868223
0.814729
0.75701
0.859024
0.843968
0.762145
0.792064
0.894822
0.810038
0.783798
0.821276
0.793523
0.811001
0.804261
0.815579
0.857652
0.758986
0.770901
0.810798
0.774695
0.800789
0.831866
0.716195
0.772106
0.810745
0.806739
0.804268
0.785184
0.858631
0.86293
0.805105
0.816762
0.88408
0.762345
0.765979
0.817108
0.880707
0.803172
0.858712
0.806537
0.894826
0.810586
0.864221
0.822037
0.814381
0.764147
0.821227
0.869603
0.809499
0.811307
0.803826
0.733997
0.864778
0.887953
0.893404
0.853331
0.872483
0.813223
0.736344
0.834387
0.779072
0.857867
0.813059
0.819977
0.829408
0.901978
0.892181
0.789208
0.718823
0.740507
0.891106
0.879598
0.734068
0.81124
0.872544
0.83287
0.732191
0.815756
0.877351
0.806469
0.815145
0.743577
0.883024
0.816905
0.720312
0.894957
0.872906
0.729284
0.816971
0.883922
0.801308
0.813138
0.829021
0.904686
0.803059
0.856007
0.719309
0.831994
0.821999
0.809015
0.792227
0.813586
0.898194
0.815779
0.810479
0.855444
0.810822
0.771608
0.865831
0.748523
0.907099
0.751859
0.791378
0.809641
0.777469
0.805346
0.717788
0.859136
0.897826
0.883171
0.804904
0.804493
0.806802
0.820779
0.877575
0.753633
0.783944
0.785644
0.875395
0.785237
0.755519
0.843192
0.813076
0.851277
0.873318
0.818549
0.784318
0.741035
0.811676
0.821963
0.738754
0.878908
0.885941
0.783534
0.810745
0.803616
0.753029
0.862939
0.820685
0.817994
0.732657
0.812913
0.80477
0.858885
0.886466
0.90524
0.819421
0.887411
0.7649
0.822783
0.872124
0.777466
0.732893
0.789991
0.810614
0.786473
0.885996
0.804064
0.815454
0.804557
0.867525
0.804887
0.812003
0.852657
0.864992
0.807762
0.854806
0.83096
0.870029
0.807595
0.789601
0.819805
0.806702
0.864488
0.808215
0.82375
0.859005
0.798105
0.888531
0.805971
0.80832
0.739597
0.725234
0.812247
0.814784
0.899797
0.810488
0.822506
0.907411
0.801035
0.810669
0.904518
0.811639
0.847281
0.802101
0.73629
0.814302
0.794602
0.800353
0.792599
0.796166
0.809521
0.805535
0.826327
0.807351
0.817119
0.806248
0.803269
0.872844
0.722933
0.788007
0.881235
0.870158
0.892967
0.840011
0.87471
0.82971
0.815126
0.861214
0.816773
0.804182
0.86481
0.806509
0.822866
0.810529
0.81304
0.726046
0.805282
0.809644
0.737391
0.831294
0.815957
0.811548
0.818264
0.775104
0.789677
0.86207
0.801313
0.819487
0.868428
0.769406
0.810752
0.857337
0.781527
0.812898
0.878728
0.803032
0.838526
0.836072
0.814218
0.867711
0.805586
0.810261
0.803714
0.880395
0.808257
0.802698
0.736297
0.873658
0.821221
0.81247
0.858995
0.779483
0.858011
0.837501
0.733392
0.813373
0.807329
0.809602
0.882127
0.845861
0.857917
0.81157
0.849994
0.878292
0.819719
0.807296
0.878416
0.8109
0.791249
0.783053
0.812251
0.881174
0.866886
0.807782
0.797139
0.820879
0.828077
0.816975
0.894365
0.779381
0.729628
0.785482
0.867374
0.814173
0.869032
0.852774
0.803974
0.784556
0.765037
0.80644
0.811534
0.776415
0.890156
0.773418
0.853347
0.783424
0.870872
0.881806
0.821754
0.805141
0.8107
0.8175
0.773981
0.820372
0.864573
0.808628
0.849689
0.803334
0.804919
0.817208
0.815969
0.805383
0.86002
0.802631
0.809976
0.74179
0.807346
0.761549
0.808887
0.808323
0.80811
0.812926
0.776029
0.844761
0.817654
0.859727
0.884143
0.892475
0.897259
0.881636
0.791342
0.812871
0.787162
0.80719
0.803689
0.808825
0.782751
0.805357
0.816187
0.765882
0.853919
0.793298
0.752343
0.860118
0.8602
0.795912
0.819355
0.810295
0.807278
0.789568
0.799557
0.807082
0.785003
0.805799
0.80927
0.785919
0.873565
0.808215
0.740506
0.90409
0.82653
0.852046
0.809434
0.733922
0.78473
0.815506
0.864608
0.740344
0.785378
0.826114
0.821805
0.824048
0.766835
0.783649
0.816624
0.884534
0.873816
0.857752
0.786352
0.793375
0.871052
0.812395
0.901842
0.810967
0.768596
0.762226
0.732932
0.762847
0.755375
0.804125
0.84245
0.807722
0.883089
0.829678
0.818749
0.864776
0.78424
0.857767
0.880061
0.866289
0.869273
0.880397
0.886853
0.883432
0.907744