# vtk DataFile Version 1.0
unstructured grid
ascii
DATASET UNSTRUCTURED_GRID
points 14760 float
-1 0 0
-1 1 0
2 0 0
2 1 0
0 0 0
1 0 0
-1 1 0.1
-1 0 0.1
0 0 0.1
1 0 0.1
2 0 0.1
2 1 0.1
-0.99 0 0
-0.98 0 0
-0.97 0 0
-0.96 0 0
-0.95 0 0
-0.94 0 0
-0.93 0 0
-0.92 0 0
-0.91 0 0
-0.9 0 0
-0.89 0 0
-0.88 0 0
-0.87 0 0
-0.86 0 0
-0.85 0 0
-0.84 0 0
-0.83 0 0
-0.82 0 0
-0.81 0 0
-0.8 0 0
-0.79 0 0
-0.78 0 0
-0.77 0 0
-0.76 0 0
-0.75 0 0
-0.74 0 0
-0.73 0 0
-0.72 0 0
-0.71 0 0
-0.7 0 0
-0.69 0 0
-0.68 0 0
-0.67 0 0
-0.66 0 0
-0.65 0 0
-0.64 0 0
-0.63 0 0
-0.62 0 0
-0.61 0 0
-0.6 0 0
-0.59 0 0
-0.58 0 0
-0.57 0 0
-0.56 0 0
-0.55 0 0
-0.54 0 0
-0.53 0 0
-0.52 0 0
-0.51 0 0
-0.5 0 0
-0.49 0 0
-0.48 0 0
-0.47 0 0
-0.46 0 0
-0.45 0 0
-0.44 0 0
-0.43 0 0
-0.42 0 0
-0.41 0 0
-0.4 0 0
-0.39 0 0
-0.38 0 0
-0.37 0 0
-0.36 0 0
-0.35 0 0
-0.34 0 0
-0.33 0 0
-0.32 0 0
-0.31 0 0
-0.3 0 0
-0.29 0 0
-0.28 0 0
-0.27 0 0
-0.26 0 0
-0.25 0 0
-0.24 0 0
-0.23 0 0
-0.22 0 0
-0.21 0 0
-0.2 0 0
-0.19 0 0
-0.18 0 0
-0.17 0 0
-0.16 0 0
-0.15 0 0
-0.14 0 0
-0.13 0 0
-0.12 0 0
-0.11 0 0
-0.1 0 0
-0.09 0 0
-0.08 0 0
-0.07 0 0
-0.06 0 0
-0.05 0 0
-0.04 0 0
-0.03 0 0
-0.02 0 0
-0.01 0 0
1.01 0 0
1.02 0 0
1.03 0 0
1.04 0 0
1.05 0 0
1.06 0 0
1.07 0 0
1.08 0 0
1.09 0 0
1.1 0 0
1.11 0 0
1.12 0 0
1.13 0 0
1.14 0 0
1.15 0 0
1.16 0 0
1.17 0 0
1.18 0 0
1.19 0 0
1.2 0 0
1.21 0 0
1.22 0 0
1.23 0 0
1.24 0 0
1.25 0 0
1.26 0 0
1.27 0 0
1.28 0 0
1.29 0 0
1.3 0 0
1.31 0 0
1.32 0 0
1.33 0 0
1.34 0 0
1.35 0 0
1.36 0 0
1.37 0 0
1.38 0 0
1.39 0 0
1.4 0 0
1.41 0 0
1.42 0 0
1.43 0 0
1.44 0 0
1.45 0 0
1.46 0 0
1.47 0 0
1.48 0 0
1.49 0 0
1.5 0 0
1.51 0 0
1.52 0 0
1.53 0 0
1.54 0 0
1.55 0 0
1.56 0 0
1.57 0 0
1.58 0 0
1.59 0 0
1.6 0 0
1.61 0 0
1.62 0 0
1.63 0 0
1.64 0 0
1.65 0 0
1.66 0 0
1.67 0 0
1.68 0 0
1.69 0 0
1.7 0 0
1.71 0 0
1.72 0 0
1.73 0 0
1.74 0 0
1.75 0 0
1.76 0 0
1.77 0 0
1.78 0 0
1.79 0 0
1.8 0 0
1.81 0 0
1.82 0 0
1.83 0 0
1.84 0 0
1.85 0 0
1.86 0 0
1.87 0 0
1.88 0 0
1.89 0 0
1.9 0 0
1.91 0 0
1.92 0 0
1.93 0 0
1.94 0 0
1.95 0 0
1.96 0 0
1.97 0 0
1.98 0 0
1.99 0 0
2 0.0100088 0
2 0.0204183 0
2 0.0312446 0
2 0.0425043 0
2 0.0542147 0
2 0.066394 0
2 0.079061 0
2 0.092235 0
2 0.105936 0
2 0.120186 0
2 0.135007 0
2 0.150421 0
2 0.166452 0
2 0.183124 0
2 0.200465 0
2 0.218499 0
2 0.237256 0
2 0.256763 0
2 0.277051 0
2 0.298152 0
2 0.320097 0
2 0.342921 0
2 0.366659 0
2 0.391347 0
2 0.417024 0
2 0.443728 0
2 0.471502 0
2 0.500387 0
2 0.530429 0
2 0.561674 0
2 0.594169 0
2 0.627966 0
2 0.663115 0
2 0.699672 0
2 0.737692 0
2 0.777235 0
2 0.818361 0
2 0.861133 0
2 0.905617 0
2 0.951882 0
1.95 1 0
1.9 1 0
1.85 1 0
1.8 1 0
1.75 1 0
1.7 1 0
1.65 1 0
1.6 1 0
1.55 1 0
1.5 1 0
1.45 1 0
1.4 1 0
1.35 1 0
1.3 1 0
1.25 1 0
1.2 1 0
1.15 1 0
1.1 1 0
1.05 1 0
1 1 0
0.95 1 0
0.9 1 0
0.85 1 0
0.8 1 0
0.75 1 0
0.7 1 0
0.65 1 0
0.6 1 0
0.55 1 0
0.5 1 0
0.45 1 0
0.4 1 0
0.35 1 0
0.3 1 0
0.25 1 0
0.2 1 0
0.15 1 0
0.1 1 0
0.05 1 0
3.69793e-12 1 0
-0.05 1 0
-0.1 1 0
-0.15 1 0
-0.2 1 0
-0.25 1 0
-0.3 1 0
-0.35 1 0
-0.4 1 0
-0.45 1 0
-0.5 1 0
-0.55 1 0
-0.6 1 0
-0.65 1 0
-0.7 1 0
-0.75 1 0
-0.8 1 0
-0.85 1 0
-0.9 1 0
-0.95 1 0
-1 0.951882 0
-1 0.905617 0
-1 0.861133 0
-1 0.818361 0
-1 0.777235 0
-1 0.737692 0
-1 0.699672 0
-1 0.663115 0
-1 0.627966 0
-1 0.594169 0
-1 0.561674 0
-1 0.530429 0
-1 0.500387 0
-1 0.471502 0
-1 0.443728 0
-1 0.417024 0
-1 0.391347 0
-1 0.366659 0
-1 0.342921 0
-1 0.320097 0
-1 0.298152 0
-1 0.277051 0
-1 0.256763 0
-1 0.237256 0
-1 0.218499 0
-1 0.200465 0
-1 0.183124 0
-1 0.166452 0
-1 0.150421 0
-1 0.135007 0
-1 0.120186 0
-1 0.105936 0
-1 0.092235 0
-1 0.079061 0
-1 0.066394 0
-1 0.0542147 0
-1 0.0425043 0
-1 0.0312446 0
-1 0.0204183 0
-1 0.0100088 0
0.00921362 0.00379763 0
0.0184561 0.00752451 0
0.0277268 0.0111804 0
0.0370253 0.0147652 0
0.0463511 0.0182786 0
0.0557034 0.0217203 0
0.0650819 0.0250903 0
0.074486 0.0283883 0
0.083915 0.0316141 0
0.0933685 0.0347675 0
0.102846 0.0378484 0
0.112347 0.0408565 0
0.12187 0.0437917 0
0.131416 0.0466538 0
0.140983 0.0494427 0
0.150572 0.0521581 0
0.160181 0.0547999 0
0.16981 0.0573681 0
0.179458 0.0598623 0
0.189125 0.0622825 0
0.198811 0.0646285 0
0.208514 0.0669001 0
0.218234 0.0690974 0
0.227971 0.07122 0
0.237724 0.073268 0
0.247493 0.0752411 0
0.257276 0.0771393 0
0.267073 0.0789625 0
0.276884 0.0807105 0
0.286708 0.0823832 0
0.296545 0.0839806 0
0.306394 0.0855025 0
0.316254 0.0869488 0
0.326125 0.0883196 0
0.336006 0.0896146 0
0.345896 0.0908339 0
0.355796 0.0919773 0
0.365704 0.0930447 0
0.375621 0.0940362 0
0.385544 0.0949517 0
0.395474 0.095791 0
0.40541 0.0965542 0
0.415352 0.0972412 0
0.425299 0.097852 0
0.43525 0.0983865 0
0.445205 0.0988447 0
0.455164 0.0992266 0
0.465125 0.0995321 0
0.475088 0.0997613 0
0.485052 0.0999141 0
0.495017 0.0999904 0
0.504983 0.0999904 0
0.514948 0.0999141 0
0.524912 0.0997613 0
0.534875 0.0995321 0
0.544836 0.0992266 0
0.554795 0.0988447 0
0.56475 0.0983865 0
0.574701 0.097852 0
0.584648 0.0972412 0
0.59459 0.0965542 0
0.604526 0.095791 0
0.614456 0.0949517 0
0.624379 0.0940362 0
0.634296 0.0930447 0
0.644204 0.0919773 0
0.654104 0.0908339 0
0.663994 0.0896146 0
0.673875 0.0883196 0
0.683746 0.0869488 0
0.693606 0.0855025 0
0.703455 0.0839806 0
0.713292 0.0823832 0
0.723116 0.0807105 0
0.732927 0.0789625 0
0.742724 0.0771393 0
0.752508 0.0752411 0
0.762276 0.073268 0
0.772029 0.07122 0
0.781766 0.0690974 0
0.791486 0.0669001 0
0.801189 0.0646285 0
0.810875 0.0622825 0
0.820542 0.0598623 0
0.83019 0.0573681 0
0.839819 0.0547999 0
0.849428 0.0521581 0
0.859017 0.0494427 0
0.868584 0.0466538 0
0.87813 0.0437917 0
0.887653 0.0408565 0
0.897154 0.0378484 0
0.906631 0.0347675 0
0.916085 0.0316141 0
0.925514 0.0283883 0
0.934918 0.0250903 0
0.944297 0.0217203 0
0.953649 0.0182786 0
0.962975 0.0147652 0
0.972273 0.0111804 0
0.981544 0.00752451 0
0.990786 0.00379763 0
-1 0.951882 0.1
-1 0.905617 0.1
-1 0.861133 0.1
-1 0.818361 0.1
-1 0.777235 0.1
-1 0.737692 0.1
-1 0.699672 0.1
-1 0.663115 0.1
-1 0.627966 0.1
-1 0.594169 0.1
-1 0.561674 0.1
-1 0.530429 0.1
-1 0.500387 0.1
-1 0.471502 0.1
-1 0.443728 0.1
-1 0.417024 0.1
-1 0.391347 0.1
-1 0.366659 0.1
-1 0.342921 0.1
-1 0.320097 0.1
-1 0.298152 0.1
-1 0.277051 0.1
-1 0.256763 0.1
-1 0.237256 0.1
-1 0.218499 0.1
-1 0.200465 0.1
-1 0.183124 0.1
-1 0.166452 0.1
-1 0.150421 0.1
-1 0.135007 0.1
-1 0.120186 0.1
-1 0.105936 0.1
-1 0.092235 0.1
-1 0.079061 0.1
-1 0.066394 0.1
-1 0.0542147 0.1
-1 0.0425043 0.1
-1 0.0312446 0.1
-1 0.0204183 0.1
-1 0.0100088 0.1
-0.99 0 0.1
-0.98 0 0.1
-0.97 0 0.1
-0.96 0 0.1
-0.95 0 0.1
-0.94 0 0.1
-0.93 0 0.1
-0.92 0 0.1
-0.91 0 0.1
-0.9 0 0.1
-0.89 0 0.1
-0.88 0 0.1
-0.87 0 0.1
-0.86 0 0.1
-0.85 0 0.1
-0.84 0 0.1
-0.83 0 0.1
-0.82 0 0.1
-0.81 0 0.1
-0.8 0 0.1
-0.79 0 0.1
-0.78 0 0.1
-0.77 0 0.1
-0.76 0 0.1
-0.75 0 0.1
-0.74 0 0.1
-0.73 0 0.1
-0.72 0 0.1
-0.71 0 0.1
-0.7 0 0.1
-0.69 0 0.1
-0.68 0 0.1
-0.67 0 0.1
-0.66 0 0.1
-0.65 0 0.1
-0.64 0 0.1
-0.63 0 0.1
-0.62 0 0.1
-0.61 0 0.1
-0.6 0 0.1
-0.59 0 0.1
-0.58 0 0.1
-0.57 0 0.1
-0.56 0 0.1
-0.55 0 0.1
-0.54 0 0.1
-0.53 0 0.1
-0.52 0 0.1
-0.51 0 0.1
-0.5 0 0.1
-0.49 0 0.1
-0.48 0 0.1
-0.47 0 0.1
-0.46 0 0.1
-0.45 0 0.1
-0.44 0 0.1
-0.43 0 0.1
-0.42 0 0.1
-0.41 0 0.1
-0.4 0 0.1
-0.39 0 0.1
-0.38 0 0.1
-0.37 0 0.1
-0.36 0 0.1
-0.35 0 0.1
-0.34 0 0.1
-0.33 0 0.1
-0.32 0 0.1
-0.31 0 0.1
-0.3 0 0.1
-0.29 0 0.1
-0.28 0 0.1
-0.27 0 0.1
-0.26 0 0.1
-0.25 0 0.1
-0.24 0 0.1
-0.23 0 0.1
-0.22 0 0.1
-0.21 0 0.1
-0.2 0 0.1
-0.19 0 0.1
-0.18 0 0.1
-0.17 0 0.1
-0.16 0 0.1
-0.15 0 0.1
-0.14 0 0.1
-0.13 0 0.1
-0.12 0 0.1
-0.11 0 0.1
-0.1 0 0.1
-0.09 0 0.1
-0.08 0 0.1
-0.07 0 0.1
-0.06 0 0.1
-0.05 0 0.1
-0.04 0 0.1
-0.03 0 0.1
-0.02 0 0.1
-0.01 0 0.1
0.00921362 0.00379763 0.1
0.0184561 0.00752451 0.1
0.0277268 0.0111804 0.1
0.0370253 0.0147652 0.1
0.0463511 0.0182786 0.1
0.0557034 0.0217203 0.1
0.0650819 0.0250903 0.1
0.074486 0.0283883 0.1
0.083915 0.0316141 0.1
0.0933685 0.0347675 0.1
0.102846 0.0378484 0.1
0.112347 0.0408565 0.1
0.12187 0.0437917 0.1
0.131416 0.0466538 0.1
0.140983 0.0494427 0.1
0.150572 0.0521581 0.1
0.160181 0.0547999 0.1
0.16981 0.0573681 0.1
0.179458 0.0598623 0.1
0.189125 0.0622825 0.1
0.198811 0.0646285 0.1
0.208514 0.0669001 0.1
0.218234 0.0690974 0.1
0.227971 0.07122 0.1
0.237724 0.073268 0.1
0.247493 0.0752411 0.1
0.257276 0.0771393 0.1
0.267073 0.0789625 0.1
0.276884 0.0807105 0.1
0.286708 0.0823832 0.1
0.296545 0.0839806 0.1
0.306394 0.0855025 0.1
0.316254 0.0869488 0.1
0.326125 0.0883196 0.1
0.336006 0.0896146 0.1
0.345896 0.0908339 0.1
0.355796 0.0919773 0.1
0.365704 0.0930447 0.1
0.375621 0.0940362 0.1
0.385544 0.0949517 0.1
0.395474 0.095791 0.1
0.40541 0.0965542 0.1
0.415352 0.0972412 0.1
0.425299 0.097852 0.1
0.43525 0.0983865 0.1
0.445205 0.0988447 0.1
0.455164 0.0992266 0.1
0.465125 0.0995321 0.1
0.475088 0.0997613 0.1
0.485052 0.0999141 0.1
0.495017 0.0999904 0.1
0.504983 0.0999904 0.1
0.514948 0.0999141 0.1
0.524912 0.0997613 0.1
0.534875 0.0995321 0.1
0.544836 0.0992266 0.1
0.554795 0.0988447 0.1
0.56475 0.0983865 0.1
0.574701 0.097852 0.1
0.584648 0.0972412 0.1
0.59459 0.0965542 0.1
0.604526 0.095791 0.1
0.614456 0.0949517 0.1
0.624379 0.0940362 0.1
0.634296 0.0930447 0.1
0.644204 0.0919773 0.1
0.654104 0.0908339 0.1
0.663994 0.0896146 0.1
0.673875 0.0883196 0.1
0.683746 0.0869488 0.1
0.693606 0.0855025 0.1
0.703455 0.0839806 0.1
0.713292 0.0823832 0.1
0.723116 0.0807105 0.1
0.732927 0.0789625 0.1
0.742724 0.0771393 0.1
0.752508 0.0752411 0.1
0.762276 0.073268 0.1
0.772029 0.07122 0.1
0.781766 0.0690974 0.1
0.791486 0.0669001 0.1
0.801189 0.0646285 0.1
0.810875 0.0622825 0.1
0.820542 0.0598623 0.1
0.83019 0.0573681 0.1
0.839819 0.0547999 0.1
0.849428 0.0521581 0.1
0.859017 0.0494427 0.1
0.868584 0.0466538 0.1
0.87813 0.0437917 0.1
0.887653 0.0408565 0.1
0.897154 0.0378484 0.1
0.906631 0.0347675 0.1
0.916085 0.0316141 0.1
0.925514 0.0283883 0.1
0.934918 0.0250903 0.1
0.944297 0.0217203 0.1
0.953649 0.0182786 0.1
0.962975 0.0147652 0.1
0.972273 0.0111804 0.1
0.981544 0.00752451 0.1
0.990786 0.00379763 0.1
1.01 0 0.1
1.02 0 0.1
1.03 0 0.1
[...]
CELL_DATA 14313
SCALARS rho float
LOOKUP_TABLE default
0.781394
0.824244
0.805914
0.537818
0.766392
0.811878
0.812535
0.812422
0.811026
0.815164
0.812113
0.798893
0.797093
0.517876
0.8129
0.831917
0.808803
0.807731
0.810111
0.805371
0.81078
0.813959
0.812468
0.766133
0.812095
0.814668
0.742472
0.70957
0.823763
0.824371
0.811969
0.794499
0.799585
0.812065
0.804695
0.810706
0.679878
0.808939
0.811652
0.802399
0.752612
0.810447
0.542017
0.702129
0.817643
0.835728
0.810914
0.777453
0.804459
0.851116
0.675577
0.653335
0.589654
0.810619
0.819684
0.782697
0.817629
0.814717
0.810817
0.812372
0.811983
0.818423
0.794477
0.839215
0.810407
0.813342
0.852863
0.783928
0.840574
0.812891
0.798327
0.83148
0.487677
0.83722
0.726132
0.806981
0.824681
0.747156
0.696515
0.811447
0.592039
0.824723
0.833143
0.803486
0.805592
0.819302
0.811859
0.804479
0.826583
0.807016
0.779915
0.523142
0.807339
0.797985
0.726069
0.803841
0.814666
0.808979
0.803256
0.48928
0.807061
0.809683
0.812502
0.814243
0.748491
0.809323
0.802676
0.699628
0.834465
0.810026
0.813875
0.824886
0.812122
0.819333
0.804177
0.827418
0.819834
0.836233
0.778747
0.79882
0.811611
0.809034
0.859428
0.720948
0.843473
0.753487
0.789609
0.804479
0.814676
0.842986
0.809481
0.812003
0.860728
0.812295
0.823271
0.782662
0.806997
0.792265
0.817679
0.817337
0.812535
0.816769
0.80339
0.803439
0.796562
0.839048
0.805963
0.760743
0.795561
0.817364
0.797279
0.803545
0.812471
0.709104
0.821206
0.803729
0.723152
0.821105
0.812088
0.811891
0.81844
0.808744
0.647397
0.757546
0.823115
0.824464
0.714118
0.812681
0.828027
0.815493
0.68877
0.816244
0.713032
0.787962
0.808952
0.826153
0.808161
0.815464
0.820955
0.741679
0.81141
0.80955
0.773539
0.771829
0.790525
0.811069
0.812884
0.797012
0.496831
0.787273
0.757586
0.742856
0.770256
0.713469
0.812345
0.814953
0.807295
0.803399
0.806139
0.816836
0.760159
0.802936
0.828502
0.814888
0.833457
0.803352
0.816584
0.814245
0.812039
0.834587
0.80407
0.811217
0.795996
0.700987
0.814095
0.820724
0.809629
0.80724
0.83453
0.802954
0.80266
0.819242
0.806051
0.855334
0.809636
0.803148
0.817963
0.802494
0.812423
0.757297
0.636408
0.815085
0.697565
0.826875
0.802407
0.721459
0.812014
0.814066
0.814905
0.826325
0.791712
0.710149
0.74777
0.595529
0.815057
0.723865
0.799363
0.807125
0.837723
0.815153
0.575269
0.804057
0.728784
0.837343
0.801286
0.69482
0.811403
0.82706
0.814638
0.557263
0.813278
0.801231
0.79896
0.80607
0.78843
0.773923
0.815743
0.815558
0.529774
0.814672
0.813822
0.772187
0.802063
0.812092
0.780535
0.8173
0.783087
0.709279
0.802838
0.805838
0.567679
0.543666
0.756339
0.808013
0.820477
0.7901
0.81174
0.814863
0.776103
0.805975
0.803507
0.816728
0.829493
0.7932
0.808314
0.811614
0.631973
0.818924
0.699849
0.797332
0.793305
0.777605
0.835631
0.809358
0.796718
0.676496
0.668293
0.803652
0.805763
0.819662
0.804243
0.798461
0.652198
0.815167
0.822133
0.818135
0.812115
0.812934
0.799504
0.790983
0.81423
0.571565
0.808016
0.812294
0.814473
0.812651
0.765368
0.821566
0.80156
0.814268
0.813122
0.753894
0.752549
0.803407
0.803488
0.543123
0.812514
0.812006
0.807192
0.811877
0.803389
0.800963
0.728206
0.712033
0.814444
0.748435
0.758082
0.818527
0.837495
0.814248
0.802273
0.808507
0.812335
0.803469
0.817095
0.782625
0.817026
0.811809
0.810806
0.795162
0.810508
0.792202
0.811918
0.589843
0.799637
0.800478
0.811989
0.813499
0.767669
0.801628
0.812282
0.812501
0.818075
0.77027
0.818316
0.808406
0.752659
0.761738
0.812898
0.805863
0.829215
0.824767
0.823225
0.804388
0.594703
0.779071
0.600613
0.803399
0.80295
0.800844
0.814331
0.874044
0.52637
0.593802
0.838336
0.872006
0.811917
0.690242
0.802076
0.716488
0.806896
0.81581
0.707085
0.651016
0.751214
0.812991
0.477072
0.873575
0.824417
0.798555
0.808813
0.479452
0.739848
0.781787
0.817644
0.804737
0.800653
0.830269
0.812393
0.705723
0.685098
0.801602
0.806106
0.809388
0.81167
0.808819
0.811992
0.735669
0.791209
0.797212
0.80255
0.764142
0.817718
0.807905
0.812931
0.811707
0.755243
0.805618
0.804088
0.793307
0.812219
0.815748
0.806997
0.657434
0.787496
0.817542
0.812855
0.812321
0.807386
0.812774
0.804274
0.821207
0.821562
0.620313
0.855175
0.744108
0.820658
0.805005
0.746902
0.824529
0.800908
0.825504
0.548669
0.79956
0.679307
0.81207
0.809256
0.52242
0.800019
0.804659
0.798031
0.802112
0.800729
0.772322
0.81193
0.59281
0.805759
0.806126
0.799303
0.818374
0.765025
0.812065
0.809427
0.797968
0.816276
0.79659
0.802875
0.812414
0.634278
0.769352
0.734059
0.490661
0.824772
0.568435
0.802635
0.81887
0.856639
0.703374
0.739791
0.812216
0.806134
0.80101
0.793771
0.766012
0.81098
0.812478
0.797157
0.813185
0.816476
0.472916
0.812439
0.81333
0.806354
0.810185
0.604529
0.815244
0.821587
0.705967
0.788815
0.81324
0.801051
0.82827
0.831359
0.804092
0.742443
0.473708
0.813932
0.571272
0.798845
0.803332
0.774692
0.812097
0.750523
0.811385
0.806608
0.803365
0.486423
0.814327
0.82747
0.830614
0.814808
0.803491
0.803232
0.812469
0.758554
0.847363
0.836979
0.709606
0.798721
0.653523
0.778081
0.667691
0.816129
0.836212
0.799029
0.638112
0.765905
0.813739
0.824489
0.83262
0.813681
0.670942
0.537924
0.804688
0.815966
0.801414
0.815907
0.804783
0.77167
0.851276
0.815291
0.804054
0.816811
0.799028
0.744009
0.798081
0.811462
0.596789
0.689245
0.803333
0.810836
0.804825
0.57529
0.811664
0.60497
0.812482
0.767641
0.816939
0.816367
0.753534
0.806618
0.792458
0.805163
0.836981
0.837281
0.831339
0.804797
0.816192
0.579771
0.812516
0.856817
0.825122
0.829326
0.804218
0.820834
0.799412
0.839851
0.80879
0.814415
0.672916
0.631031
0.83578
0.813438
0.840704
0.716074
0.80131
0.763546
0.797302
0.809611
0.793211
0.807113
0.813156
0.822748
0.828152
0.830119
0.805432
0.750148
0.804173
0.729627
0.793272
0.821565
0.800998
0.815078
0.758345
0.805081
0.804443
0.847015
0.809151
0.803413
0.806103
0.834339
0.831392
0.803596
0.856337
0.796
0.82012
0.662083
0.803174
0.800262
0.798906
0.831762
0.608951
0.806351
0.805569
0.658745
0.814642
0.829383
0.813916
0.803388
0.806082
0.802523
0.816137
0.798979
0.720326
0.513913
0.813469
0.805706
0.801866
0.804562
0.803064
0.803701
0.810806
0.798171
0.813794
0.583484
0.812888
0.809427
0.811972
0.842387
0.81379
0.834289
0.811498
0.797743
0.812871
0.682518
0.803746
0.850357
0.812903
0.793042
0.814256
0.634065
0.80551
0.567294
0.662855
0.67372
0.809573
0.815568
0.812459
0.497633
0.694579
0.803481
0.830829
0.747423
0.831481
0.805174
0.804815
0.796798
0.695416
0.7514
0.547671
0.802801
0.811769
0.804373
0.820909
0.669984
0.626668
0.854142
0.801624
0.814105
0.729288
0.813624
0.526705
0.820889
0.703515
0.813914
0.817576
0.80172
0.802189
0.825224
0.794925
0.803622
0.803967
0.631481
0.806617
0.653449
0.798885
0.798311
0.813803
0.815361
0.729209
0.81546
0.75574
0.803171
0.721206
0.805075
0.745874
0.671617
0.824596
0.81249
0.799201
0.726512
0.811455
0.658557
0.810995
0.802939
0.728179
0.825915
0.816423
0.637963
0.696143
0.825842
0.803666
0.725766
0.833731
0.834776
0.836166
0.811858
0.548471
0.751134
0.821056
0.820379
0.52203
0.640162
0.815681
0.812549
0.722114
0.778439
0.812148
0.807133
0.758073
0.812273
0.813582
0.803579
0.728984
0.802256
0.796985
0.812158
0.577193
0.805579
0.821842
0.574472
0.818223
0.845465
0.812115
0.676724
0.811844
0.811712
0.811949
0.801176
0.818782
0.803272
0.806706
0.804871
0.80332
0.81359
0.48635
0.809962
0.809761
0.692278
0.603516
0.786134
0.798425
0.812187
0.753267
0.565753
0.81153
0.783581
0.81216
0.821559
0.813573
0.825148
0.7484
0.590818
0.811635
0.839147
0.812111
0.709024
0.803546
0.72741
0.813227
0.811157
0.81202
0.817424
0.801275
0.813155
0.808371
0.757536
0.816306
0.812722
0.751867
0.791931
0.711052
0.559412
0.733722
0.78164
0.815884
0.811419
0.810738
0.810663
0.803305
0.79545
0.808085
0.706994
0.753385
0.811688
0.803441
0.804847
0.818381
0.604505
0.813642
0.803906
0.843574
0.807934
0.636661
0.793715
0.803837
0.842497
0.691132
0.562216
0.577235
0.635379
0.817672
0.804529
0.560764
0.585951
0.820014
0.812284
0.889301
0.804821
0.829478
0.812522
0.769435
0.810893
0.812682
0.812179
0.810728
0.812116
0.798103
0.812251
0.64194
0.815793
0.80364
0.809708
0.756629
0.817223
0.611082
0.855591
0.803941
0.827051
0.812112
0.80802
0.748018
0.82235
0.812003
0.837289
0.811898
0.812599
0.641642
0.826808
0.810253
0.812474
0.836631
0.822623
0.554062
0.79655
0.802854
0.811009
0.816985
0.80395
0.800265
0.815282
0.765184
0.805032
0.815924
0.863475
0.831195
0.587266
0.796123
0.754181
0.814108
0.761594
0.81945
0.804859
0.806407
0.812331
0.789184
0.805674
0.815495
0.821885
0.787381
0.669129
0.733975
0.698321
0.8142
0.836001
0.837938
0.733689
0.808929
0.75391
0.609949
0.812135
0.799539
0.811899
0.803586
0.631248
0.802241
0.776558
0.736664
0.810864
0.744602
0.807672
0.816512
0.859765
0.809658
0.807115
0.74005
0.812582
0.775927
0.839417
0.883764
0.797103
0.520857
0.799763
0.607909
0.769359
0.657406
0.799179
0.495213
0.815066
0.849896
0.805948
0.81072
0.819759
0.802919
0.803257
0.696807
0.823029
0.812028
0.804163
0.806677
0.792468
0.803571
0.806878
0.628817
0.816593
0.802092
0.84531
0.80807
0.804397
0.801562
0.813047
0.813161
0.807622
0.803541
0.787596
0.812249
0.795329
0.801826
0.81334
0.771865
0.567323
0.812747
0.818211
0.804008
0.724404
0.801254
0.807768
0.803487
0.698628
0.873236
0.811713
0.816775
0.812137
0.847852
0.778228
0.812206
0.78769
0.815893
0.822086
0.663358
0.812242
0.728678
0.819036
0.718538
0.799554
0.751307
0.802587
0.58799
0.809295
0.734936
0.476913
0.8202
0.661956
0.769068
0.81728
0.812395
0.776607
0.811338
0.719046
0.638259
0.826204
0.699488
0.816761
0.767444
0.801653
0.807946
0.813336
0.652359
0.804346
0.774843
0.80968
0.812132
0.829089
0.806133
0.687689
0.755525
0.651664
0.798257
0.803091
0.812046
0.815461
0.811929
0.811621
0.809461
0.663603
0.73137
0.4893
0.696732
0.813952
0.808184
0.833002
0.809441
0.814754
0.709654
0.874179
0.815224
0.826227
0.571786
0.822919
0.812256
0.840705
0.845563
0.826581
0.83012
0.820225
0.54078
0.80575
0.814969
0.715786
0.816812
0.801386
0.812192
0.807971
0.812667
0.812727
0.767273
0.721005
0.798082
0.80039
0.572002
0.814073
0.859027
0.815362
0.659373
0.822568
0.813183
0.819575
0.835281
0.68947
0.486989
0.804861
0.83987
0.80608
0.803958
0.814268
0.801587
0.81244
0.809589
0.800016
0.80426
0.804698
0.812538
0.805572
0.806189
0.798663
0.836161
0.830712
0.853227
0.812957
0.807459
0.814515
0.813044
0.812149
0.811086
0.815622
0.833994
0.808621
0.811169
0.601377
0.830558
0.710123
0.868183
0.803635
0.833291
0.799123
0.786124
0.785777
0.739976
0.821239
0.810963
0.811585
0.813441
0.775888
0.807934
0.584484
0.806091
0.813054
0.813204
0.795709
0.812131
0.611218
0.783533
0.558509
0.82081
0.796988
0.774594
0.801989
0.813728
0.812497
0.812529
0.737795
0.808327
0.811993
0.810442
0.803663
0.803831
0.747228
0.76739
0.809348
0.803738
0.696772
0.598119
0.490224
0.84105
0.806081
0.778649
0.781251
0.824285
0.803583
0.803974
0.818075
0.77928
0.756987
0.816201
0.807559
0.811217
0.837228
0.804856
0.811813
0.808271
0.483988
0.803456
0.811965
0.773791
0.819454
0.814262
0.825628
0.600075
0.710192
0.573305
0.828286
0.815651
0.743406
0.811858
0.676888
0.813809
0.810698
0.811966
0.803177
0.811867
0.577125
0.686562
0.806188
0.81336
0.793719
0.801357
0.831059
0.798787
0.803048
0.643385
0.807832
0.812029
0.804311
0.812327
0.802746
0.617227
0.814348
0.812443
0.572687
0.697598
0.793207
0.828255
0.697821
0.804014
0.793673
0.812204
0.756565
0.685068
0.810507
0.795928
0.79941
0.766395
0.540996
0.820279
0.673651
0.747805
0.731246
0.803981
0.797407
0.811527
0.660369
0.767633
0.803988
0.815043
0.592791
0.798997
0.825785
0.807248
0.539554
0.805616
0.783459
0.707526
0.70626
0.800419
0.819167
0.813066
0.808728
0.699966
0.739727
0.641601
0.832351
0.842908
0.816941
0.788197
0.86523
0.697179
0.813409
0.766828
0.790272
0.795559
0.812042
0.803999
0.811664
0.787102
0.755358
0.819793
0.796839
0.842154
0.719432
0.791406
0.805536
0.723346
0.803305
0.814539
0.57619
0.801962
0.799062
0.802799
0.821229
0.764353
0.800197
0.722731
0.812217
0.808849
0.725316
0.812218
0.816261
0.828689
0.805612
0.787174
0.797752
0.805668
0.726402
0.812524
0.801276
0.677782
0.806934
0.780329
0.831922
0.820916
0.819048
0.839333
0.848379
0.699485
0.813783
0.795593
0.787345
0.617687
0.816987
0.803732
0.812299
0.776245
0.853485
0.832828
0.78185
0.842141
0.779818
0.800649
0.772036
0.81229
0.721809
0.635957
0.844226
0.661237
0.792833
0.839747
0.812506
0.671366
0.809255
0.751979
0.803998
0.799025
0.78143
0.804171
0.801173
0.802816
0.801915
0.785656
0.812098
0.781491
0.81632
0.807495
0.712928
0.783915
0.815182
0.812528
0.805508
0.564285
0.825156
0.812922
0.812117
0.703872
0.804799
0.801161
0.801417
0.815957
0.746216
0.816039
0.800648
0.804639
0.755346
0.811561
0.812765
0.805994
0.769081
0.808006
0.813047
0.808064
0.815875
0.808401
0.806082
0.822982
0.804615
0.788816
0.806315
0.812266
0.81819
0.778841
0.703671
0.813839
0.812205
0.800855
0.742603
0.788844
0.654233
0.803397
0.540559
0.803182
0.814485
0.774947
0.834629
0.51602
0.809546
0.738542
0.81056
0.534586
0.804443
0.827938
0.813392
0.818788
0.734458
0.84097
0.554027
0.823578
0.702817
0.79967
0.478666
0.67002
0.812636
0.812139
0.741877
0.801086
0.820915
0.612217
0.822039
0.770895
0.833536
0.812144
0.814219
0.813214
0.80384
0.836946
0.810744
0.803777
0.476766
0.803125
0.843522
0.802286
0.801434
0.767659
0.805511
0.81208
0.812235
0.796708
0.73441
0.810506
0.815563
0.603188
0.804188
0.538537
0.815724
0.540097
0.812083
0.770487
0.682719
0.733398
0.7831
0.713235
0.841652
0.813753
0.79695
0.803997
0.703469
0.802574
0.789522
0.802475
0.815025
0.8018
0.73125
0.698414
0.800719
0.772359
0.519289
0.811296
0.663825
0.79414
0.705286
0.825082
0.809526
0.825106
0.810254
0.837261
0.807355
0.580507
0.829306
0.807112
0.801656
0.815503
0.812075
0.812677
0.8146
0.82518
0.816457
0.618358
0.804765
0.800672
0.812979
0.692312
0.80233
0.823354
0.756467
0.688717
0.807578
0.688776
0.731799
0.810137
0.812796
0.668703
0.841508
0.767038
0.805408
0.796556
0.80989
0.844529
0.80109
0.539366
0.814964
0.707733
0.543046
0.778179
0.75827
0.769621
0.812287
0.803522
0.816441
0.81211
0.58602
0.787517
0.831371
0.812186
0.591462
0.721854
0.635361
0.816726
0.810548
0.691062
0.804004
0.812256
0.799441
0.834338
0.606489
0.84038
0.740134
0.812048
0.812559
0.669786
0.812615
0.72075
0.791881
0.716205
0.811975
0.784547
0.634159
0.724295
0.712627
0.833183
0.8095
0.819385
0.822091
0.803352
0.808543
0.802926
0.817688
0.803277
0.687519
0.803467
0.603677
0.77681
0.807196
0.802413
0.812259
0.824318
0.803332
0.717262
0.709904
0.667425
0.790377
0.81679
0.748979
0.580835
0.751598
0.810349
0.801872
0.760286
0.803676
0.823186
0.753314
0.569034
0.702367
0.798731
0.812258
0.864318
0.814709
0.811866
0.851847
0.799686
0.801874
0.814482
0.812352
0.805435
0.717808
0.809169
0.695723
0.862259
0.778772
0.813514
0.575757
0.796612
0.529506
0.583441
0.586165
0.808004
0.803639
0.809356
0.758292
0.803562
0.532647
0.782325
0.803033
0.73474
0.814414
0.801747
0.815914
0.842924
0.525409
0.812116
0.802093
0.809691
0.816759
0.812965
0.81244
0.754264
0.79727
0.798822
0.803243
0.797689
0.810812
0.845451
0.818633
0.723879
0.804703
0.609845
0.813293
0.812159
0.586865
0.766937
0.767003
0.536715
0.784369
0.803652
0.878283
0.798481
0.813188
0.75534
0.79445
0.797162
0.809321
0.782728
0.542313
0.710456
0.680567
0.781105
0.814727
0.802923
0.821859
0.790271
0.801912
0.812891
0.798197
0.852185
0.705023
0.811972
0.780731
0.531333
0.517268
0.813003
0.803559
0.805462
0.560671
0.797007
0.803756
0.659269
0.813821
0.790709
0.806658
0.814899
0.536086
0.724347
0.719079
0.812556
0.832134
0.630238
0.789867
0.716785
0.813694
0.827312
0.779489
0.773256
0.535661
0.811625
0.802416
0.723754
0.852183
0.805833
0.723028
0.739955
0.763979
0.81092
0.563661
0.796722
0.737958
0.800343
0.821959
0.719903
0.799294
0.811839
0.71662
0.813037
0.706106
0.816074
0.798324
0.759631
0.690395
0.808994
0.800024
0.81347
0.66972
0.805388
0.804955
0.811711
0.699593
0.812261
0.808492
0.831798
0.655228
0.815582
0.740858
0.812051
0.805826
0.842248
0.803699
0.818998
0.749104
0.815276
0.838841
0.832876
0.816511
0.84574
0.752306
0.847899
0.826113
0.803941
0.825791
0.805653
0.646768
0.778164
0.814023
0.746931
0.695444
0.79857
0.804187
0.681008
0.797553
0.538301
0.848603
0.696593
0.706358
0.813668
0.774544
0.806961
0.798958
0.807021
0.803902
0.812136
0.835762
0.730268
0.772231
0.588522
0.810138
0.777061
0.810962
0.80513
0.570277
0.802921
0.802538
0.8076
0.798755
0.81682
0.808174
0.709437
0.823198
0.848072
0.684573
0.743748
0.812295
0.801039
0.712657
0.81437
0.75448
0.79682
0.802929
0.805391
0.8372
0.668897
0.723064
0.800817
0.702173
0.772684
0.832201
0.532329
0.691469
0.7996
0.804304
0.803373
0.741728
0.822453
0.806992
0.803675
0.808153
0.813408
0.696204
0.649634
0.809697
0.813907
0.799357
0.871679
0.802808
0.812481
0.799066
0.810056
0.811362
0.808402
0.653385
0.814774
0.816674
0.803452
0.801987
0.799502
0.617473
0.809811
0.810633
0.812543
0.862489
0.814526
0.801516
0.48127
0.836414
0.69318
0.826462
0.805878
0.813825
0.824133
0.809225
0.812191
0.731209
0.551654
0.492409
0.812452
0.809074
0.534537
0.795598
0.814591
0.833367
0.504547
0.809618
0.813539
0.80236
0.809123
0.530811
0.81323
0.808272
0.560231
0.812336
0.815362
0.539163
0.808881
0.812781
0.775901
0.806372
0.811235
0.809638
0.799116
0.825946
0.534162
0.830291
0.815836
0.804082
0.742232
0.786267
0.811488
0.809436
0.802236
0.816027
0.800722
0.657706
0.806276
0.595824
0.812102
0.660023
0.746455
0.797023
0.718412
0.80355
0.579938
0.849779
0.812334
0.812453
0.79939
0.802748
0.803186
0.813678
0.814472
0.670259
0.718021
0.726483
0.814884
0.721696
0.579551
0.81747
0.783802
0.827941
0.811801
0.809414
0.732621
0.536398
0.798752
0.790141
0.496782
0.813958
0.813126
0.735696
0.805954
0.768603
0.607462
0.810057
0.81469
0.788733
0.609996
0.802335
0.783022
0.826424
0.813095
0.810524
0.811922
0.812955
0.715352
0.800151
0.815842
0.695291
0.481135
0.733191
0.798829
0.731001
0.813131
0.798243
0.805553
0.782625
0.867361
0.803559
0.801694
0.825847
0.85937
0.804634
0.815785
0.794442
0.81601
0.789205
0.74411
0.811946
0.80428
0.816325
0.80326
0.790918
0.842852
0.766156
0.812854
0.773463
0.803805
0.642711
0.509856
0.801012
0.802196
0.809664
0.798178
0.799757
0.812064
0.772961
0.804718
0.812143
0.782288
0.816995
0.777171
0.593654
0.80507
0.760906
0.776279
0.750591
0.763679
0.79396
0.788622
0.82308
0.787558
0.809445
0.803373
0.765243
0.815625
0.542644
0.729735
0.810666
0.814107
0.81154
0.80243
0.812952
0.810596
0.805778
0.82125
0.809711
0.78301
0.816708
0.801808
0.790584
0.79593
0.805188
0.58639
0.803645
0.792213
0.574854
0.813255
0.80726
0.806065
0.810785
0.702541
0.754824
0.821203
0.774909
0.81142
0.816432
0.721934
0.804499
0.824189
0.720228
0.799463
0.809639
0.778643
0.80482
0.837101
0.80194
0.817428
0.772619
0.805354
0.80041
0.813198
0.802237
0.798027
0.589041
0.815329
0.786841
0.806655
0.825707
0.691678
0.82863
0.820035
0.505838
0.806487
0.80447
0.801603
0.812389
0.824315
0.824145
0.804928
0.806016
0.814284
0.813411
0.803531
0.812687
0.804831
0.749342
0.708648
0.781007
0.813785
0.8122
0.775956
0.757891
0.813957
0.825008
0.810559
0.812352
0.692135
0.501264
0.747757
0.817637
0.806828
0.816349
0.844243
0.800003
0.715218
0.65461
0.79979
0.804808
0.694526
0.812797
0.671661
0.836876
0.729369
0.812966
0.895275
0.81564
0.800931
0.777843
0.811141
0.681857
0.81423
0.808335
0.791558
0.805716
0.779427
0.800776
0.810055
0.780591
0.803586
0.852115
0.777048
0.802145
0.493653
0.803258
0.69404
0.804112
0.794482
0.788603
0.783711
0.722342
0.802204
0.788283
0.844518
0.813408
0.812574
0.811918
0.895532
0.746577
0.802759
0.731118
0.803164
0.798496
0.804562
0.716981
0.801049
0.805532
0.639651
0.808767
0.748703
0.535874
0.84657
0.847391
0.750178
0.810798
0.794712
0.772136
0.732001
0.776073
0.785535
0.736346
0.803873
0.804496
0.719801
0.815423
0.804999
0.557325
0.812136
0.821556
0.813342
0.803521
0.610921
0.715359
0.806299
0.859223
0.484507
0.724731
0.806531
0.815998
0.796539
0.713086
0.711119
0.809046
0.813358
0.815122
0.837148
0.745148
0.754536
0.875777
0.806918
0.809363
0.795208
0.638324
0.599041
0.586329
0.657327
0.586862
0.764355
0.800833
0.803465
0.812393
0.809204
0.811501
0.860205
0.715828
0.823954
0.814012
0.817193
0.816746
0.81394