# vtk DataFile Version 1.0
unstructured grid
ascii
DATASET UNSTRUCTURED_GRID
points 14760 float
-1 0 0
-1 1 0
2 0 0
2 1 0
0 0 0
1 0 0
-1 1 0.1
-1 0 0.1
0 0 0.1
1 0 0.1
2 0 0.1
2 1 0.1
-0.99 0 0
-0.98 0 0
-0.97 0 0
-0.96 0 0
-0.95 0 0
-0.94 0 0
-0.93 0 0
-0.92 0 0
-0.91 0 0
-0.9 0 0
-0.89 0 0
-0.88 0 0
-0.87 0 0
-0.86 0 0
-0.85 0 0
-0.84 0 0
-0.83 0 0
-0.82 0 0
-0.81 0 0
-0.8 0 0
-0.79 0 0
-0.78 0 0
-0.77 0 0
-0.76 0 0
-0.75 0 0
-0.74 0 0
-0.73 0 0
-0.72 0 0
-0.71 0 0
-0.7 0 0
-0.69 0 0
-0.68 0 0
-0.67 0 0
-0.66 0 0
-0.65 0 0
-0.64 0 0
-0.63 0 0
-0.62 0 0
-0.61 0 0
-0.6 0 0
-0.59 0 0
-0.58 0 0
-0.57 0 0
-0.56 0 0
-0.55 0 0
-0.54 0 0
-0.53 0 0
-0.52 0 0
-0.51 0 0
-0.5 0 0
-0.49 0 0
-0.48 0 0
-0.47 0 0
-0.46 0 0
-0.45 0 0
-0.44 0 0
-0.43 0 0
-0.42 0 0
-0.41 0 0
-0.4 0 0
-0.39 0 0
-0.38 0 0
-0.37 0 0
-0.36 0 0
-0.35 0 0
-0.34 0 0
-0.33 0 0
-0.32 0 0
-0.31 0 0
-0.3 0 0
-0.29 0 0
-0.28 0 0
-0.27 0 0
-0.26 0 0
-0.25 0 0
-0.24 0 0
-0.23 0 0
-0.22 0 0
-0.21 0 0
-0.2 0 0
-0.19 0 0
-0.18 0 0
-0.17 0 0
-0.16 0 0
-0.15 0 0
-0.14 0 0
-0.13 0 0
-0.12 0 0
-0.11 0 0
-0.1 0 0
-0.09 0 0
-0.08 0 0
-0.07 0 0
-0.06 0 0
-0.05 0 0
-0.04 0 0
-0.03 0 0
-0.02 0 0
-0.01 0 0
1.01 0 0
1.02 0 0
1.03 0 0
1.04 0 0
1.05 0 0
1.06 0 0
1.07 0 0
1.08 0 0
1.09 0 0
1.1 0 0
1.11 0 0
1.12 0 0
1.13 0 0
1.14 0 0
1.15 0 0
1.16 0 0
1.17 0 0
1.18 0 0
1.19 0 0
1.2 0 0
1.21 0 0
1.22 0 0
1.23 0 0
1.24 0 0
1.25 0 0
1.26 0 0
1.27 0 0
1.28 0 0
1.29 0 0
1.3 0 0
1.31 0 0
1.32 0 0
1.33 0 0
1.34 0 0
1.35 0 0
1.36 0 0
1.37 0 0
1.38 0 0
1.39 0 0
1.4 0 0
1.41 0 0
1.42 0 0
1.43 0 0
1.44 0 0
1.45 0 0
1.46 0 0
1.47 0 0
1.48 0 0
1.49 0 0
1.5 0 0
1.51 0 0
1.52 0 0
1.53 0 0
1.54 0 0
1.55 0 0
1.56 0 0
1.57 0 0
1.58 0 0
1.59 0 0
1.6 0 0
1.61 0 0
1.62 0 0
1.63 0 0
1.64 0 0
1.65 0 0
1.66 0 0
1.67 0 0
1.68 0 0
1.69 0 0
1.7 0 0
1.71 0 0
1.72 0 0
1.73 0 0
1.74 0 0
1.75 0 0
1.76 0 0
1.77 0 0
1.78 0 0
1.79 0 0
1.8 0 0
1.81 0 0
1.82 0 0
1.83 0 0
1.84 0 0
1.85 0 0
1.86 0 0
1.87 0 0
1.88 0 0
1.89 0 0
1.9 0 0
1.91 0 0
1.92 0 0
1.93 0 0
1.94 0 0
1.95 0 0
1.96 0 0
1.97 0 0
1.98 0 0
1.99 0 0
2 0.0100088 0
2 0.0204183 0
2 0.0312446 0
2 0.0425043 0
2 0.0542147 0
2 0.066394 0
2 0.079061 0
2 0.092235 0
2 0.105936 0
2 0.120186 0
2 0.135007 0
2 0.150421 0
2 0.166452 0
2 0.183124 0
2 0.200465 0
2 0.218499 0
2 0.237256 0
2 0.256763 0
2 0.277051 0
2 0.298152 0
2 0.320097 0
2 0.342921 0
2 0.366659 0
2 0.391347 0
2 0.417024 0
2 0.443728 0
2 0.471502 0
2 0.500387 0
2 0.530429 0
2 0.561674 0
2 0.594169 0
2 0.627966 0
2 0.663115 0
2 0.699672 0
2 0.737692 0
2 0.777235 0
2 0.818361 0
2 0.861133 0
2 0.905617 0
2 0.951882 0
1.95 1 0
1.9 1 0
1.85 1 0
1.8 1 0
1.75 1 0
1.7 1 0
1.65 1 0
1.6 1 0
1.55 1 0
1.5 1 0
1.45 1 0
1.4 1 0
1.35 1 0
1.3 1 0
1.25 1 0
1.2 1 0
1.15 1 0
1.1 1 0
1.05 1 0
1 1 0
0.95 1 0
0.9 1 0
0.85 1 0
0.8 1 0
0.75 1 0
0.7 1 0
0.65 1 0
0.6 1 0
0.55 1 0
0.5 1 0
0.45 1 0
0.4 1 0
0.35 1 0
0.3 1 0
0.25 1 0
0.2 1 0
0.15 1 0
0.1 1 0
0.05 1 0
3.69793e-12 1 0
-0.05 1 0
-0.1 1 0
-0.15 1 0
-0.2 1 0
-0.25 1 0
-0.3 1 0
-0.35 1 0
-0.4 1 0
-0.45 1 0
-0.5 1 0
-0.55 1 0
-0.6 1 0
-0.65 1 0
-0.7 1 0
-0.75 1 0
-0.8 1 0
-0.85 1 0
-0.9 1 0
-0.95 1 0
-1 0.951882 0
-1 0.905617 0
-1 0.861133 0
-1 0.818361 0
-1 0.777235 0
-1 0.737692 0
-1 0.699672 0
-1 0.663115 0
-1 0.627966 0
-1 0.594169 0
-1 0.561674 0
-1 0.530429 0
-1 0.500387 0
-1 0.471502 0
-1 0.443728 0
-1 0.417024 0
-1 0.391347 0
-1 0.366659 0
-1 0.342921 0
-1 0.320097 0
-1 0.298152 0
-1 0.277051 0
-1 0.256763 0
-1 0.237256 0
-1 0.218499 0
-1 0.200465 0
-1 0.183124 0
-1 0.166452 0
-1 0.150421 0
-1 0.135007 0
-1 0.120186 0
-1 0.105936 0
-1 0.092235 0
-1 0.079061 0
-1 0.066394 0
-1 0.0542147 0
-1 0.0425043 0
-1 0.0312446 0
-1 0.0204183 0
-1 0.0100088 0
0.00921362 0.00379763 0
0.0184561 0.00752451 0
0.0277268 0.0111804 0
0.0370253 0.0147652 0
0.0463511 0.0182786 0
0.0557034 0.0217203 0
0.0650819 0.0250903 0
0.074486 0.0283883 0
0.083915 0.0316141 0
0.0933685 0.0347675 0
0.102846 0.0378484 0
0.112347 0.0408565 0
0.12187 0.0437917 0
0.131416 0.0466538 0
0.140983 0.0494427 0
0.150572 0.0521581 0
0.160181 0.0547999 0
0.16981 0.0573681 0
0.179458 0.0598623 0
0.189125 0.0622825 0
0.198811 0.0646285 0
0.208514 0.0669001 0
0.218234 0.0690974 0
0.227971 0.07122 0
0.237724 0.073268 0
0.247493 0.0752411 0
0.257276 0.0771393 0
0.267073 0.0789625 0
0.276884 0.0807105 0
0.286708 0.0823832 0
0.296545 0.0839806 0
0.306394 0.0855025 0
0.316254 0.0869488 0
0.326125 0.0883196 0
0.336006 0.0896146 0
0.345896 0.0908339 0
0.355796 0.0919773 0
0.365704 0.0930447 0
0.375621 0.0940362 0
0.385544 0.0949517 0
0.395474 0.095791 0
0.40541 0.0965542 0
0.415352 0.0972412 0
0.425299 0.097852 0
0.43525 0.0983865 0
0.445205 0.0988447 0
0.455164 0.0992266 0
0.465125 0.0995321 0
0.475088 0.0997613 0
0.485052 0.0999141 0
0.495017 0.0999904 0
0.504983 0.0999904 0
0.514948 0.0999141 0
0.524912 0.0997613 0
0.534875 0.0995321 0
0.544836 0.0992266 0
0.554795 0.0988447 0
0.56475 0.0983865 0
0.574701 0.097852 0
0.584648 0.0972412 0
0.59459 0.0965542 0
0.604526 0.095791 0
0.614456 0.0949517 0
0.624379 0.0940362 0
0.634296 0.0930447 0
0.644204 0.0919773 0
0.654104 0.0908339 0
0.663994 0.0896146 0
0.673875 0.0883196 0
0.683746 0.0869488 0
0.693606 0.0855025 0
0.703455 0.0839806 0
0.713292 0.0823832 0
0.723116 0.0807105 0
0.732927 0.0789625 0
0.742724 0.0771393 0
0.752508 0.0752411 0
0.762276 0.073268 0
0.772029 0.07122 0
0.781766 0.0690974 0
0.791486 0.0669001 0
0.801189 0.0646285 0
0.810875 0.0622825 0
0.820542 0.0598623 0
0.83019 0.0573681 0
0.839819 0.0547999 0
0.849428 0.0521581 0
0.859017 0.0494427 0
0.868584 0.0466538 0
0.87813 0.0437917 0
0.887653 0.0408565 0
0.897154 0.0378484 0
0.906631 0.0347675 0
0.916085 0.0316141 0
0.925514 0.0283883 0
0.934918 0.0250903 0
0.944297 0.0217203 0
0.953649 0.0182786 0
0.962975 0.0147652 0
0.972273 0.0111804 0
0.981544 0.00752451 0
0.990786 0.00379763 0
-1 0.951882 0.1
-1 0.905617 0.1
-1 0.861133 0.1
-1 0.818361 0.1
-1 0.777235 0.1
-1 0.737692 0.1
-1 0.699672 0.1
-1 0.663115 0.1
-1 0.627966 0.1
-1 0.594169 0.1
-1 0.561674 0.1
-1 0.530429 0.1
-1 0.500387 0.1
-1 0.471502 0.1
-1 0.443728 0.1
-1 0.417024 0.1
-1 0.391347 0.1
-1 0.366659 0.1
-1 0.342921 0.1
-1 0.320097 0.1
-1 0.298152 0.1
-1 0.277051 0.1
-1 0.256763 0.1
-1 0.237256 0.1
-1 0.218499 0.1
-1 0.200465 0.1
-1 0.183124 0.1
-1 0.166452 0.1
-1 0.150421 0.1
-1 0.135007 0.1
-1 0.120186 0.1
-1 0.105936 0.1
-1 0.092235 0.1
-1 0.079061 0.1
-1 0.066394 0.1
-1 0.0542147 0.1
-1 0.0425043 0.1
-1 0.0312446 0.1
-1 0.0204183 0.1
-1 0.0100088 0.1
-0.99 0 0.1
-0.98 0 0.1
-0.97 0 0.1
-0.96 0 0.1
-0.95 0 0.1
-0.94 0 0.1
-0.93 0 0.1
-0.92 0 0.1
-0.91 0 0.1
-0.9 0 0.1
-0.89 0 0.1
-0.88 0 0.1
-0.87 0 0.1
-0.86 0 0.1
-0.85 0 0.1
-0.84 0 0.1
-0.83 0 0.1
-0.82 0 0.1
-0.81 0 0.1
-0.8 0 0.1
-0.79 0 0.1
-0.78 0 0.1
-0.77 0 0.1
-0.76 0 0.1
-0.75 0 0.1
-0.74 0 0.1
-0.73 0 0.1
-0.72 0 0.1
-0.71 0 0.1
-0.7 0 0.1
-0.69 0 0.1
-0.68 0 0.1
-0.67 0 0.1
-0.66 0 0.1
-0.65 0 0.1
-0.64 0 0.1
-0.63 0 0.1
-0.62 0 0.1
-0.61 0 0.1
-0.6 0 0.1
-0.59 0 0.1
-0.58 0 0.1
-0.57 0 0.1
-0.56 0 0.1
-0.55 0 0.1
-0.54 0 0.1
-0.53 0 0.1
-0.52 0 0.1
-0.51 0 0.1
-0.5 0 0.1
-0.49 0 0.1
-0.48 0 0.1
-0.47 0 0.1
-0.46 0 0.1
-0.45 0 0.1
-0.44 0 0.1
-0.43 0 0.1
-0.42 0 0.1
-0.41 0 0.1
-0.4 0 0.1
-0.39 0 0.1
-0.38 0 0.1
-0.37 0 0.1
-0.36 0 0.1
-0.35 0 0.1
-0.34 0 0.1
-0.33 0 0.1
-0.32 0 0.1
-0.31 0 0.1
-0.3 0 0.1
-0.29 0 0.1
-0.28 0 0.1
-0.27 0 0.1
-0.26 0 0.1
-0.25 0 0.1
-0.24 0 0.1
-0.23 0 0.1
-0.22 0 0.1
-0.21 0 0.1
-0.2 0 0.1
-0.19 0 0.1
-0.18 0 0.1
-0.17 0 0.1
-0.16 0 0.1
-0.15 0 0.1
-0.14 0 0.1
-0.13 0 0.1
-0.12 0 0.1
-0.11 0 0.1
-0.1 0 0.1
-0.09 0 0.1
-0.08 0 0.1
-0.07 0 0.1
-0.06 0 0.1
-0.05 0 0.1
-0.04 0 0.1
-0.03 0 0.1
-0.02 0 0.1
-0.01 0 0.1
0.00921362 0.00379763 0.1
0.0184561 0.00752451 0.1
0.0277268 0.0111804 0.1
0.0370253 0.0147652 0.1
0.0463511 0.0182786 0.1
0.0557034 0.0217203 0.1
0.0650819 0.0250903 0.1
0.074486 0.0283883 0.1
0.083915 0.0316141 0.1
0.0933685 0.0347675 0.1
0.102846 0.0378484 0.1
0.112347 0.0408565 0.1
0.12187 0.0437917 0.1
0.131416 0.0466538 0.1
0.140983 0.0494427 0.1
0.150572 0.0521581 0.1
0.160181 0.0547999 0.1
0.16981 0.0573681 0.1
0.179458 0.0598623 0.1
0.189125 0.0622825 0.1
0.198811 0.0646285 0.1
0.208514 0.0669001 0.1
0.218234 0.0690974 0.1
0.227971 0.07122 0.1
0.237724 0.073268 0.1
0.247493 0.0752411 0.1
0.257276 0.0771393 0.1
0.267073 0.0789625 0.1
0.276884 0.0807105 0.1
0.286708 0.0823832 0.1
0.296545 0.0839806 0.1
0.306394 0.0855025 0.1
0.316254 0.0869488 0.1
0.326125 0.0883196 0.1
0.336006 0.0896146 0.1
0.345896 0.0908339 0.1
0.355796 0.0919773 0.1
0.365704 0.0930447 0.1
0.375621 0.0940362 0.1
0.385544 0.0949517 0.1
0.395474 0.095791 0.1
0.40541 0.0965542 0.1
0.415352 0.0972412 0.1
0.425299 0.097852 0.1
0.43525 0.0983865 0.1
0.445205 0.0988447 0.1
0.455164 0.0992266 0.1
0.465125 0.0995321 0.1
0.475088 0.0997613 0.1
0.485052 0.0999141 0.1
0.495017 0.0999904 0.1
0.504983 0.0999904 0.1
0.514948 0.0999141 0.1
0.524912 0.0997613 0.1
0.534875 0.0995321 0.1
0.544836 0.0992266 0.1
0.554795 0.0988447 0.1
0.56475 0.0983865 0.1
0.574701 0.097852 0.1
0.584648 0.0972412 0.1
0.59459 0.0965542 0.1
0.604526 0.095791 0.1
0.614456 0.0949517 0.1
0.624379 0.0940362 0.1
0.634296 0.0930447 0.1
0.644204 0.0919773 0.1
0.654104 0.0908339 0.1
0.663994 0.0896146 0.1
0.673875 0.0883196 0.1
0.683746 0.0869488 0.1
0.693606 0.0855025 0.1
0.703455 0.0839806 0.1
0.713292 0.0823832 0.1
0.723116 0.0807105 0.1
0.732927 0.0789625 0.1
0.742724 0.0771393 0.1
0.752508 0.0752411 0.1
0.762276 0.073268 0.1
0.772029 0.07122 0.1
0.781766 0.0690974 0.1
0.791486 0.0669001 0.1
0.801189 0.0646285 0.1
0.810875 0.0622825 0.1
0.820542 0.0598623 0.1
0.83019 0.0573681 0.1
0.839819 0.0547999 0.1
0.849428 0.0521581 0.1
0.859017 0.0494427 0.1
0.868584 0.0466538 0.1
0.87813 0.0437917 0.1
0.887653 0.0408565 0.1
0.897154 0.0378484 0.1
0.906631 0.0347675 0.1
0.916085 0.0316141 0.1
0.925514 0.0283883 0.1
0.934918 0.0250903 0.1
0.944297 0.0217203 0.1
0.953649 0.0182786 0.1
0.962975 0.0147652 0.1
0.972273 0.0111804 0.1
0.981544 0.00752451 0.1
0.990786 0.00379763 0.1
1.01 0 0.1
1.02 0 0.1
1.03 0 0.1
[...]
CELL_DATA 14313
SCALARS rho float
LOOKUP_TABLE default
0.781294
0.824167
0.805879
0.53742
0.766227
0.81172
0.812392
0.812277
0.810997
0.81511
0.811956
0.798864
0.796953
0.517101
0.812762
0.831835
0.808749
0.807701
0.809978
0.805336
0.810623
0.813912
0.812324
0.765967
0.811954
0.814613
0.742352
0.709796
0.823688
0.824284
0.811818
0.794465
0.799454
0.811925
0.80466
0.810575
0.679629
0.808887
0.81151
0.802339
0.752481
0.810292
0.541624
0.70191
0.817533
0.83567
0.810776
0.777384
0.804367
0.850916
0.675327
0.653137
0.58902
0.810487
0.819584
0.782631
0.817519
0.814667
0.81079
0.812232
0.811827
0.818314
0.794443
0.839159
0.810252
0.81321
0.852657
0.783865
0.840504
0.812754
0.798297
0.831397
0.486919
0.837149
0.725791
0.806866
0.824541
0.747039
0.696357
0.811295
0.591788
0.824636
0.833085
0.803466
0.805476
0.819197
0.811702
0.804444
0.826519
0.806985
0.779842
0.522368
0.807287
0.797848
0.725726
0.803827
0.814543
0.808832
0.803209
0.488537
0.806961
0.80954
0.812359
0.814167
0.748358
0.80928
0.802611
0.699476
0.83439
0.809894
0.813844
0.824793
0.811998
0.819228
0.804155
0.827332
0.819734
0.836162
0.77867
0.798683
0.81147
0.808886
0.859385
0.720614
0.843304
0.753315
0.7895
0.804443
0.814552
0.842816
0.809342
0.811853
0.860686
0.812149
0.823174
0.782596
0.806895
0.792221
0.817569
0.817224
0.812392
0.816665
0.803385
0.803428
0.796521
0.838976
0.80594
0.760642
0.795472
0.817251
0.797145
0.803529
0.812327
0.7089
0.821115
0.803715
0.723016
0.821003
0.811945
0.811847
0.818331
0.8087
0.646138
0.757431
0.823017
0.824327
0.713832
0.812547
0.82794
0.81536
0.688536
0.816209
0.712869
0.78785
0.80883
0.82601
0.808035
0.815389
0.820853
0.741456
0.811258
0.809411
0.773437
0.771851
0.790477
0.810959
0.812746
0.796972
0.496247
0.787178
0.757429
0.742637
0.770202
0.713006
0.812205
0.814838
0.807242
0.803378
0.806013
0.816722
0.760035
0.802879
0.828415
0.814765
0.83338
0.80334
0.816549
0.814212
0.811895
0.834527
0.803945
0.811122
0.795907
0.700834
0.813971
0.820594
0.809486
0.807116
0.834456
0.802852
0.802608
0.819195
0.805924
0.855279
0.809543
0.803101
0.817852
0.802463
0.812278
0.757172
0.635241
0.81504
0.697408
0.826786
0.802373
0.721125
0.811885
0.813942
0.81479
0.826183
0.791669
0.710517
0.747582
0.594824
0.814937
0.72373
0.799232
0.807085
0.837655
0.815019
0.574931
0.80403
0.728582
0.837268
0.801161
0.694596
0.811307
0.826974
0.814515
0.556745
0.813247
0.801105
0.798845
0.805966
0.788336
0.773821
0.815707
0.815523
0.529105
0.814548
0.813696
0.772109
0.802032
0.811935
0.780473
0.817196
0.782958
0.709027
0.802801
0.805815
0.567326
0.543284
0.756178
0.807886
0.820373
0.790051
0.811582
0.81474
0.776034
0.805929
0.803486
0.816613
0.829406
0.793094
0.808291
0.811478
0.631292
0.818856
0.699252
0.797198
0.793268
0.777559
0.835558
0.809318
0.796578
0.676181
0.667956
0.80356
0.805637
0.819613
0.804224
0.798329
0.652
0.815048
0.822059
0.818089
0.811958
0.812807
0.799373
0.790898
0.814104
0.569651
0.807881
0.812146
0.814348
0.812517
0.76524
0.821476
0.801497
0.814141
0.812997
0.753867
0.752391
0.803401
0.803482
0.524499
0.812371
0.811878
0.807069
0.811747
0.803303
0.800942
0.728007
0.71187
0.814319
0.748319
0.757923
0.8184
0.83742
0.814123
0.802146
0.808484
0.81219
0.803448
0.816981
0.782495
0.816912
0.811768
0.810665
0.795072
0.810375
0.792095
0.811764
0.589593
0.799518
0.800364
0.811855
0.813427
0.767553
0.801597
0.812136
0.812357
0.817965
0.770212
0.818265
0.808313
0.752469
0.76169
0.812867
0.805748
0.829128
0.824673
0.823151
0.80427
0.594013
0.77895
0.600191
0.803376
0.802917
0.800725
0.814209
0.874006
0.525921
0.593321
0.838268
0.871966
0.811792
0.690082
0.801937
0.716055
0.806786
0.81569
0.70694
0.650796
0.75107
0.812863
0.475837
0.873537
0.824323
0.798441
0.80877
0.478677
0.739589
0.781687
0.817532
0.804612
0.800522
0.830185
0.812247
0.705469
0.684831
0.80154
0.806054
0.809233
0.811516
0.808785
0.811837
0.735485
0.791165
0.797179
0.802497
0.764015
0.817606
0.807871
0.812794
0.811553
0.755058
0.805599
0.804073
0.793194
0.812069
0.815648
0.806892
0.65714
0.787441
0.817453
0.812824
0.812207
0.807346
0.812645
0.804146
0.821118
0.821471
0.613326
0.855119
0.74399
0.820555
0.804903
0.746998
0.824465
0.80089
0.825413
0.548302
0.799428
0.679036
0.811915
0.809213
0.521725
0.799905
0.804625
0.798
0.802075
0.80061
0.772212
0.811776
0.592336
0.805706
0.806085
0.799185
0.81827
0.764908
0.811911
0.809282
0.797833
0.81616
0.796453
0.802848
0.812268
0.634064
0.76924
0.733869
0.49004
0.824678
0.56806
0.802607
0.818763
0.856585
0.702884
0.739531
0.812066
0.806093
0.800884
0.79366
0.765864
0.810842
0.812334
0.797076
0.813051
0.816381
0.471697
0.8123
0.813198
0.806331
0.810029
0.604114
0.815131
0.821489
0.705443
0.788763
0.813106
0.80103
0.828126
0.831297
0.804077
0.742448
0.472927
0.813807
0.570952
0.798707
0.803323
0.774704
0.81194
0.750381
0.811235
0.806573
0.803355
0.485787
0.814204
0.827382
0.830529
0.814731
0.803474
0.803219
0.812329
0.758508
0.847302
0.836797
0.709131
0.798584
0.653323
0.77801
0.667463
0.81603
0.836049
0.798896
0.637647
0.765757
0.813609
0.824396
0.832551
0.813604
0.670119
0.537491
0.804563
0.815852
0.801289
0.815771
0.804693
0.771593
0.85108
0.815178
0.804039
0.816701
0.799001
0.744026
0.797949
0.811333
0.596469
0.689083
0.80331
0.810681
0.804802
0.574995
0.811525
0.604733
0.812338
0.767551
0.816849
0.816255
0.753535
0.806508
0.792358
0.805146
0.836822
0.837116
0.831279
0.804779
0.816075
0.579378
0.812373
0.856763
0.825057
0.829241
0.804195
0.820733
0.799288
0.839795
0.808747
0.814377
0.672475
0.630362
0.835703
0.813306
0.840649
0.715779
0.801184
0.763445
0.797165
0.809566
0.793111
0.807
0.813021
0.822649
0.828067
0.830033
0.805409
0.750127
0.804063
0.729278
0.793151
0.821477
0.800899
0.815029
0.758205
0.805057
0.804318
0.846954
0.80903
0.803408
0.805985
0.83426
0.831321
0.803585
0.856282
0.79592
0.820018
0.661411
0.803161
0.800237
0.798775
0.831679
0.60872
0.806328
0.805549
0.658449
0.814517
0.829298
0.813788
0.80338
0.806029
0.802498
0.816023
0.798848
0.720555
0.513436
0.813337
0.80559
0.801777
0.804501
0.802962
0.803679
0.810668
0.798039
0.813664
0.58319
0.812759
0.809402
0.811827
0.842326
0.813661
0.834191
0.811343
0.797607
0.812733
0.682355
0.803725
0.850168
0.812765
0.793004
0.814131
0.633842
0.805453
0.566139
0.662086
0.673275
0.809548
0.815453
0.812429
0.497053
0.69442
0.803465
0.830746
0.747303
0.831308
0.805156
0.804684
0.796682
0.694114
0.751226
0.547163
0.802756
0.811612
0.804248
0.820834
0.669806
0.620511
0.853937
0.8015
0.81398
0.728937
0.813493
0.526258
0.820789
0.703174
0.813786
0.81747
0.801661
0.80211
0.82513
0.794841
0.803598
0.803856
0.631253
0.806582
0.653051
0.798747
0.798178
0.813673
0.815323
0.729071
0.81535
0.755801
0.803153
0.721511
0.80495
0.745964
0.671442
0.824503
0.812346
0.79907
0.726304
0.81134
0.658345
0.81087
0.802913
0.728414
0.825823
0.81631
0.637321
0.695984
0.825749
0.803655
0.725559
0.83364
0.834697
0.836089
0.811702
0.548098
0.751017
0.820989
0.820277
0.520855
0.639954
0.815563
0.812406
0.721728
0.778369
0.811994
0.80703
0.757914
0.812132
0.813451
0.80357
0.728662
0.802231
0.796871
0.812044
0.576819
0.805557
0.821742
0.574179
0.818119
0.84529
0.811959
0.676556
0.811689
0.811572
0.811796
0.801158
0.818674
0.80324
0.806681
0.804852
0.80331
0.813463
0.484898
0.80985
0.80966
0.691763
0.603058
0.786076
0.798293
0.812035
0.753271
0.563837
0.811381
0.783465
0.812006
0.821461
0.813442
0.825054
0.748286
0.59017
0.811478
0.839035
0.811955
0.709512
0.803443
0.727259
0.813097
0.811032
0.811863
0.817313
0.801246
0.81302
0.80833
0.757548
0.816199
0.812582
0.751722
0.791886
0.710721
0.558247
0.733487
0.781523
0.815776
0.811269
0.810609
0.810537
0.803295
0.795344
0.808061
0.707451
0.753412
0.811536
0.803421
0.804823
0.818332
0.604039
0.813512
0.803891
0.843516
0.8078
0.636201
0.793674
0.803804
0.842443
0.69062
0.561729
0.576922
0.635165
0.817568
0.804493
0.560235
0.585237
0.819909
0.812136
0.889275
0.804801
0.829415
0.812379
0.769437
0.810753
0.812544
0.812027
0.810586
0.811959
0.797965
0.812128
0.640635
0.815678
0.803628
0.809596
0.75668
0.817111
0.610871
0.855383
0.803927
0.826969
0.811954
0.807995
0.748096
0.822213
0.811875
0.837182
0.811743
0.812468
0.64109
0.826725
0.810096
0.812334
0.836573
0.822524
0.553701
0.796411
0.802723
0.810881
0.816939
0.803936
0.800164
0.815161
0.765062
0.804908
0.815806
0.863435
0.831111
0.586646
0.796018
0.75406
0.813981
0.761469
0.819346
0.80483
0.806383
0.812186
0.789098
0.805573
0.815457
0.821812
0.787329
0.668301
0.733712
0.697735
0.814081
0.835842
0.837777
0.733427
0.808806
0.753937
0.609553
0.811981
0.799416
0.811742
0.803573
0.630723
0.802212
0.776478
0.736714
0.81071
0.74464
0.807548
0.816405
0.859714
0.809622
0.807081
0.739929
0.81244
0.775832
0.839351
0.883734
0.796969
0.520405
0.799627
0.607519
0.769251
0.657208
0.799151
0.494479
0.814944
0.849712
0.805924
0.810564
0.819655
0.802791
0.803252
0.696582
0.822892
0.811883
0.804147
0.806562
0.792424
0.803557
0.806776
0.628294
0.816477
0.801963
0.845137
0.807942
0.804362
0.801437
0.812921
0.813035
0.807498
0.803531
0.787494
0.812099
0.795245
0.801687
0.813208
0.771737
0.566972
0.812608
0.818101
0.803972
0.724659
0.801126
0.807664
0.803481
0.698158
0.87299
0.811555
0.816669
0.811983
0.847668
0.778131
0.812055
0.787588
0.815784
0.821987
0.66316
0.812092
0.728528
0.818987
0.718101
0.799422
0.751134
0.802467
0.570686
0.80915
0.735107
0.476183
0.820125
0.661758
0.769067
0.817169
0.812249
0.776502
0.811189
0.718612
0.638051
0.826116
0.698107
0.816646
0.767308
0.801592
0.807923
0.813203
0.652158
0.804307
0.774855
0.809525
0.812004
0.82894
0.806109
0.687458
0.755416
0.651269
0.798125
0.802963
0.81189
0.81535
0.811887
0.811465
0.809306
0.663377
0.731231
0.487448
0.696292
0.813824
0.808059
0.832921
0.8094
0.814631
0.710217
0.873933
0.815103
0.826136
0.571369
0.822822
0.812107
0.840634
0.845506
0.826516
0.829973
0.820121
0.540344
0.805725
0.814862
0.716099
0.816701
0.801257
0.812042
0.80793
0.81253
0.812596
0.767116
0.721328
0.797946
0.800291
0.57159
0.813946
0.858975
0.815243
0.658574
0.822433
0.813051
0.819469
0.835126
0.686858
0.48632
0.804841
0.839804
0.806058
0.803874
0.814142
0.801559
0.81241
0.809445
0.799905
0.80424
0.804679
0.812396
0.805551
0.806157
0.798531
0.836056
0.83063
0.853169
0.81282
0.807334
0.814392
0.812908
0.811995
0.810944
0.815511
0.833935
0.808596
0.811029
0.600571
0.830475
0.711071
0.868141
0.803616
0.833232
0.798995
0.786067
0.785665
0.740041
0.821106
0.810926
0.811453
0.813309
0.775807
0.8078
0.584187
0.806066
0.812918
0.813073
0.795669
0.811983
0.611
0.783469
0.558178
0.820717
0.796853
0.774498
0.80185
0.813602
0.812353
0.812388
0.737944
0.8082
0.811841
0.810312
0.803645
0.803812
0.747303
0.767234
0.809233
0.803723
0.696178
0.597796
0.489619
0.840987
0.80606
0.778552
0.781187
0.824228
0.80357
0.80396
0.817965
0.77921
0.756999
0.816084
0.807435
0.811102
0.837171
0.804822
0.811657
0.808246
0.483335
0.803439
0.811812
0.773685
0.819353
0.814136
0.825536
0.59929
0.710366
0.572888
0.828224
0.815539
0.74325
0.81182
0.676685
0.813678
0.810602
0.81181
0.803075
0.811822
0.576822
0.686294
0.806086
0.813226
0.793689
0.801238
0.830993
0.798656
0.802994
0.642827
0.807725
0.811872
0.804271
0.812182
0.802738
0.616867
0.814216
0.812298
0.572354
0.696994
0.793086
0.828112
0.697381
0.803994
0.793629
0.812054
0.756554
0.684885
0.810353
0.795892
0.799275
0.766328
0.540506
0.820184
0.67345
0.74762
0.731334
0.803967
0.797271
0.811373
0.65999
0.76754
0.803967
0.814921
0.592536
0.798866
0.825729
0.807138
0.539023
0.805592
0.783399
0.707005
0.70573
0.800393
0.81906
0.812931
0.808604
0.699379
0.739601
0.64138
0.832269
0.842855
0.816835
0.78815
0.865191
0.696705
0.813276
0.766721
0.790203
0.795518
0.811886
0.803982
0.811512
0.787077
0.755209
0.819687
0.796702
0.842087
0.719293
0.791382
0.805514
0.723213
0.803205
0.814416
0.575889
0.801942
0.798934
0.802791
0.821128
0.764236
0.800157
0.722579
0.812066
0.808825
0.72516
0.812068
0.81615
0.828601
0.80558
0.787085
0.797614
0.80561
0.726566
0.812381
0.801137
0.677487
0.806881
0.780258
0.831853
0.820843
0.818946
0.83926
0.848194
0.698997
0.813653
0.795508
0.787293
0.617473
0.816899
0.80361
0.812151
0.776122
0.853435
0.832763
0.781789
0.841974
0.779769
0.800633
0.771938
0.812143
0.721655
0.635738
0.844168
0.66091
0.792806
0.839692
0.812363
0.671095
0.809231
0.751865
0.803965
0.798998
0.781306
0.804154
0.801035
0.802791
0.80189
0.785598
0.81195
0.781395
0.816204
0.80746
0.712595
0.783825
0.815136
0.812385
0.805483
0.563964
0.825077
0.812803
0.811976
0.703327
0.804764
0.801085
0.801283
0.815839
0.746208
0.815922
0.800538
0.804551
0.755175
0.811412
0.812734
0.805891
0.768979
0.807881
0.812922
0.80804
0.815789
0.808295
0.806062
0.822885
0.804596
0.788725
0.806187
0.812118
0.818142
0.778706
0.703508
0.813711
0.81217
0.800726
0.742423
0.788795
0.654034
0.803389
0.540122
0.803166
0.814359
0.774878
0.834554
0.515067
0.809413
0.738415
0.810406
0.534165
0.804339
0.827796
0.813263
0.818679
0.734223
0.840899
0.553496
0.823503
0.702409
0.799534
0.477257
0.669824
0.812498
0.811985
0.741702
0.800957
0.820843
0.611998
0.821963
0.770914
0.833456
0.81199
0.814107
0.813081
0.803825
0.836776
0.810646
0.803756
0.47589
0.803107
0.843456
0.802222
0.801314
0.767566
0.805394
0.811931
0.812086
0.796571
0.734285
0.810379
0.815444
0.602956
0.804161
0.536407
0.815605
0.539427
0.81193
0.770367
0.682485
0.733491
0.783085
0.713003
0.841486
0.813698
0.796865
0.80397
0.703305
0.802554
0.789431
0.802441
0.814939
0.801691
0.731453
0.69784
0.800588
0.772267
0.518847
0.811147
0.663152
0.794097
0.705664
0.825004
0.809382
0.825012
0.810174
0.837147
0.807227
0.579844
0.829202
0.806984
0.801525
0.815383
0.811922
0.812544
0.814564
0.82509
0.816341
0.617997
0.804746
0.800655
0.812842
0.69215
0.80231
0.823219
0.756354
0.688542
0.807491
0.688268
0.731655
0.810024
0.812657
0.668507
0.841445
0.766922
0.80539
0.796419
0.809735
0.844465
0.801058
0.538692
0.814842
0.708314
0.518299
0.77818
0.75809
0.769509
0.812138
0.803516
0.816349
0.811952
0.585756
0.787493
0.831209
0.812036
0.591135
0.721454
0.634784
0.816611
0.810408
0.690902
0.803981
0.812114
0.799305
0.834184
0.605997
0.840308
0.740161
0.811908
0.812417
0.669083
0.812482
0.720997
0.791796
0.716529
0.81186
0.784419
0.633861
0.724139
0.712297
0.833116
0.809354
0.819279
0.821991
0.803343
0.808507
0.802794
0.817601
0.803251
0.686983
0.803431
0.603442
0.776688
0.807174
0.802292
0.81211
0.824223
0.803327
0.716857
0.710539
0.667153
0.790257
0.816696
0.749075
0.579155
0.751455
0.810192
0.801851
0.760173
0.803569
0.82312
0.753204
0.568731
0.701953
0.798595
0.812109
0.864272
0.814576
0.811712
0.851795
0.799549
0.801846
0.814357
0.812208
0.805318
0.717581
0.809142
0.695405
0.86221
0.778638
0.813382
0.573726
0.796475
0.529088
0.583175
0.584734
0.807879
0.80363
0.809235
0.758112
0.803553
0.532146
0.782192
0.802894
0.73451
0.814295
0.801611
0.815798
0.842863
0.510079
0.812007
0.80208
0.809541
0.816717
0.812828
0.812296
0.754107
0.797133
0.798785
0.803231
0.79755
0.810684
0.845274
0.818524
0.723658
0.804674
0.606837
0.81316
0.812006
0.586486
0.766826
0.766893
0.536199
0.78424
0.803638
0.878248
0.798346
0.813071
0.755168
0.79441
0.797026
0.809218
0.782663
0.541869
0.711305
0.680371
0.781035
0.814621
0.802883
0.821807
0.790222
0.801796
0.812754
0.798063
0.85213
0.704485
0.811821
0.780661
0.530837
0.515564
0.812866
0.803541
0.805438
0.560301
0.79698
0.803739
0.659073
0.813693
0.790589
0.80653
0.81478
0.532654
0.724573
0.71872
0.812418
0.831984
0.629859
0.789818
0.71712
0.813565
0.827231
0.779416
0.773127
0.535038
0.811491
0.802406
0.723619
0.851983
0.805813
0.722636
0.739824
0.763849
0.810766
0.56335
0.796693
0.737953
0.800323
0.821825
0.720263
0.799158
0.811729
0.71648
0.813001
0.705928
0.815956
0.798188
0.759667
0.689771
0.808883
0.799998
0.813337
0.669525
0.805369
0.804832
0.811558
0.699412
0.812113
0.808368
0.83173
0.648072
0.815463
0.740728
0.811902
0.805699
0.842179
0.803681
0.818891
0.749014
0.815156
0.838767
0.832793
0.816425
0.845562
0.752307
0.847717
0.825971
0.803823
0.825726
0.8056
0.646565
0.77805
0.813897
0.746779
0.695103
0.798439
0.804062
0.679704
0.79742
0.537867
0.848427
0.695987
0.706179
0.813539
0.774454
0.806873
0.798928
0.806936
0.803886
0.811997
0.835606
0.729953
0.772121
0.588134
0.809982
0.777012
0.810888
0.805112
0.569959
0.802904
0.802529
0.807467
0.79862
0.816706
0.80815
0.709907
0.823103
0.847884
0.684378
0.743592
0.812151
0.800911
0.712269
0.814265
0.754319
0.79678
0.802898
0.805359
0.837125
0.668668
0.723321
0.800799
0.701948
0.772636
0.832129
0.531905
0.691204
0.79958
0.804286
0.803363
0.741752
0.822356
0.806869
0.80366
0.808126
0.813275
0.696046
0.649106
0.809672
0.813778
0.799228
0.871432
0.802718
0.812337
0.799044
0.809937
0.81125
0.808361
0.652958
0.81474
0.816559
0.803437
0.801858
0.799367
0.617237
0.809691
0.810493
0.812401
0.862275
0.814405
0.801484
0.480505
0.836321
0.692497
0.826372
0.80576
0.813776
0.823994
0.80907
0.812049
0.730907
0.551274
0.491559
0.812312
0.808939
0.53399
0.795556
0.814471
0.833258
0.503925
0.809571
0.813412
0.802255
0.809077
0.530138
0.813098
0.808244
0.559866
0.812192
0.815242
0.538677
0.808751
0.812648
0.775822
0.806269
0.811161
0.809481
0.798986
0.825858
0.533738
0.830159
0.815799
0.804067
0.74206
0.786177
0.81134
0.809383
0.802101
0.815925
0.800703
0.656991
0.806149
0.579155
0.811946
0.659809
0.746285
0.796996
0.718252
0.803542
0.579659
0.849721
0.812187
0.812319
0.799253
0.802704
0.803181
0.813636
0.814346
0.670063
0.717634
0.726183
0.814762
0.721311
0.573326
0.817384
0.783702
0.827861
0.811676
0.809376
0.732477
0.535785
0.798717
0.790027
0.49606
0.813831
0.812992
0.735572
0.805907
0.768496
0.606961
0.809939
0.814642
0.788628
0.609744
0.802308
0.782959
0.826332
0.812959
0.810368
0.811892
0.812819
0.715766
0.800066
0.815723
0.694631
0.480407
0.732897
0.798802
0.730754
0.812996
0.798108
0.805523
0.782562
0.867317
0.803554
0.801669
0.825762
0.859318
0.804614
0.815683
0.794324
0.815893
0.789153
0.743988
0.811908
0.80426
0.816215
0.803248
0.790803
0.842784
0.766087
0.812717
0.773365
0.80372
0.642507
0.509315
0.800984
0.802162
0.809512
0.798149
0.799672
0.811907
0.772902
0.804615
0.811989
0.782192
0.816903
0.777164
0.593286
0.805044
0.760902
0.776195
0.750446
0.763665
0.793917
0.788572
0.823028
0.78751
0.809419
0.803367
0.765114
0.815506
0.542195
0.729497
0.810532
0.813988
0.811396
0.80232
0.812827
0.810519
0.80575
0.821149
0.809684
0.782945
0.816598
0.801685
0.79047
0.79589
0.805166
0.586081
0.803622
0.792168
0.574428
0.81318
0.807233
0.806045
0.810757
0.702314
0.754894
0.821101
0.774895
0.811385
0.816317
0.722256
0.80448
0.824097
0.720035
0.799424
0.809506
0.778565
0.804716
0.836957
0.801903
0.817316
0.772519
0.805336
0.800294
0.813068
0.802104
0.797889
0.588647
0.815209
0.786717
0.806633
0.825615
0.691058
0.828543
0.819962
0.50523
0.806383
0.804451
0.801467
0.812257
0.824236
0.824051
0.804908
0.805903
0.814158
0.813368
0.80352
0.812558
0.804727
0.749248
0.708183
0.780898
0.813655
0.812081
0.775856
0.757779
0.813922
0.824931
0.810518
0.812208
0.691448
0.50067
0.74778
0.817525
0.806714
0.816234
0.844186
0.799872
0.714841
0.654179
0.799655
0.80469
0.694188
0.812658
0.671111
0.836807
0.729216
0.812845
0.895252
0.815607
0.800805
0.777728
0.811097
0.681443
0.814185
0.808213
0.79151
0.805602
0.779414
0.800648
0.810029
0.780455
0.803575
0.852059
0.776997
0.802131
0.492809
0.803171
0.69388
0.804096
0.794448
0.788575
0.783611
0.722208
0.802088
0.788177
0.844451
0.813276
0.812433
0.81177
0.895509
0.746404
0.802733
0.730808
0.803157
0.798359
0.804499
0.716735
0.800922
0.805497
0.639001
0.808655
0.74857
0.533906
0.846506
0.847328
0.750017
0.810757
0.794669
0.772016
0.731721
0.775987
0.785477
0.736216
0.80385
0.804416
0.719442
0.815303
0.804976
0.556765
0.811982
0.821437
0.81324
0.803505
0.610666
0.714959
0.806271
0.859171
0.483659
0.724509
0.806456
0.815953
0.79644
0.713237
0.710652
0.809021
0.813224
0.815001
0.837073
0.745184
0.754375
0.875741
0.806863
0.809209
0.795166
0.6374
0.597362
0.58595
0.656971
0.586123
0.764189
0.800716
0.803379
0.81226
0.809123
0.811474
0.860155
0.715373
0.823861
0.813883
0.817082
0.816631
0.813812
0.812956
0.811567
0.811931