# vtk DataFile Version 1.0
unstructured grid
ascii
DATASET UNSTRUCTURED_GRID
points 14760 float
-1 0 0
-1 1 0
2 0 0
2 1 0
0 0 0
1 0 0
-1 1 0.1
-1 0 0.1
0 0 0.1
1 0 0.1
2 0 0.1
2 1 0.1
-0.99 0 0
-0.98 0 0
-0.97 0 0
-0.96 0 0
-0.95 0 0
-0.94 0 0
-0.93 0 0
-0.92 0 0
-0.91 0 0
-0.9 0 0
-0.89 0 0
-0.88 0 0
-0.87 0 0
-0.86 0 0
-0.85 0 0
-0.84 0 0
-0.83 0 0
-0.82 0 0
-0.81 0 0
-0.8 0 0
-0.79 0 0
-0.78 0 0
-0.77 0 0
-0.76 0 0
-0.75 0 0
-0.74 0 0
-0.73 0 0
-0.72 0 0
-0.71 0 0
-0.7 0 0
-0.69 0 0
-0.68 0 0
-0.67 0 0
-0.66 0 0
-0.65 0 0
-0.64 0 0
-0.63 0 0
-0.62 0 0
-0.61 0 0
-0.6 0 0
-0.59 0 0
-0.58 0 0
-0.57 0 0
-0.56 0 0
-0.55 0 0
-0.54 0 0
-0.53 0 0
-0.52 0 0
-0.51 0 0
-0.5 0 0
-0.49 0 0
-0.48 0 0
-0.47 0 0
-0.46 0 0
-0.45 0 0
-0.44 0 0
-0.43 0 0
-0.42 0 0
-0.41 0 0
-0.4 0 0
-0.39 0 0
-0.38 0 0
-0.37 0 0
-0.36 0 0
-0.35 0 0
-0.34 0 0
-0.33 0 0
-0.32 0 0
-0.31 0 0
-0.3 0 0
-0.29 0 0
-0.28 0 0
-0.27 0 0
-0.26 0 0
-0.25 0 0
-0.24 0 0
-0.23 0 0
-0.22 0 0
-0.21 0 0
-0.2 0 0
-0.19 0 0
-0.18 0 0
-0.17 0 0
-0.16 0 0
-0.15 0 0
-0.14 0 0
-0.13 0 0
-0.12 0 0
-0.11 0 0
-0.1 0 0
-0.09 0 0
-0.08 0 0
-0.07 0 0
-0.06 0 0
-0.05 0 0
-0.04 0 0
-0.03 0 0
-0.02 0 0
-0.01 0 0
1.01 0 0
1.02 0 0
1.03 0 0
1.04 0 0
1.05 0 0
1.06 0 0
1.07 0 0
1.08 0 0
1.09 0 0
1.1 0 0
1.11 0 0
1.12 0 0
1.13 0 0
1.14 0 0
1.15 0 0
1.16 0 0
1.17 0 0
1.18 0 0
1.19 0 0
1.2 0 0
1.21 0 0
1.22 0 0
1.23 0 0
1.24 0 0
1.25 0 0
1.26 0 0
1.27 0 0
1.28 0 0
1.29 0 0
1.3 0 0
1.31 0 0
1.32 0 0
1.33 0 0
1.34 0 0
1.35 0 0
1.36 0 0
1.37 0 0
1.38 0 0
1.39 0 0
1.4 0 0
1.41 0 0
1.42 0 0
1.43 0 0
1.44 0 0
1.45 0 0
1.46 0 0
1.47 0 0
1.48 0 0
1.49 0 0
1.5 0 0
1.51 0 0
1.52 0 0
1.53 0 0
1.54 0 0
1.55 0 0
1.56 0 0
1.57 0 0
1.58 0 0
1.59 0 0
1.6 0 0
1.61 0 0
1.62 0 0
1.63 0 0
1.64 0 0
1.65 0 0
1.66 0 0
1.67 0 0
1.68 0 0
1.69 0 0
1.7 0 0
1.71 0 0
1.72 0 0
1.73 0 0
1.74 0 0
1.75 0 0
1.76 0 0
1.77 0 0
1.78 0 0
1.79 0 0
1.8 0 0
1.81 0 0
1.82 0 0
1.83 0 0
1.84 0 0
1.85 0 0
1.86 0 0
1.87 0 0
1.88 0 0
1.89 0 0
1.9 0 0
1.91 0 0
1.92 0 0
1.93 0 0
1.94 0 0
1.95 0 0
1.96 0 0
1.97 0 0
1.98 0 0
1.99 0 0
2 0.0100088 0
2 0.0204183 0
2 0.0312446 0
2 0.0425043 0
2 0.0542147 0
2 0.066394 0
2 0.079061 0
2 0.092235 0
2 0.105936 0
2 0.120186 0
2 0.135007 0
2 0.150421 0
2 0.166452 0
2 0.183124 0
2 0.200465 0
2 0.218499 0
2 0.237256 0
2 0.256763 0
2 0.277051 0
2 0.298152 0
2 0.320097 0
2 0.342921 0
2 0.366659 0
2 0.391347 0
2 0.417024 0
2 0.443728 0
2 0.471502 0
2 0.500387 0
2 0.530429 0
2 0.561674 0
2 0.594169 0
2 0.627966 0
2 0.663115 0
2 0.699672 0
2 0.737692 0
2 0.777235 0
2 0.818361 0
2 0.861133 0
2 0.905617 0
2 0.951882 0
1.95 1 0
1.9 1 0
1.85 1 0
1.8 1 0
1.75 1 0
1.7 1 0
1.65 1 0
1.6 1 0
1.55 1 0
1.5 1 0
1.45 1 0
1.4 1 0
1.35 1 0
1.3 1 0
1.25 1 0
1.2 1 0
1.15 1 0
1.1 1 0
1.05 1 0
1 1 0
0.95 1 0
0.9 1 0
0.85 1 0
0.8 1 0
0.75 1 0
0.7 1 0
0.65 1 0
0.6 1 0
0.55 1 0
0.5 1 0
0.45 1 0
0.4 1 0
0.35 1 0
0.3 1 0
0.25 1 0
0.2 1 0
0.15 1 0
0.1 1 0
0.05 1 0
3.69793e-12 1 0
-0.05 1 0
-0.1 1 0
-0.15 1 0
-0.2 1 0
-0.25 1 0
-0.3 1 0
-0.35 1 0
-0.4 1 0
-0.45 1 0
-0.5 1 0
-0.55 1 0
-0.6 1 0
-0.65 1 0
-0.7 1 0
-0.75 1 0
-0.8 1 0
-0.85 1 0
-0.9 1 0
-0.95 1 0
-1 0.951882 0
-1 0.905617 0
-1 0.861133 0
-1 0.818361 0
-1 0.777235 0
-1 0.737692 0
-1 0.699672 0
-1 0.663115 0
-1 0.627966 0
-1 0.594169 0
-1 0.561674 0
-1 0.530429 0
-1 0.500387 0
-1 0.471502 0
-1 0.443728 0
-1 0.417024 0
-1 0.391347 0
-1 0.366659 0
-1 0.342921 0
-1 0.320097 0
-1 0.298152 0
-1 0.277051 0
-1 0.256763 0
-1 0.237256 0
-1 0.218499 0
-1 0.200465 0
-1 0.183124 0
-1 0.166452 0
-1 0.150421 0
-1 0.135007 0
-1 0.120186 0
-1 0.105936 0
-1 0.092235 0
-1 0.079061 0
-1 0.066394 0
-1 0.0542147 0
-1 0.0425043 0
-1 0.0312446 0
-1 0.0204183 0
-1 0.0100088 0
0.00921362 0.00379763 0
0.0184561 0.00752451 0
0.0277268 0.0111804 0
0.0370253 0.0147652 0
0.0463511 0.0182786 0
0.0557034 0.0217203 0
0.0650819 0.0250903 0
0.074486 0.0283883 0
0.083915 0.0316141 0
0.0933685 0.0347675 0
0.102846 0.0378484 0
0.112347 0.0408565 0
0.12187 0.0437917 0
0.131416 0.0466538 0
0.140983 0.0494427 0
0.150572 0.0521581 0
0.160181 0.0547999 0
0.16981 0.0573681 0
0.179458 0.0598623 0
0.189125 0.0622825 0
0.198811 0.0646285 0
0.208514 0.0669001 0
0.218234 0.0690974 0
0.227971 0.07122 0
0.237724 0.073268 0
0.247493 0.0752411 0
0.257276 0.0771393 0
0.267073 0.0789625 0
0.276884 0.0807105 0
0.286708 0.0823832 0
0.296545 0.0839806 0
0.306394 0.0855025 0
0.316254 0.0869488 0
0.326125 0.0883196 0
0.336006 0.0896146 0
0.345896 0.0908339 0
0.355796 0.0919773 0
0.365704 0.0930447 0
0.375621 0.0940362 0
0.385544 0.0949517 0
0.395474 0.095791 0
0.40541 0.0965542 0
0.415352 0.0972412 0
0.425299 0.097852 0
0.43525 0.0983865 0
0.445205 0.0988447 0
0.455164 0.0992266 0
0.465125 0.0995321 0
0.475088 0.0997613 0
0.485052 0.0999141 0
0.495017 0.0999904 0
0.504983 0.0999904 0
0.514948 0.0999141 0
0.524912 0.0997613 0
0.534875 0.0995321 0
0.544836 0.0992266 0
0.554795 0.0988447 0
0.56475 0.0983865 0
0.574701 0.097852 0
0.584648 0.0972412 0
0.59459 0.0965542 0
0.604526 0.095791 0
0.614456 0.0949517 0
0.624379 0.0940362 0
0.634296 0.0930447 0
0.644204 0.0919773 0
0.654104 0.0908339 0
0.663994 0.0896146 0
0.673875 0.0883196 0
0.683746 0.0869488 0
0.693606 0.0855025 0
0.703455 0.0839806 0
0.713292 0.0823832 0
0.723116 0.0807105 0
0.732927 0.0789625 0
0.742724 0.0771393 0
0.752508 0.0752411 0
0.762276 0.073268 0
0.772029 0.07122 0
0.781766 0.0690974 0
0.791486 0.0669001 0
0.801189 0.0646285 0
0.810875 0.0622825 0
0.820542 0.0598623 0
0.83019 0.0573681 0
0.839819 0.0547999 0
0.849428 0.0521581 0
0.859017 0.0494427 0
0.868584 0.0466538 0
0.87813 0.0437917 0
0.887653 0.0408565 0
0.897154 0.0378484 0
0.906631 0.0347675 0
0.916085 0.0316141 0
0.925514 0.0283883 0
0.934918 0.0250903 0
0.944297 0.0217203 0
0.953649 0.0182786 0
0.962975 0.0147652 0
0.972273 0.0111804 0
0.981544 0.00752451 0
0.990786 0.00379763 0
-1 0.951882 0.1
-1 0.905617 0.1
-1 0.861133 0.1
-1 0.818361 0.1
-1 0.777235 0.1
-1 0.737692 0.1
-1 0.699672 0.1
-1 0.663115 0.1
-1 0.627966 0.1
-1 0.594169 0.1
-1 0.561674 0.1
-1 0.530429 0.1
-1 0.500387 0.1
-1 0.471502 0.1
-1 0.443728 0.1
-1 0.417024 0.1
-1 0.391347 0.1
-1 0.366659 0.1
-1 0.342921 0.1
-1 0.320097 0.1
-1 0.298152 0.1
-1 0.277051 0.1
-1 0.256763 0.1
-1 0.237256 0.1
-1 0.218499 0.1
-1 0.200465 0.1
-1 0.183124 0.1
-1 0.166452 0.1
-1 0.150421 0.1
-1 0.135007 0.1
-1 0.120186 0.1
-1 0.105936 0.1
-1 0.092235 0.1
-1 0.079061 0.1
-1 0.066394 0.1
-1 0.0542147 0.1
-1 0.0425043 0.1
-1 0.0312446 0.1
-1 0.0204183 0.1
-1 0.0100088 0.1
-0.99 0 0.1
-0.98 0 0.1
-0.97 0 0.1
-0.96 0 0.1
-0.95 0 0.1
-0.94 0 0.1
-0.93 0 0.1
-0.92 0 0.1
-0.91 0 0.1
-0.9 0 0.1
-0.89 0 0.1
-0.88 0 0.1
-0.87 0 0.1
-0.86 0 0.1
-0.85 0 0.1
-0.84 0 0.1
-0.83 0 0.1
-0.82 0 0.1
-0.81 0 0.1
-0.8 0 0.1
-0.79 0 0.1
-0.78 0 0.1
-0.77 0 0.1
-0.76 0 0.1
-0.75 0 0.1
-0.74 0 0.1
-0.73 0 0.1
-0.72 0 0.1
-0.71 0 0.1
-0.7 0 0.1
-0.69 0 0.1
-0.68 0 0.1
-0.67 0 0.1
-0.66 0 0.1
-0.65 0 0.1
-0.64 0 0.1
-0.63 0 0.1
-0.62 0 0.1
-0.61 0 0.1
-0.6 0 0.1
-0.59 0 0.1
-0.58 0 0.1
-0.57 0 0.1
-0.56 0 0.1
-0.55 0 0.1
-0.54 0 0.1
-0.53 0 0.1
-0.52 0 0.1
-0.51 0 0.1
-0.5 0 0.1
-0.49 0 0.1
-0.48 0 0.1
-0.47 0 0.1
-0.46 0 0.1
-0.45 0 0.1
-0.44 0 0.1
-0.43 0 0.1
-0.42 0 0.1
-0.41 0 0.1
-0.4 0 0.1
-0.39 0 0.1
-0.38 0 0.1
-0.37 0 0.1
-0.36 0 0.1
-0.35 0 0.1
-0.34 0 0.1
-0.33 0 0.1
-0.32 0 0.1
-0.31 0 0.1
-0.3 0 0.1
-0.29 0 0.1
-0.28 0 0.1
-0.27 0 0.1
-0.26 0 0.1
-0.25 0 0.1
-0.24 0 0.1
-0.23 0 0.1
-0.22 0 0.1
-0.21 0 0.1
-0.2 0 0.1
-0.19 0 0.1
-0.18 0 0.1
-0.17 0 0.1
-0.16 0 0.1
-0.15 0 0.1
-0.14 0 0.1
-0.13 0 0.1
-0.12 0 0.1
-0.11 0 0.1
-0.1 0 0.1
-0.09 0 0.1
-0.08 0 0.1
-0.07 0 0.1
-0.06 0 0.1
-0.05 0 0.1
-0.04 0 0.1
-0.03 0 0.1
-0.02 0 0.1
-0.01 0 0.1
0.00921362 0.00379763 0.1
0.0184561 0.00752451 0.1
0.0277268 0.0111804 0.1
0.0370253 0.0147652 0.1
0.0463511 0.0182786 0.1
0.0557034 0.0217203 0.1
0.0650819 0.0250903 0.1
0.074486 0.0283883 0.1
0.083915 0.0316141 0.1
0.0933685 0.0347675 0.1
0.102846 0.0378484 0.1
0.112347 0.0408565 0.1
0.12187 0.0437917 0.1
0.131416 0.0466538 0.1
0.140983 0.0494427 0.1
0.150572 0.0521581 0.1
0.160181 0.0547999 0.1
0.16981 0.0573681 0.1
0.179458 0.0598623 0.1
0.189125 0.0622825 0.1
0.198811 0.0646285 0.1
0.208514 0.0669001 0.1
0.218234 0.0690974 0.1
0.227971 0.07122 0.1
0.237724 0.073268 0.1
0.247493 0.0752411 0.1
0.257276 0.0771393 0.1
0.267073 0.0789625 0.1
0.276884 0.0807105 0.1
0.286708 0.0823832 0.1
0.296545 0.0839806 0.1
0.306394 0.0855025 0.1
0.316254 0.0869488 0.1
0.326125 0.0883196 0.1
0.336006 0.0896146 0.1
0.345896 0.0908339 0.1
0.355796 0.0919773 0.1
0.365704 0.0930447 0.1
0.375621 0.0940362 0.1
0.385544 0.0949517 0.1
0.395474 0.095791 0.1
0.40541 0.0965542 0.1
0.415352 0.0972412 0.1
0.425299 0.097852 0.1
0.43525 0.0983865 0.1
0.445205 0.0988447 0.1
0.455164 0.0992266 0.1
0.465125 0.0995321 0.1
0.475088 0.0997613 0.1
0.485052 0.0999141 0.1
0.495017 0.0999904 0.1
0.504983 0.0999904 0.1
0.514948 0.0999141 0.1
0.524912 0.0997613 0.1
0.534875 0.0995321 0.1
0.544836 0.0992266 0.1
0.554795 0.0988447 0.1
0.56475 0.0983865 0.1
0.574701 0.097852 0.1
0.584648 0.0972412 0.1
0.59459 0.0965542 0.1
0.604526 0.095791 0.1
0.614456 0.0949517 0.1
0.624379 0.0940362 0.1
0.634296 0.0930447 0.1
0.644204 0.0919773 0.1
0.654104 0.0908339 0.1
0.663994 0.0896146 0.1
0.673875 0.0883196 0.1
0.683746 0.0869488 0.1
0.693606 0.0855025 0.1
0.703455 0.0839806 0.1
0.713292 0.0823832 0.1
0.723116 0.0807105 0.1
0.732927 0.0789625 0.1
0.742724 0.0771393 0.1
0.752508 0.0752411 0.1
0.762276 0.073268 0.1
0.772029 0.07122 0.1
0.781766 0.0690974 0.1
0.791486 0.0669001 0.1
0.801189 0.0646285 0.1
0.810875 0.0622825 0.1
0.820542 0.0598623 0.1
0.83019 0.0573681 0.1
0.839819 0.0547999 0.1
0.849428 0.0521581 0.1
0.859017 0.0494427 0.1
0.868584 0.0466538 0.1
0.87813 0.0437917 0.1
0.887653 0.0408565 0.1
0.897154 0.0378484 0.1
0.906631 0.0347675 0.1
0.916085 0.0316141 0.1
0.925514 0.0283883 0.1
0.934918 0.0250903 0.1
0.944297 0.0217203 0.1
0.953649 0.0182786 0.1
0.962975 0.0147652 0.1
0.972273 0.0111804 0.1
0.981544 0.00752451 0.1
0.990786 0.00379763 0.1
1.01 0 0.1
1.02 0 0.1
1.03 0 0.1
[...]
CELL_DATA 14313
SCALARS rho float
LOOKUP_TABLE default
0.781312
0.824179
0.805885
0.537489
0.766256
0.811747
0.812417
0.812302
0.811001
0.815119
0.811983
0.798868
0.79698
0.517233
0.812786
0.831849
0.808758
0.807706
0.810001
0.805341
0.81065
0.813919
0.812349
0.765996
0.811978
0.814622
0.742374
0.709761
0.8237
0.824299
0.811844
0.79447
0.79948
0.811949
0.804666
0.810598
0.679673
0.808895
0.811535
0.802349
0.752505
0.810318
0.541692
0.701948
0.817553
0.835681
0.8108
0.777395
0.804384
0.850949
0.675371
0.653172
0.589129
0.81051
0.819602
0.782642
0.817538
0.814675
0.810794
0.812256
0.811854
0.818333
0.794448
0.83917
0.810278
0.813233
0.852691
0.783875
0.840516
0.812777
0.798302
0.831412
0.487049
0.837162
0.72585
0.806886
0.824563
0.74706
0.696385
0.811321
0.591832
0.824651
0.833096
0.803469
0.805497
0.819215
0.811729
0.80445
0.826531
0.80699
0.779854
0.522499
0.807296
0.797875
0.725785
0.803829
0.814564
0.808857
0.803217
0.488665
0.806979
0.809564
0.812383
0.814181
0.748382
0.809287
0.802621
0.699503
0.834403
0.809917
0.813849
0.82481
0.81202
0.819246
0.804159
0.827347
0.819752
0.836174
0.778682
0.798708
0.811494
0.808911
0.859393
0.720672
0.843331
0.753345
0.789519
0.804449
0.814573
0.842843
0.809366
0.811878
0.860694
0.812174
0.823191
0.782607
0.806917
0.792228
0.817589
0.817244
0.812417
0.816683
0.803386
0.80343
0.796528
0.838989
0.805943
0.760658
0.795488
0.817271
0.797172
0.803531
0.812351
0.708936
0.821131
0.803717
0.72304
0.821021
0.811969
0.811854
0.81835
0.808707
0.646354
0.757449
0.823035
0.824349
0.713878
0.81257
0.827956
0.815381
0.688577
0.816214
0.712898
0.78787
0.808851
0.826032
0.808057
0.815403
0.820871
0.741493
0.811284
0.809435
0.773455
0.771846
0.790484
0.810983
0.81277
0.796978
0.496348
0.787195
0.757455
0.742673
0.77021
0.713084
0.812229
0.814858
0.807251
0.803382
0.806035
0.816742
0.760058
0.802888
0.828431
0.814787
0.833394
0.803342
0.816555
0.814218
0.81192
0.834538
0.803964
0.811139
0.795923
0.700861
0.813993
0.82062
0.809511
0.807136
0.834469
0.802867
0.802617
0.819203
0.805947
0.855289
0.80956
0.803109
0.817872
0.802469
0.812302
0.757195
0.635441
0.815048
0.697435
0.826802
0.802379
0.721184
0.811907
0.813964
0.81481
0.826205
0.791676
0.710462
0.747615
0.594945
0.814958
0.723754
0.799259
0.807092
0.837667
0.81504
0.57499
0.804035
0.728615
0.837282
0.801181
0.694635
0.811325
0.826989
0.814536
0.556835
0.813252
0.801125
0.798866
0.805985
0.788353
0.773839
0.815713
0.815528
0.529221
0.81457
0.813718
0.772121
0.802037
0.811961
0.780483
0.817214
0.782981
0.709071
0.802807
0.805818
0.567388
0.54335
0.756205
0.807909
0.820391
0.790059
0.811608
0.814761
0.776045
0.805937
0.80349
0.816633
0.829422
0.793113
0.808294
0.8115
0.631409
0.818868
0.699354
0.797225
0.793274
0.777567
0.835571
0.809324
0.796606
0.676236
0.668015
0.803576
0.805657
0.819621
0.804227
0.798356
0.652035
0.815068
0.82207
0.818097
0.811984
0.812829
0.799399
0.790913
0.814126
0.569976
0.807904
0.812171
0.81437
0.81254
0.765263
0.821492
0.801508
0.814163
0.813018
0.753871
0.752417
0.803402
0.803483
0.527685
0.812396
0.811898
0.807088
0.811769
0.803316
0.800945
0.72804
0.711899
0.814341
0.74834
0.757949
0.818426
0.837434
0.814145
0.802166
0.808487
0.812215
0.803451
0.817001
0.782518
0.816932
0.811775
0.810689
0.795088
0.810398
0.792114
0.81179
0.589637
0.799537
0.800382
0.811877
0.81344
0.767574
0.801601
0.812161
0.812382
0.817985
0.770221
0.818274
0.80833
0.752502
0.761697
0.812872
0.805769
0.829144
0.82469
0.823163
0.804288
0.594132
0.778972
0.600264
0.803379
0.802922
0.800747
0.814231
0.874013
0.525999
0.593405
0.83828
0.871974
0.811814
0.690111
0.801961
0.716128
0.806806
0.815708
0.706966
0.650835
0.751095
0.812885
0.47604
0.873544
0.82434
0.798461
0.808778
0.478811
0.739634
0.781705
0.817552
0.804632
0.800543
0.8302
0.812272
0.705514
0.684878
0.80155
0.806063
0.809259
0.811542
0.80879
0.811863
0.735517
0.791172
0.797184
0.802506
0.764037
0.817626
0.807876
0.812818
0.811579
0.755091
0.805602
0.804075
0.793214
0.812094
0.815666
0.806911
0.657191
0.787449
0.817469
0.812829
0.812227
0.807353
0.812667
0.804172
0.821134
0.821487
0.614534
0.855129
0.744011
0.820573
0.804921
0.74698
0.824476
0.800893
0.825429
0.548366
0.799455
0.679084
0.811941
0.80922
0.521845
0.799922
0.804631
0.798005
0.80208
0.800631
0.772231
0.811802
0.592418
0.805715
0.806092
0.799204
0.818288
0.764929
0.811937
0.809306
0.79786
0.81618
0.79648
0.802852
0.812293
0.634102
0.76926
0.733903
0.490147
0.824695
0.568126
0.802611
0.818782
0.856595
0.702966
0.739577
0.812091
0.8061
0.800904
0.79368
0.76589
0.810866
0.812359
0.797093
0.813074
0.816395
0.471898
0.812324
0.813221
0.806335
0.810056
0.604186
0.815151
0.821507
0.705532
0.788771
0.813129
0.801034
0.828154
0.831309
0.80408
0.742446
0.473062
0.813829
0.571008
0.798732
0.803324
0.774701
0.811966
0.750404
0.811261
0.806578
0.803357
0.485897
0.814226
0.827397
0.830545
0.814745
0.803477
0.803221
0.812353
0.758515
0.847313
0.836828
0.709211
0.798609
0.653358
0.778021
0.667503
0.816047
0.836082
0.798923
0.637728
0.765783
0.813632
0.824412
0.832564
0.813618
0.67026
0.537567
0.804582
0.815872
0.801308
0.815792
0.804709
0.771605
0.851112
0.815198
0.804041
0.81672
0.799005
0.744021
0.797976
0.811353
0.596525
0.689111
0.803313
0.810707
0.804806
0.575047
0.811549
0.604775
0.812362
0.767565
0.816865
0.816275
0.753533
0.806528
0.792376
0.805148
0.836847
0.837148
0.83129
0.804782
0.816096
0.579447
0.812397
0.856773
0.825069
0.829256
0.804199
0.820751
0.799308
0.839805
0.808754
0.814383
0.672552
0.630477
0.835717
0.813329
0.840659
0.715831
0.801204
0.763461
0.797191
0.809573
0.793129
0.80702
0.813044
0.822667
0.828082
0.830049
0.805413
0.750129
0.804082
0.729337
0.793173
0.821493
0.800915
0.815037
0.758228
0.80506
0.804338
0.846965
0.809051
0.803409
0.806003
0.834274
0.831334
0.803587
0.856292
0.795937
0.820036
0.661527
0.803163
0.800241
0.798802
0.831694
0.608761
0.806332
0.805552
0.658501
0.814539
0.829313
0.81381
0.803382
0.806037
0.802502
0.816043
0.798874
0.72051
0.513519
0.81336
0.80561
0.801791
0.80451
0.802977
0.803682
0.810691
0.798066
0.813686
0.583241
0.812781
0.809406
0.811852
0.842337
0.813684
0.834207
0.81137
0.797633
0.812756
0.682384
0.803728
0.850204
0.812789
0.79301
0.814153
0.633881
0.805462
0.566336
0.662219
0.673352
0.809552
0.815473
0.812434
0.497154
0.694448
0.803468
0.830761
0.747324
0.831337
0.805159
0.80471
0.796703
0.694338
0.751255
0.547252
0.802763
0.811638
0.804268
0.820847
0.669838
0.621577
0.853971
0.80152
0.814002
0.728997
0.813516
0.526336
0.820806
0.703231
0.813809
0.817489
0.801671
0.802123
0.825147
0.794857
0.803602
0.803876
0.631293
0.806588
0.65312
0.798773
0.798205
0.813696
0.815329
0.729096
0.815369
0.755789
0.803156
0.721448
0.80497
0.745947
0.671473
0.824519
0.812371
0.799096
0.72634
0.811357
0.658382
0.810892
0.802918
0.728372
0.825839
0.81633
0.637432
0.696012
0.825766
0.803656
0.725596
0.833654
0.834711
0.836103
0.811729
0.548163
0.751038
0.821002
0.820295
0.521054
0.639991
0.81558
0.812431
0.721793
0.77838
0.81202
0.807048
0.75794
0.812156
0.813474
0.803572
0.728716
0.802235
0.796891
0.812064
0.576885
0.80556
0.82176
0.57423
0.818138
0.845324
0.811985
0.676586
0.811715
0.811596
0.811822
0.801161
0.818693
0.803245
0.806685
0.804855
0.803311
0.813485
0.485133
0.80987
0.809675
0.691852
0.603138
0.786086
0.79832
0.812061
0.753269
0.564163
0.811406
0.783486
0.812032
0.821478
0.813465
0.825071
0.748307
0.590282
0.811505
0.839053
0.811981
0.709432
0.803461
0.727286
0.81312
0.811053
0.81189
0.817332
0.801251
0.813044
0.808337
0.757545
0.816218
0.812606
0.751748
0.791893
0.710779
0.558445
0.733526
0.781544
0.815795
0.811294
0.810629
0.810559
0.803296
0.795363
0.808065
0.707372
0.753406
0.811562
0.803425
0.804827
0.81834
0.60412
0.813535
0.803893
0.843526
0.807823
0.636281
0.793681
0.80381
0.842453
0.690709
0.561814
0.576977
0.635203
0.817586
0.804498
0.560327
0.58536
0.819928
0.812161
0.88928
0.804804
0.829426
0.812404
0.769435
0.810777
0.812568
0.812053
0.81061
0.811986
0.79799
0.812149
0.640859
0.815699
0.80363
0.809616
0.75667
0.817131
0.610908
0.855418
0.803929
0.826984
0.811981
0.807999
0.748081
0.822241
0.811897
0.837199
0.811769
0.812491
0.641186
0.82674
0.810123
0.812358
0.836584
0.822542
0.553764
0.796439
0.802744
0.810907
0.816946
0.803938
0.80018
0.815182
0.765082
0.804927
0.815827
0.863442
0.831126
0.586754
0.796037
0.754079
0.814003
0.761489
0.819364
0.804835
0.806386
0.812211
0.789113
0.805591
0.815463
0.821824
0.787337
0.668443
0.733758
0.697835
0.814102
0.835872
0.837803
0.733473
0.808828
0.753931
0.609622
0.812007
0.799436
0.811768
0.803575
0.630814
0.802216
0.776491
0.736703
0.810736
0.744632
0.807567
0.816424
0.859723
0.809628
0.807086
0.739951
0.812464
0.775849
0.839364
0.88374
0.796996
0.520483
0.799651
0.607587
0.769268
0.657243
0.799155
0.494606
0.814965
0.849748
0.805928
0.810591
0.819674
0.802817
0.803253
0.696622
0.822919
0.811908
0.804149
0.806582
0.792431
0.803559
0.806795
0.628384
0.816498
0.801984
0.845171
0.807964
0.804367
0.801457
0.812943
0.813057
0.80752
0.803532
0.787512
0.812125
0.79526
0.801711
0.813231
0.771759
0.567033
0.812632
0.81812
0.803977
0.724604
0.801152
0.807682
0.803482
0.698239
0.873037
0.811581
0.816688
0.812009
0.847698
0.778149
0.812081
0.787606
0.815803
0.822004
0.663195
0.812117
0.728554
0.818995
0.718176
0.799449
0.751163
0.802485
0.573572
0.809175
0.735076
0.476309
0.820138
0.661793
0.769066
0.817189
0.812274
0.776521
0.811214
0.718687
0.638087
0.826132
0.698293
0.816666
0.767332
0.801602
0.807927
0.813226
0.652193
0.804313
0.774852
0.809551
0.812026
0.828968
0.806112
0.687499
0.755435
0.651338
0.798152
0.802989
0.811917
0.815369
0.811894
0.811491
0.809332
0.663417
0.731256
0.487745
0.696369
0.813846
0.808079
0.832936
0.809407
0.814652
0.710132
0.873981
0.815124
0.826153
0.571441
0.82284
0.812133
0.840647
0.845517
0.826528
0.829996
0.820139
0.54042
0.805729
0.814881
0.716039
0.816721
0.801283
0.812067
0.807937
0.812553
0.812619
0.767144
0.72127
0.797972
0.800306
0.571662
0.813969
0.858985
0.815264
0.658712
0.822454
0.813074
0.819488
0.835157
0.687247
0.486435
0.804844
0.839816
0.806062
0.803887
0.814164
0.801563
0.812415
0.80947
0.799923
0.804243
0.804682
0.81242
0.805554
0.806162
0.798557
0.836073
0.830645
0.85318
0.812843
0.807356
0.814413
0.812931
0.812021
0.810969
0.81553
0.833946
0.8086
0.811053
0.60071
0.83049
0.710888
0.868149
0.803619
0.833243
0.799021
0.786076
0.785685
0.740028
0.821127
0.810932
0.811479
0.813332
0.77582
0.807823
0.584239
0.80607
0.812941
0.813096
0.795675
0.812008
0.611039
0.783479
0.558235
0.820734
0.79688
0.774515
0.801874
0.813624
0.812378
0.812412
0.737917
0.808222
0.811867
0.810333
0.803648
0.803815
0.74729
0.767262
0.80925
0.803725
0.69628
0.597853
0.489724
0.840999
0.806063
0.77857
0.781197
0.824238
0.803572
0.803962
0.817985
0.779221
0.756996
0.816104
0.807454
0.811119
0.837181
0.804827
0.811684
0.80825
0.483448
0.803442
0.811838
0.773704
0.819371
0.814158
0.825553
0.599425
0.71034
0.57296
0.828235
0.815558
0.743277
0.811826
0.676721
0.813704
0.810616
0.811837
0.80309
0.81183
0.576875
0.686341
0.806104
0.81325
0.793693
0.801259
0.831005
0.798683
0.803003
0.642924
0.807744
0.811899
0.804277
0.812207
0.802739
0.61693
0.814242
0.812323
0.572412
0.697097
0.793107
0.828134
0.697457
0.803997
0.793636
0.81208
0.756555
0.684918
0.810379
0.795897
0.799298
0.766339
0.540592
0.820201
0.673485
0.74765
0.731314
0.80397
0.797297
0.811399
0.660056
0.767555
0.80397
0.814942
0.592581
0.798892
0.825738
0.807158
0.539115
0.805596
0.783409
0.707094
0.70582
0.800397
0.819079
0.812954
0.808626
0.699479
0.739624
0.641419
0.832284
0.842865
0.816853
0.788157
0.865198
0.696787
0.813299
0.766739
0.790217
0.795524
0.811913
0.803985
0.811538
0.787081
0.755233
0.819706
0.796729
0.842099
0.719318
0.791386
0.805518
0.723236
0.80322
0.814438
0.575942
0.801945
0.79896
0.802793
0.821146
0.764255
0.800163
0.722606
0.812092
0.808828
0.725188
0.812093
0.816169
0.828617
0.805585
0.787101
0.79764
0.805619
0.726534
0.812406
0.801162
0.677538
0.806889
0.780269
0.831866
0.820856
0.818964
0.839273
0.848224
0.699081
0.813676
0.795523
0.787301
0.617511
0.816915
0.803632
0.812176
0.776144
0.853445
0.832775
0.781798
0.842006
0.779778
0.800635
0.771954
0.812168
0.721682
0.635776
0.844178
0.660967
0.79281
0.839702
0.812388
0.671142
0.809234
0.751885
0.80397
0.799002
0.781328
0.804156
0.801059
0.802795
0.801893
0.785607
0.811975
0.781413
0.816224
0.807465
0.712653
0.783841
0.815144
0.81241
0.805487
0.56402
0.82509
0.812824
0.812
0.70342
0.804769
0.801097
0.801305
0.81586
0.746209
0.815943
0.800558
0.804567
0.755206
0.811437
0.812739
0.805907
0.768995
0.807901
0.812944
0.808044
0.815805
0.808313
0.806065
0.822902
0.804599
0.788741
0.80621
0.812144
0.81815
0.77873
0.703537
0.813734
0.812176
0.800752
0.742452
0.788803
0.654069
0.803391
0.540198
0.803169
0.814381
0.77489
0.834568
0.515229
0.809436
0.738437
0.810432
0.534238
0.804354
0.827818
0.813285
0.818699
0.734262
0.840912
0.553588
0.823516
0.702477
0.79956
0.477487
0.669859
0.812522
0.812011
0.741733
0.800983
0.820854
0.612037
0.821977
0.77091
0.83347
0.812016
0.814124
0.813104
0.803827
0.836803
0.81066
0.803759
0.476039
0.80311
0.843468
0.802233
0.801335
0.767581
0.805412
0.811956
0.812111
0.796599
0.734307
0.810401
0.815465
0.602997
0.804165
0.53676
0.815626
0.539543
0.811956
0.770388
0.682526
0.733471
0.783087
0.713044
0.841519
0.813707
0.79688
0.803974
0.703334
0.802557
0.789448
0.802447
0.814954
0.80171
0.731417
0.697937
0.800609
0.772282
0.518924
0.811172
0.663268
0.794103
0.705597
0.825019
0.809407
0.825029
0.810188
0.837165
0.807253
0.579958
0.829218
0.80701
0.801547
0.815404
0.811948
0.812567
0.81457
0.825107
0.816362
0.61806
0.804749
0.800658
0.812866
0.692179
0.802313
0.82324
0.756374
0.688573
0.807507
0.688356
0.73168
0.810041
0.812681
0.668541
0.841457
0.766941
0.805393
0.796446
0.809762
0.844476
0.801063
0.538808
0.814863
0.708209
0.522794
0.778179
0.758122
0.769529
0.812164
0.803517
0.816365
0.811979
0.585802
0.787496
0.831235
0.812061
0.591192
0.721521
0.634884
0.816631
0.810432
0.69093
0.803985
0.812139
0.799329
0.834208
0.606082
0.840321
0.740155
0.811932
0.812441
0.669204
0.812505
0.720949
0.791811
0.716473
0.811877
0.784442
0.633913
0.724166
0.712355
0.833128
0.809379
0.819298
0.822009
0.803345
0.808513
0.802816
0.817616
0.803255
0.687075
0.803436
0.603483
0.77671
0.807177
0.802311
0.812136
0.82424
0.803328
0.716925
0.710439
0.667201
0.790278
0.81671
0.749057
0.579441
0.751481
0.810219
0.801854
0.760193
0.803585
0.823132
0.753224
0.568784
0.702023
0.798618
0.812135
0.86428
0.814597
0.811738
0.851805
0.799573
0.80185
0.814378
0.812233
0.805339
0.717621
0.809146
0.695461
0.862219
0.778662
0.813405
0.574071
0.796503
0.529161
0.583221
0.584978
0.807901
0.803632
0.809256
0.758143
0.803555
0.532233
0.782215
0.802918
0.73455
0.814316
0.801637
0.815818
0.842874
0.512283
0.812026
0.802082
0.809567
0.816724
0.812852
0.81232
0.754135
0.797159
0.798791
0.803233
0.797576
0.810707
0.845303
0.818543
0.723697
0.804679
0.607353
0.813183
0.812032
0.586552
0.766844
0.76691
0.536289
0.784263
0.80364
0.878254
0.798372
0.813091
0.755199
0.794416
0.797053
0.809234
0.782674
0.541947
0.71114
0.680406
0.781046
0.814639
0.80289
0.821815
0.79023
0.801817
0.812777
0.798089
0.85214
0.704577
0.811846
0.780672
0.530923
0.515846
0.81289
0.803544
0.805442
0.560365
0.796984
0.803742
0.659107
0.813715
0.79061
0.806556
0.814801
0.533222
0.724531
0.718782
0.812442
0.832008
0.629925
0.789826
0.717056
0.813588
0.827246
0.779428
0.77315
0.535146
0.811514
0.802408
0.723643
0.852017
0.805816
0.722702
0.739848
0.763871
0.810792
0.563405
0.796698
0.737952
0.800326
0.821845
0.7202
0.799184
0.811749
0.716505
0.813007
0.70596
0.815977
0.798214
0.759659
0.689878
0.808903
0.800002
0.81336
0.669559
0.805372
0.804854
0.811584
0.699444
0.812138
0.808387
0.831742
0.649322
0.815484
0.740751
0.811927
0.805719
0.842191
0.803684
0.81891
0.749028
0.815177
0.838781
0.832807
0.81644
0.845591
0.752306
0.847751
0.825999
0.803841
0.825738
0.805609
0.646601
0.77807
0.813919
0.746804
0.695162
0.798465
0.804082
0.679927
0.797447
0.537943
0.848455
0.69609
0.706211
0.813562
0.774469
0.806889
0.798932
0.806951
0.803888
0.812021
0.835631
0.730006
0.772141
0.588201
0.810009
0.77702
0.810901
0.805115
0.570014
0.802907
0.802531
0.80749
0.798643
0.816726
0.808153
0.709833
0.82312
0.847919
0.684413
0.743619
0.812176
0.800937
0.712336
0.81428
0.754345
0.796787
0.802904
0.805364
0.837138
0.668708
0.723273
0.800801
0.701987
0.772643
0.832141
0.531979
0.691251
0.799583
0.804288
0.803365
0.741746
0.822374
0.806891
0.803663
0.80813
0.813298
0.696074
0.649197
0.809676
0.813801
0.799249
0.871478
0.802732
0.812362
0.799048
0.809958
0.811273
0.808368
0.653032
0.814745
0.816579
0.803439
0.801884
0.79939
0.617278
0.809712
0.810517
0.812425
0.862318
0.814427
0.801489
0.480637
0.836336
0.692613
0.826388
0.805778
0.813784
0.824022
0.809096
0.812074
0.730959
0.55134
0.491704
0.812336
0.808962
0.534085
0.795563
0.814492
0.833275
0.504033
0.809579
0.813434
0.802271
0.809084
0.530254
0.813121
0.808248
0.55993
0.812217
0.815263
0.538761
0.808772
0.812671
0.775834
0.806285
0.811175
0.809507
0.799007
0.825874
0.533812
0.830179
0.815805
0.804069
0.74209
0.786194
0.811365
0.809392
0.802126
0.815943
0.800705
0.657114
0.806171
0.581872
0.811972
0.659847
0.746313
0.797
0.718281
0.803543
0.579708
0.849732
0.812212
0.812342
0.799278
0.802711
0.803182
0.813643
0.814368
0.670097
0.717698
0.726233
0.814783
0.721376
0.57439
0.8174
0.78372
0.827876
0.811698
0.809382
0.732502
0.535891
0.798722
0.790048
0.496185
0.813853
0.813015
0.735594
0.805914
0.768515
0.607048
0.80996
0.81465
0.788647
0.609788
0.802312
0.782969
0.826349
0.812983
0.810395
0.811897
0.812842
0.715695
0.800082
0.815744
0.694742
0.480533
0.732948
0.798807
0.730795
0.81302
0.798135
0.805527
0.782572
0.867325
0.803555
0.801673
0.825777
0.859327
0.804617
0.815701
0.794345
0.815914
0.789162
0.744007
0.811914
0.804263
0.816234
0.80325
0.790823
0.842796
0.766098
0.81274
0.773383
0.803733
0.642543
0.509409
0.800988
0.802168
0.809538
0.798153
0.799688
0.811933
0.772911
0.80463
0.812015
0.78221
0.816919
0.777164
0.59335
0.805047
0.760901
0.776208
0.75047
0.763666
0.793924
0.78858
0.823037
0.787517
0.809423
0.803368
0.765137
0.815527
0.542273
0.729539
0.810555
0.814008
0.811421
0.80234
0.812849
0.810533
0.805754
0.821167
0.809688
0.782955
0.816617
0.801705
0.79049
0.795896
0.805169
0.586135
0.803626
0.792175
0.574502
0.813194
0.807237
0.806048
0.810761
0.702354
0.75488
0.821119
0.774896
0.811391
0.816338
0.722199
0.804483
0.824113
0.720069
0.79943
0.809529
0.778578
0.804735
0.836979
0.801908
0.817336
0.772537
0.805339
0.800313
0.81309
0.802126
0.797914
0.588716
0.81523
0.786739
0.806636
0.825632
0.691164
0.828559
0.819975
0.505335
0.806399
0.804454
0.801492
0.81228
0.82425
0.824068
0.804911
0.805923
0.81418
0.813375
0.803522
0.812581
0.804743
0.749263
0.708263
0.780917
0.813677
0.812102
0.775874
0.757799
0.813928
0.824944
0.810525
0.812232
0.691565
0.500773
0.747775
0.817545
0.806731
0.816255
0.844197
0.799893
0.714907
0.654254
0.799681
0.804708
0.694247
0.812682
0.671206
0.83682
0.729243
0.812866
0.895256
0.815612
0.800825
0.777748
0.811104
0.681515
0.814192
0.808234
0.791518
0.805622
0.779415
0.800669
0.810033
0.780479
0.803577
0.852069
0.777005
0.802133
0.492952
0.803184
0.693908
0.804099
0.794453
0.788579
0.783629
0.722232
0.802109
0.788196
0.844463
0.813298
0.812457
0.811796
0.895514
0.746432
0.802737
0.73086
0.803158
0.798385
0.804509
0.716778
0.800942
0.805502
0.639113
0.808674
0.748593
0.534232
0.846518
0.847339
0.750046
0.810764
0.794676
0.772037
0.73177
0.776001
0.785489
0.736239
0.803854
0.804428
0.719504
0.815324
0.80498
0.556862
0.812008
0.821455
0.813258
0.803508
0.610711
0.715029
0.806275
0.859181
0.483804
0.724548
0.806469
0.815961
0.796458
0.713211
0.710733
0.809025
0.813248
0.815022
0.837087
0.745176
0.754401
0.875748
0.806872
0.809235
0.795173
0.637559
0.597649
0.586016
0.657033
0.58625
0.764219
0.800737
0.803392
0.812283
0.809138
0.811478
0.860164
0.71545
0.823877
0.813906
0.817102
0.816651
0.813834
0.812979
0.81159