# vtk DataFile Version 1.0
unstructured grid
ascii
DATASET UNSTRUCTURED_GRID
points 14760 float
-1 0 0
-1 1 0
2 0 0
2 1 0
0 0 0
1 0 0
-1 1 0.1
-1 0 0.1
0 0 0.1
1 0 0.1
2 0 0.1
2 1 0.1
-0.99 0 0
-0.98 0 0
-0.97 0 0
-0.96 0 0
-0.95 0 0
-0.94 0 0
-0.93 0 0
-0.92 0 0
-0.91 0 0
-0.9 0 0
-0.89 0 0
-0.88 0 0
-0.87 0 0
-0.86 0 0
-0.85 0 0
-0.84 0 0
-0.83 0 0
-0.82 0 0
-0.81 0 0
-0.8 0 0
-0.79 0 0
-0.78 0 0
-0.77 0 0
-0.76 0 0
-0.75 0 0
-0.74 0 0
-0.73 0 0
-0.72 0 0
-0.71 0 0
-0.7 0 0
-0.69 0 0
-0.68 0 0
-0.67 0 0
-0.66 0 0
-0.65 0 0
-0.64 0 0
-0.63 0 0
-0.62 0 0
-0.61 0 0
-0.6 0 0
-0.59 0 0
-0.58 0 0
-0.57 0 0
-0.56 0 0
-0.55 0 0
-0.54 0 0
-0.53 0 0
-0.52 0 0
-0.51 0 0
-0.5 0 0
-0.49 0 0
-0.48 0 0
-0.47 0 0
-0.46 0 0
-0.45 0 0
-0.44 0 0
-0.43 0 0
-0.42 0 0
-0.41 0 0
-0.4 0 0
-0.39 0 0
-0.38 0 0
-0.37 0 0
-0.36 0 0
-0.35 0 0
-0.34 0 0
-0.33 0 0
-0.32 0 0
-0.31 0 0
-0.3 0 0
-0.29 0 0
-0.28 0 0
-0.27 0 0
-0.26 0 0
-0.25 0 0
-0.24 0 0
-0.23 0 0
-0.22 0 0
-0.21 0 0
-0.2 0 0
-0.19 0 0
-0.18 0 0
-0.17 0 0
-0.16 0 0
-0.15 0 0
-0.14 0 0
-0.13 0 0
-0.12 0 0
-0.11 0 0
-0.1 0 0
-0.09 0 0
-0.08 0 0
-0.07 0 0
-0.06 0 0
-0.05 0 0
-0.04 0 0
-0.03 0 0
-0.02 0 0
-0.01 0 0
1.01 0 0
1.02 0 0
1.03 0 0
1.04 0 0
1.05 0 0
1.06 0 0
1.07 0 0
1.08 0 0
1.09 0 0
1.1 0 0
1.11 0 0
1.12 0 0
1.13 0 0
1.14 0 0
1.15 0 0
1.16 0 0
1.17 0 0
1.18 0 0
1.19 0 0
1.2 0 0
1.21 0 0
1.22 0 0
1.23 0 0
1.24 0 0
1.25 0 0
1.26 0 0
1.27 0 0
1.28 0 0
1.29 0 0
1.3 0 0
1.31 0 0
1.32 0 0
1.33 0 0
1.34 0 0
1.35 0 0
1.36 0 0
1.37 0 0
1.38 0 0
1.39 0 0
1.4 0 0
1.41 0 0
1.42 0 0
1.43 0 0
1.44 0 0
1.45 0 0
1.46 0 0
1.47 0 0
1.48 0 0
1.49 0 0
1.5 0 0
1.51 0 0
1.52 0 0
1.53 0 0
1.54 0 0
1.55 0 0
1.56 0 0
1.57 0 0
1.58 0 0
1.59 0 0
1.6 0 0
1.61 0 0
1.62 0 0
1.63 0 0
1.64 0 0
1.65 0 0
1.66 0 0
1.67 0 0
1.68 0 0
1.69 0 0
1.7 0 0
1.71 0 0
1.72 0 0
1.73 0 0
1.74 0 0
1.75 0 0
1.76 0 0
1.77 0 0
1.78 0 0
1.79 0 0
1.8 0 0
1.81 0 0
1.82 0 0
1.83 0 0
1.84 0 0
1.85 0 0
1.86 0 0
1.87 0 0
1.88 0 0
1.89 0 0
1.9 0 0
1.91 0 0
1.92 0 0
1.93 0 0
1.94 0 0
1.95 0 0
1.96 0 0
1.97 0 0
1.98 0 0
1.99 0 0
2 0.0100088 0
2 0.0204183 0
2 0.0312446 0
2 0.0425043 0
2 0.0542147 0
2 0.066394 0
2 0.079061 0
2 0.092235 0
2 0.105936 0
2 0.120186 0
2 0.135007 0
2 0.150421 0
2 0.166452 0
2 0.183124 0
2 0.200465 0
2 0.218499 0
2 0.237256 0
2 0.256763 0
2 0.277051 0
2 0.298152 0
2 0.320097 0
2 0.342921 0
2 0.366659 0
2 0.391347 0
2 0.417024 0
2 0.443728 0
2 0.471502 0
2 0.500387 0
2 0.530429 0
2 0.561674 0
2 0.594169 0
2 0.627966 0
2 0.663115 0
2 0.699672 0
2 0.737692 0
2 0.777235 0
2 0.818361 0
2 0.861133 0
2 0.905617 0
2 0.951882 0
1.95 1 0
1.9 1 0
1.85 1 0
1.8 1 0
1.75 1 0
1.7 1 0
1.65 1 0
1.6 1 0
1.55 1 0
1.5 1 0
1.45 1 0
1.4 1 0
1.35 1 0
1.3 1 0
1.25 1 0
1.2 1 0
1.15 1 0
1.1 1 0
1.05 1 0
1 1 0
0.95 1 0
0.9 1 0
0.85 1 0
0.8 1 0
0.75 1 0
0.7 1 0
0.65 1 0
0.6 1 0
0.55 1 0
0.5 1 0
0.45 1 0
0.4 1 0
0.35 1 0
0.3 1 0
0.25 1 0
0.2 1 0
0.15 1 0
0.1 1 0
0.05 1 0
3.69793e-12 1 0
-0.05 1 0
-0.1 1 0
-0.15 1 0
-0.2 1 0
-0.25 1 0
-0.3 1 0
-0.35 1 0
-0.4 1 0
-0.45 1 0
-0.5 1 0
-0.55 1 0
-0.6 1 0
-0.65 1 0
-0.7 1 0
-0.75 1 0
-0.8 1 0
-0.85 1 0
-0.9 1 0
-0.95 1 0
-1 0.951882 0
-1 0.905617 0
-1 0.861133 0
-1 0.818361 0
-1 0.777235 0
-1 0.737692 0
-1 0.699672 0
-1 0.663115 0
-1 0.627966 0
-1 0.594169 0
-1 0.561674 0
-1 0.530429 0
-1 0.500387 0
-1 0.471502 0
-1 0.443728 0
-1 0.417024 0
-1 0.391347 0
-1 0.366659 0
-1 0.342921 0
-1 0.320097 0
-1 0.298152 0
-1 0.277051 0
-1 0.256763 0
-1 0.237256 0
-1 0.218499 0
-1 0.200465 0
-1 0.183124 0
-1 0.166452 0
-1 0.150421 0
-1 0.135007 0
-1 0.120186 0
-1 0.105936 0
-1 0.092235 0
-1 0.079061 0
-1 0.066394 0
-1 0.0542147 0
-1 0.0425043 0
-1 0.0312446 0
-1 0.0204183 0
-1 0.0100088 0
0.00921362 0.00379763 0
0.0184561 0.00752451 0
0.0277268 0.0111804 0
0.0370253 0.0147652 0
0.0463511 0.0182786 0
0.0557034 0.0217203 0
0.0650819 0.0250903 0
0.074486 0.0283883 0
0.083915 0.0316141 0
0.0933685 0.0347675 0
0.102846 0.0378484 0
0.112347 0.0408565 0
0.12187 0.0437917 0
0.131416 0.0466538 0
0.140983 0.0494427 0
0.150572 0.0521581 0
0.160181 0.0547999 0
0.16981 0.0573681 0
0.179458 0.0598623 0
0.189125 0.0622825 0
0.198811 0.0646285 0
0.208514 0.0669001 0
0.218234 0.0690974 0
0.227971 0.07122 0
0.237724 0.073268 0
0.247493 0.0752411 0
0.257276 0.0771393 0
0.267073 0.0789625 0
0.276884 0.0807105 0
0.286708 0.0823832 0
0.296545 0.0839806 0
0.306394 0.0855025 0
0.316254 0.0869488 0
0.326125 0.0883196 0
0.336006 0.0896146 0
0.345896 0.0908339 0
0.355796 0.0919773 0
0.365704 0.0930447 0
0.375621 0.0940362 0
0.385544 0.0949517 0
0.395474 0.095791 0
0.40541 0.0965542 0
0.415352 0.0972412 0
0.425299 0.097852 0
0.43525 0.0983865 0
0.445205 0.0988447 0
0.455164 0.0992266 0
0.465125 0.0995321 0
0.475088 0.0997613 0
0.485052 0.0999141 0
0.495017 0.0999904 0
0.504983 0.0999904 0
0.514948 0.0999141 0
0.524912 0.0997613 0
0.534875 0.0995321 0
0.544836 0.0992266 0
0.554795 0.0988447 0
0.56475 0.0983865 0
0.574701 0.097852 0
0.584648 0.0972412 0
0.59459 0.0965542 0
0.604526 0.095791 0
0.614456 0.0949517 0
0.624379 0.0940362 0
0.634296 0.0930447 0
0.644204 0.0919773 0
0.654104 0.0908339 0
0.663994 0.0896146 0
0.673875 0.0883196 0
0.683746 0.0869488 0
0.693606 0.0855025 0
0.703455 0.0839806 0
0.713292 0.0823832 0
0.723116 0.0807105 0
0.732927 0.0789625 0
0.742724 0.0771393 0
0.752508 0.0752411 0
0.762276 0.073268 0
0.772029 0.07122 0
0.781766 0.0690974 0
0.791486 0.0669001 0
0.801189 0.0646285 0
0.810875 0.0622825 0
0.820542 0.0598623 0
0.83019 0.0573681 0
0.839819 0.0547999 0
0.849428 0.0521581 0
0.859017 0.0494427 0
0.868584 0.0466538 0
0.87813 0.0437917 0
0.887653 0.0408565 0
0.897154 0.0378484 0
0.906631 0.0347675 0
0.916085 0.0316141 0
0.925514 0.0283883 0
0.934918 0.0250903 0
0.944297 0.0217203 0
0.953649 0.0182786 0
0.962975 0.0147652 0
0.972273 0.0111804 0
0.981544 0.00752451 0
0.990786 0.00379763 0
-1 0.951882 0.1
-1 0.905617 0.1
-1 0.861133 0.1
-1 0.818361 0.1
-1 0.777235 0.1
-1 0.737692 0.1
-1 0.699672 0.1
-1 0.663115 0.1
-1 0.627966 0.1
-1 0.594169 0.1
-1 0.561674 0.1
-1 0.530429 0.1
-1 0.500387 0.1
-1 0.471502 0.1
-1 0.443728 0.1
-1 0.417024 0.1
-1 0.391347 0.1
-1 0.366659 0.1
-1 0.342921 0.1
-1 0.320097 0.1
-1 0.298152 0.1
-1 0.277051 0.1
-1 0.256763 0.1
-1 0.237256 0.1
-1 0.218499 0.1
-1 0.200465 0.1
-1 0.183124 0.1
-1 0.166452 0.1
-1 0.150421 0.1
-1 0.135007 0.1
-1 0.120186 0.1
-1 0.105936 0.1
-1 0.092235 0.1
-1 0.079061 0.1
-1 0.066394 0.1
-1 0.0542147 0.1
-1 0.0425043 0.1
-1 0.0312446 0.1
-1 0.0204183 0.1
-1 0.0100088 0.1
-0.99 0 0.1
-0.98 0 0.1
-0.97 0 0.1
-0.96 0 0.1
-0.95 0 0.1
-0.94 0 0.1
-0.93 0 0.1
-0.92 0 0.1
-0.91 0 0.1
-0.9 0 0.1
-0.89 0 0.1
-0.88 0 0.1
-0.87 0 0.1
-0.86 0 0.1
-0.85 0 0.1
-0.84 0 0.1
-0.83 0 0.1
-0.82 0 0.1
-0.81 0 0.1
-0.8 0 0.1
-0.79 0 0.1
-0.78 0 0.1
-0.77 0 0.1
-0.76 0 0.1
-0.75 0 0.1
-0.74 0 0.1
-0.73 0 0.1
-0.72 0 0.1
-0.71 0 0.1
-0.7 0 0.1
-0.69 0 0.1
-0.68 0 0.1
-0.67 0 0.1
-0.66 0 0.1
-0.65 0 0.1
-0.64 0 0.1
-0.63 0 0.1
-0.62 0 0.1
-0.61 0 0.1
-0.6 0 0.1
-0.59 0 0.1
-0.58 0 0.1
-0.57 0 0.1
-0.56 0 0.1
-0.55 0 0.1
-0.54 0 0.1
-0.53 0 0.1
-0.52 0 0.1
-0.51 0 0.1
-0.5 0 0.1
-0.49 0 0.1
-0.48 0 0.1
-0.47 0 0.1
-0.46 0 0.1
-0.45 0 0.1
-0.44 0 0.1
-0.43 0 0.1
-0.42 0 0.1
-0.41 0 0.1
-0.4 0 0.1
-0.39 0 0.1
-0.38 0 0.1
-0.37 0 0.1
-0.36 0 0.1
-0.35 0 0.1
-0.34 0 0.1
-0.33 0 0.1
-0.32 0 0.1
-0.31 0 0.1
-0.3 0 0.1
-0.29 0 0.1
-0.28 0 0.1
-0.27 0 0.1
-0.26 0 0.1
-0.25 0 0.1
-0.24 0 0.1
-0.23 0 0.1
-0.22 0 0.1
-0.21 0 0.1
-0.2 0 0.1
-0.19 0 0.1
-0.18 0 0.1
-0.17 0 0.1
-0.16 0 0.1
-0.15 0 0.1
-0.14 0 0.1
-0.13 0 0.1
-0.12 0 0.1
-0.11 0 0.1
-0.1 0 0.1
-0.09 0 0.1
-0.08 0 0.1
-0.07 0 0.1
-0.06 0 0.1
-0.05 0 0.1
-0.04 0 0.1
-0.03 0 0.1
-0.02 0 0.1
-0.01 0 0.1
0.00921362 0.00379763 0.1
0.0184561 0.00752451 0.1
0.0277268 0.0111804 0.1
0.0370253 0.0147652 0.1
0.0463511 0.0182786 0.1
0.0557034 0.0217203 0.1
0.0650819 0.0250903 0.1
0.074486 0.0283883 0.1
0.083915 0.0316141 0.1
0.0933685 0.0347675 0.1
0.102846 0.0378484 0.1
0.112347 0.0408565 0.1
0.12187 0.0437917 0.1
0.131416 0.0466538 0.1
0.140983 0.0494427 0.1
0.150572 0.0521581 0.1
0.160181 0.0547999 0.1
0.16981 0.0573681 0.1
0.179458 0.0598623 0.1
0.189125 0.0622825 0.1
0.198811 0.0646285 0.1
0.208514 0.0669001 0.1
0.218234 0.0690974 0.1
0.227971 0.07122 0.1
0.237724 0.073268 0.1
0.247493 0.0752411 0.1
0.257276 0.0771393 0.1
0.267073 0.0789625 0.1
0.276884 0.0807105 0.1
0.286708 0.0823832 0.1
0.296545 0.0839806 0.1
0.306394 0.0855025 0.1
0.316254 0.0869488 0.1
0.326125 0.0883196 0.1
0.336006 0.0896146 0.1
0.345896 0.0908339 0.1
0.355796 0.0919773 0.1
0.365704 0.0930447 0.1
0.375621 0.0940362 0.1
0.385544 0.0949517 0.1
0.395474 0.095791 0.1
0.40541 0.0965542 0.1
0.415352 0.0972412 0.1
0.425299 0.097852 0.1
0.43525 0.0983865 0.1
0.445205 0.0988447 0.1
0.455164 0.0992266 0.1
0.465125 0.0995321 0.1
0.475088 0.0997613 0.1
0.485052 0.0999141 0.1
0.495017 0.0999904 0.1
0.504983 0.0999904 0.1
0.514948 0.0999141 0.1
0.524912 0.0997613 0.1
0.534875 0.0995321 0.1
0.544836 0.0992266 0.1
0.554795 0.0988447 0.1
0.56475 0.0983865 0.1
0.574701 0.097852 0.1
0.584648 0.0972412 0.1
0.59459 0.0965542 0.1
0.604526 0.095791 0.1
0.614456 0.0949517 0.1
0.624379 0.0940362 0.1
0.634296 0.0930447 0.1
0.644204 0.0919773 0.1
0.654104 0.0908339 0.1
0.663994 0.0896146 0.1
0.673875 0.0883196 0.1
0.683746 0.0869488 0.1
0.693606 0.0855025 0.1
0.703455 0.0839806 0.1
0.713292 0.0823832 0.1
0.723116 0.0807105 0.1
0.732927 0.0789625 0.1
0.742724 0.0771393 0.1
0.752508 0.0752411 0.1
0.762276 0.073268 0.1
0.772029 0.07122 0.1
0.781766 0.0690974 0.1
0.791486 0.0669001 0.1
0.801189 0.0646285 0.1
0.810875 0.0622825 0.1
0.820542 0.0598623 0.1
0.83019 0.0573681 0.1
0.839819 0.0547999 0.1
0.849428 0.0521581 0.1
0.859017 0.0494427 0.1
0.868584 0.0466538 0.1
0.87813 0.0437917 0.1
0.887653 0.0408565 0.1
0.897154 0.0378484 0.1
0.906631 0.0347675 0.1
0.916085 0.0316141 0.1
0.925514 0.0283883 0.1
0.934918 0.0250903 0.1
0.944297 0.0217203 0.1
0.953649 0.0182786 0.1
0.962975 0.0147652 0.1
0.972273 0.0111804 0.1
0.981544 0.00752451 0.1
0.990786 0.00379763 0.1
1.01 0 0.1
1.02 0 0.1
1.03 0 0.1
[...]
CELL_DATA 14313
SCALARS rho float
LOOKUP_TABLE default
0.781286
0.824161
0.805877
0.537391
0.766215
0.811709
0.812382
0.812267
0.810995
0.815106
0.811945
0.798862
0.796942
0.517045
0.812752
0.831829
0.808745
0.807699
0.809969
0.805333
0.810612
0.813908
0.812314
0.765955
0.811944
0.814609
0.742344
0.709811
0.823683
0.824277
0.811808
0.794462
0.799442
0.811915
0.804658
0.810566
0.679611
0.808883
0.8115
0.802335
0.752472
0.810281
0.541595
0.701894
0.817525
0.835666
0.810766
0.777379
0.804361
0.850901
0.675309
0.653123
0.588974
0.810478
0.819577
0.782626
0.817511
0.814663
0.810788
0.812222
0.811816
0.818306
0.79444
0.839155
0.81024
0.813201
0.852642
0.78386
0.840498
0.812744
0.798295
0.831391
0.486863
0.837144
0.725766
0.806857
0.824532
0.747031
0.696346
0.811284
0.59177
0.824629
0.833081
0.803464
0.805468
0.819189
0.811691
0.804441
0.826515
0.806982
0.779836
0.522312
0.807284
0.797837
0.7257
0.803826
0.814534
0.808821
0.803206
0.488483
0.806954
0.80953
0.812348
0.814162
0.748349
0.809276
0.802606
0.699465
0.834384
0.809884
0.813841
0.824786
0.811989
0.81922
0.804154
0.827325
0.819727
0.836156
0.778664
0.798673
0.81146
0.808876
0.859382
0.720589
0.843292
0.753303
0.789492
0.804441
0.814543
0.842804
0.809332
0.811842
0.860683
0.812139
0.823167
0.782592
0.806885
0.792217
0.817561
0.817216
0.812382
0.816657
0.803385
0.803428
0.796518
0.83897
0.805938
0.760634
0.795466
0.817243
0.797134
0.803528
0.812316
0.708885
0.821108
0.803714
0.723006
0.820995
0.811934
0.811843
0.818323
0.808697
0.646044
0.757422
0.82301
0.824318
0.71381
0.812537
0.827934
0.815351
0.688519
0.816206
0.712857
0.787842
0.808821
0.826
0.808026
0.815384
0.820845
0.74144
0.811247
0.809401
0.773429
0.771852
0.790473
0.810949
0.812737
0.796969
0.496205
0.787171
0.757418
0.74262
0.770198
0.712971
0.812195
0.814829
0.807238
0.803377
0.806004
0.816713
0.760027
0.802875
0.828409
0.814756
0.833375
0.803339
0.816546
0.81421
0.811885
0.834523
0.803936
0.811115
0.795901
0.700823
0.813963
0.820582
0.809476
0.807108
0.83445
0.802845
0.802604
0.819191
0.805915
0.855275
0.809536
0.803097
0.817844
0.802461
0.812267
0.757163
0.635155
0.815037
0.697396
0.82678
0.802371
0.721101
0.811875
0.813933
0.814782
0.826174
0.791666
0.71054
0.747568
0.594772
0.814929
0.72372
0.799221
0.807082
0.83765
0.81501
0.574906
0.804028
0.728566
0.837263
0.801153
0.69458
0.811301
0.826968
0.814506
0.556707
0.813245
0.801097
0.798837
0.805959
0.788329
0.773813
0.815704
0.81552
0.529057
0.814539
0.813687
0.772103
0.80203
0.811924
0.780468
0.817189
0.782949
0.709009
0.802798
0.805813
0.5673
0.543256
0.756166
0.807877
0.820365
0.790047
0.81157
0.814731
0.776029
0.805926
0.803485
0.816605
0.8294
0.793086
0.808289
0.811469
0.631242
0.818851
0.699208
0.797187
0.793265
0.777555
0.835552
0.809315
0.796567
0.676158
0.667932
0.803553
0.805629
0.819609
0.804222
0.798318
0.651985
0.815039
0.822053
0.818086
0.811946
0.812797
0.799362
0.790892
0.814094
0.569512
0.807871
0.812135
0.814339
0.812507
0.765231
0.82147
0.801493
0.814132
0.812988
0.753866
0.752379
0.803401
0.803482
0.52312
0.812361
0.81187
0.80706
0.811737
0.803297
0.800941
0.727992
0.711858
0.81431
0.748311
0.757911
0.81839
0.837415
0.814114
0.802138
0.808482
0.81218
0.803446
0.816973
0.782486
0.816904
0.811765
0.810655
0.795066
0.810366
0.792087
0.811753
0.589575
0.79951
0.800357
0.811846
0.813422
0.767545
0.801594
0.812125
0.812347
0.817957
0.770208
0.818262
0.808306
0.752455
0.761687
0.812865
0.80574
0.829122
0.824666
0.823146
0.804263
0.593963
0.778942
0.60016
0.803374
0.802914
0.800717
0.814201
0.874003
0.525889
0.593286
0.838263
0.871963
0.811783
0.690071
0.801927
0.716022
0.806778
0.815682
0.706929
0.65078
0.751059
0.812854
0.475751
0.873534
0.824316
0.798432
0.808767
0.478621
0.739569
0.78168
0.817524
0.804604
0.800513
0.830179
0.812237
0.705451
0.684812
0.801536
0.80605
0.809222
0.811505
0.808783
0.811826
0.735471
0.791161
0.797177
0.802493
0.764005
0.817598
0.807868
0.812784
0.811542
0.755044
0.805597
0.804072
0.793186
0.812058
0.815641
0.806884
0.657118
0.787437
0.817446
0.812821
0.812199
0.807343
0.812636
0.804135
0.821112
0.821464
0.612795
0.855115
0.743981
0.820548
0.804895
0.747005
0.82446
0.800889
0.825406
0.548275
0.799417
0.679016
0.811904
0.809209
0.521674
0.799897
0.804622
0.797998
0.802072
0.800601
0.772203
0.811765
0.592301
0.805702
0.806082
0.799176
0.818262
0.764899
0.8119
0.809271
0.797822
0.816151
0.796441
0.802846
0.812258
0.634049
0.769232
0.733855
0.489994
0.824671
0.568033
0.802605
0.818755
0.856581
0.702847
0.739512
0.812055
0.80609
0.800875
0.793651
0.765853
0.810833
0.812324
0.797068
0.813042
0.816375
0.471612
0.81229
0.813188
0.80633
0.810018
0.604083
0.815123
0.821482
0.705404
0.788759
0.813097
0.801029
0.828114
0.831293
0.804076
0.742448
0.472871
0.813798
0.570929
0.798696
0.803322
0.774705
0.811928
0.75037
0.811225
0.80657
0.803355
0.485741
0.814195
0.827375
0.830523
0.814726
0.803472
0.803218
0.812319
0.758505
0.847298
0.836783
0.709095
0.798574
0.653308
0.778005
0.667446
0.816022
0.836035
0.798885
0.637613
0.765746
0.8136
0.824389
0.832546
0.813599
0.670058
0.53746
0.804554
0.815844
0.801281
0.815762
0.804686
0.771587
0.851066
0.81517
0.804038
0.816693
0.798998
0.744028
0.797938
0.811324
0.596445
0.689071
0.803308
0.810669
0.8048
0.574973
0.811515
0.604716
0.812328
0.767544
0.816843
0.816247
0.753535
0.8065
0.792351
0.805144
0.836811
0.837102
0.831275
0.804777
0.816067
0.57935
0.812363
0.856759
0.825052
0.829235
0.804194
0.820726
0.79928
0.839791
0.808743
0.814374
0.672443
0.630313
0.835697
0.813297
0.840645
0.715758
0.801175
0.763438
0.797154
0.809562
0.793104
0.806991
0.813011
0.822642
0.828061
0.830027
0.805408
0.750126
0.804055
0.729252
0.793143
0.821471
0.800893
0.815025
0.758194
0.805055
0.80431
0.84695
0.809021
0.803408
0.805977
0.834254
0.831316
0.803584
0.856278
0.795913
0.820011
0.661362
0.80316
0.800235
0.798764
0.831673
0.608703
0.806326
0.805548
0.658427
0.814508
0.829292
0.813779
0.80338
0.806025
0.802496
0.816015
0.798837
0.720574
0.513401
0.813327
0.805581
0.801771
0.804496
0.802955
0.803677
0.810658
0.798027
0.813655
0.583168
0.81275
0.8094
0.811816
0.842322
0.813652
0.834184
0.811332
0.797596
0.812723
0.682343
0.803723
0.850153
0.812756
0.793002
0.814122
0.633826
0.805449
0.566055
0.66203
0.673242
0.809546
0.815444
0.812427
0.497011
0.694409
0.803464
0.83074
0.747294
0.831295
0.805155
0.804673
0.796674
0.694013
0.751213
0.547126
0.802752
0.8116
0.80424
0.820828
0.669794
0.620042
0.853922
0.801492
0.813971
0.728911
0.813484
0.526226
0.820781
0.703148
0.813777
0.817463
0.801657
0.802105
0.825123
0.794835
0.803596
0.803848
0.631237
0.80658
0.653022
0.798736
0.798167
0.813664
0.81532
0.729061
0.815342
0.755806
0.803152
0.721538
0.804942
0.745972
0.671429
0.824496
0.812336
0.799058
0.726288
0.811332
0.65833
0.810861
0.802911
0.728431
0.825816
0.816302
0.637274
0.695973
0.825742
0.803654
0.725544
0.833633
0.834691
0.836084
0.811691
0.548071
0.751009
0.820985
0.82027
0.520771
0.639939
0.815555
0.812396
0.7217
0.778364
0.811983
0.807022
0.757902
0.812122
0.813442
0.80357
0.728638
0.802229
0.796862
0.812035
0.576792
0.805555
0.821735
0.574157
0.818112
0.845275
0.811948
0.676544
0.811678
0.811562
0.811785
0.801157
0.818666
0.803238
0.80668
0.804851
0.803309
0.813454
0.484799
0.809842
0.809653
0.691725
0.603025
0.786072
0.798282
0.812025
0.753272
0.563697
0.811371
0.783457
0.811996
0.821453
0.813433
0.825048
0.748278
0.590123
0.811467
0.839027
0.811944
0.709545
0.803435
0.727248
0.813088
0.811023
0.811852
0.817305
0.801244
0.813011
0.808327
0.757549
0.816191
0.812572
0.751711
0.791882
0.710697
0.558163
0.733469
0.781515
0.815768
0.811258
0.8106
0.810528
0.803294
0.795337
0.80806
0.707485
0.753413
0.811525
0.80342
0.804821
0.818328
0.604005
0.813503
0.80389
0.843511
0.80779
0.636168
0.793671
0.803801
0.842439
0.690582
0.561694
0.576899
0.63515
0.81756
0.80449
0.560196
0.585185
0.819901
0.812126
0.889273
0.804799
0.82941
0.812369
0.769437
0.810743
0.812535
0.812016
0.810576
0.811948
0.797955
0.812119
0.640538
0.81567
0.803627
0.809588
0.756683
0.817103
0.610856
0.855368
0.803926
0.826963
0.811943
0.807993
0.748101
0.822202
0.811866
0.837174
0.811732
0.812459
0.64105
0.826719
0.810085
0.812324
0.836569
0.822517
0.553674
0.7964
0.802714
0.81087
0.816935
0.803935
0.800158
0.815152
0.765053
0.804899
0.815798
0.863432
0.831105
0.586601
0.796011
0.754051
0.813972
0.761459
0.819338
0.804828
0.806381
0.812175
0.789091
0.805566
0.815454
0.821807
0.787325
0.668239
0.733692
0.697691
0.814073
0.835829
0.837766
0.733408
0.808797
0.753939
0.609524
0.81197
0.799408
0.811731
0.803572
0.630685
0.80221
0.776472
0.736717
0.810699
0.744642
0.807539
0.816397
0.85971
0.809619
0.807078
0.73992
0.81243
0.775825
0.839347
0.883732
0.796958
0.520372
0.799617
0.607491
0.769242
0.657194
0.799149
0.494426
0.814935
0.849696
0.805922
0.810553
0.819648
0.80278
0.803251
0.696566
0.82288
0.811873
0.804146
0.806553
0.792421
0.803556
0.806769
0.628255
0.816469
0.801955
0.845122
0.807932
0.804359
0.801429
0.812912
0.813026
0.807489
0.80353
0.787486
0.812088
0.795239
0.801677
0.813199
0.771727
0.566946
0.812598
0.818093
0.803969
0.724681
0.801114
0.807656
0.80348
0.698123
0.87297
0.811544
0.816662
0.811972
0.847655
0.778124
0.812045
0.787581
0.815776
0.821979
0.663146
0.812081
0.728517
0.818983
0.718069
0.799411
0.751121
0.802459
0.569417
0.80914
0.73512
0.47613
0.820119
0.661743
0.769067
0.817161
0.812239
0.776494
0.811178
0.71858
0.638036
0.82611
0.69803
0.816638
0.767298
0.801588
0.807922
0.813194
0.652143
0.804304
0.774856
0.809514
0.811995
0.828928
0.806107
0.687442
0.755408
0.65124
0.798114
0.802952
0.811879
0.815342
0.811884
0.811454
0.809295
0.663361
0.731221
0.487323
0.69626
0.813815
0.808051
0.832915
0.809397
0.814622
0.710252
0.873913
0.815094
0.82613
0.571338
0.822815
0.812097
0.840629
0.845502
0.826511
0.829963
0.820113
0.540312
0.805723
0.814855
0.716124
0.816694
0.801246
0.812031
0.807927
0.81252
0.812587
0.767105
0.721352
0.797935
0.800284
0.57156
0.813937
0.858971
0.815235
0.658515
0.822424
0.813041
0.819462
0.835113
0.686694
0.486271
0.80484
0.839799
0.806057
0.803869
0.814133
0.801556
0.812408
0.809435
0.799898
0.804238
0.804678
0.812386
0.805549
0.806154
0.79852
0.836049
0.830624
0.853165
0.81281
0.807326
0.814383
0.812898
0.811984
0.810934
0.815503
0.833931
0.808594
0.811019
0.600512
0.830469
0.711148
0.868138
0.803614
0.833228
0.798983
0.786063
0.785656
0.740045
0.821097
0.810923
0.811442
0.813299
0.775801
0.807791
0.584165
0.806064
0.812908
0.813064
0.795666
0.811972
0.610985
0.783464
0.558153
0.820711
0.796841
0.774491
0.80184
0.813593
0.812343
0.812377
0.737955
0.808191
0.81183
0.810304
0.803644
0.80381
0.747309
0.767222
0.809225
0.803722
0.696134
0.597773
0.489574
0.840983
0.806058
0.778545
0.781182
0.824224
0.803569
0.803959
0.817957
0.779204
0.757
0.816075
0.807426
0.811094
0.837167
0.804819
0.811646
0.808244
0.483287
0.803437
0.811801
0.773677
0.819346
0.814127
0.82553
0.599232
0.710377
0.572857
0.828219
0.815531
0.743238
0.811818
0.676671
0.813667
0.810596
0.811799
0.803068
0.811819
0.5768
0.686274
0.806078
0.813217
0.793686
0.801229
0.830988
0.798645
0.80299
0.642786
0.807718
0.811861
0.804268
0.812171
0.802737
0.616841
0.814204
0.812288
0.57233
0.696949
0.793077
0.828102
0.697349
0.803993
0.793626
0.812043
0.756553
0.684872
0.810342
0.795889
0.799265
0.766323
0.540471
0.820177
0.673435
0.747606
0.731342
0.803966
0.79726
0.811362
0.659962
0.767534
0.803965
0.814912
0.592518
0.798854
0.825724
0.80713
0.538984
0.80559
0.783395
0.706967
0.705691
0.800391
0.819052
0.812921
0.808595
0.699336
0.739592
0.641364
0.832263
0.842851
0.816827
0.788146
0.865188
0.69667
0.813266
0.766713
0.790197
0.795515
0.811875
0.803981
0.811501
0.787076
0.755198
0.81968
0.79669
0.842082
0.719283
0.791381
0.805513
0.723203
0.803198
0.814408
0.575868
0.80194
0.798923
0.802791
0.82112
0.764227
0.800154
0.722568
0.812056
0.808823
0.725149
0.812057
0.816142
0.828595
0.805577
0.787079
0.797603
0.805606
0.726579
0.812371
0.801127
0.677465
0.806877
0.780253
0.831848
0.820838
0.818938
0.839255
0.848182
0.698961
0.813644
0.795501
0.787289
0.617458
0.816893
0.803602
0.81214
0.776113
0.853432
0.832758
0.781784
0.84196
0.779765
0.800632
0.771931
0.812132
0.721643
0.635722
0.844163
0.660886
0.792803
0.839688
0.812353
0.671075
0.809229
0.751857
0.803962
0.798996
0.781297
0.804152
0.801025
0.802789
0.801888
0.785594
0.811939
0.781388
0.816195
0.807457
0.71257
0.783818
0.815132
0.812375
0.805482
0.56394
0.825072
0.812795
0.811966
0.703286
0.804761
0.80108
0.801273
0.81583
0.746207
0.815914
0.80053
0.804545
0.755163
0.811401
0.812732
0.805885
0.768971
0.807873
0.812913
0.808038
0.815783
0.808287
0.806061
0.822878
0.804595
0.788718
0.806178
0.812108
0.818139
0.778696
0.703497
0.813702
0.812167
0.800715
0.742409
0.788791
0.654019
0.803389
0.540091
0.803165
0.81435
0.774873
0.834549
0.514999
0.809404
0.738405
0.810395
0.534134
0.804332
0.827786
0.813254
0.818672
0.734205
0.840894
0.553458
0.823497
0.702377
0.799523
0.47716
0.66981
0.812489
0.811974
0.741689
0.800946
0.820837
0.611982
0.821957
0.770916
0.83345
0.811979
0.8141
0.813071
0.803824
0.836765
0.810639
0.803755
0.475826
0.803106
0.843452
0.802218
0.801305
0.767559
0.805386
0.81192
0.812075
0.79656
0.734276
0.81037
0.815435
0.602939
0.804158
0.536257
0.815597
0.539378
0.811919
0.770358
0.682468
0.733499
0.783084
0.712986
0.841472
0.813694
0.796858
0.803967
0.703294
0.802553
0.789425
0.802439
0.814933
0.801683
0.731468
0.697797
0.800579
0.77226
0.518815
0.811136
0.663102
0.794093
0.705692
0.824999
0.809372
0.825006
0.810168
0.837139
0.807216
0.579795
0.829194
0.806973
0.801516
0.815374
0.811911
0.812534
0.814562
0.825084
0.816333
0.61797
0.804744
0.800654
0.812832
0.692139
0.802309
0.82321
0.756346
0.688529
0.807485
0.688231
0.731644
0.810016
0.812647
0.668492
0.84144
0.766913
0.805388
0.796407
0.809724
0.84446
0.801055
0.538643
0.814833
0.708357
0.51631
0.77818
0.758077
0.769501
0.812128
0.803515
0.816342
0.811941
0.585736
0.787491
0.831198
0.812025
0.591111
0.721424
0.634742
0.816603
0.810398
0.69089
0.803979
0.812104
0.799294
0.834173
0.605961
0.840303
0.740164
0.811898
0.812407
0.669031
0.812473
0.721017
0.791789
0.716552
0.811852
0.78441
0.63384
0.724127
0.712273
0.833111
0.809344
0.819271
0.821984
0.803342
0.808504
0.802786
0.817594
0.803249
0.686943
0.803428
0.603425
0.776679
0.807172
0.802284
0.8121
0.824216
0.803327
0.716827
0.71058
0.667133
0.790248
0.81669
0.749082
0.579032
0.751445
0.810181
0.80185
0.760165
0.803562
0.823115
0.753196
0.568709
0.701921
0.798585
0.812099
0.864268
0.814566
0.811701
0.851792
0.799539
0.801843
0.814348
0.812198
0.805309
0.717564
0.80914
0.695382
0.862206
0.778628
0.813373
0.573578
0.796464
0.529058
0.583155
0.584629
0.80787
0.803629
0.809226
0.758098
0.803553
0.532109
0.782182
0.802885
0.734493
0.814287
0.8016
0.815789
0.842859
0.509134
0.811999
0.802079
0.80953
0.816714
0.812819
0.812285
0.754095
0.797121
0.798782
0.80323
0.79754
0.810675
0.845262
0.818516
0.723642
0.804672
0.606612
0.81315
0.811995
0.586458
0.766818
0.766884
0.536162
0.784231
0.803637
0.878245
0.798335
0.813062
0.755155
0.794407
0.797014
0.809212
0.782658
0.541837
0.711375
0.680357
0.78103
0.814613
0.80288
0.821803
0.790219
0.801788
0.812744
0.798051
0.852126
0.704445
0.81181
0.780655
0.530801
0.515445
0.812857
0.80354
0.805437
0.560274
0.796978
0.803738
0.659058
0.813684
0.79058
0.806519
0.814771
0.532411
0.72459
0.718693
0.812409
0.831974
0.629831
0.789815
0.717146
0.813556
0.827226
0.779411
0.773118
0.534993
0.811481
0.802405
0.723609
0.851969
0.805811
0.722607
0.739815
0.76384
0.810755
0.563328
0.796691
0.737953
0.800321
0.821816
0.72029
0.799147
0.811722
0.71647
0.812998
0.705915
0.815948
0.798177
0.759669
0.689724
0.808875
0.799996
0.813328
0.66951
0.805367
0.804824
0.811547
0.699399
0.812102
0.808359
0.831725
0.647518
0.815455
0.740718
0.811891
0.805691
0.842174
0.80368
0.818883
0.749007
0.815147
0.838762
0.832787
0.816419
0.84555
0.752307
0.847702
0.825959
0.803815
0.825721
0.805596
0.64655
0.778041
0.813888
0.746768
0.695078
0.798427
0.804054
0.679605
0.797409
0.537836
0.848415
0.695942
0.706166
0.81353
0.774447
0.806866
0.798925
0.806929
0.803885
0.811987
0.835596
0.72993
0.772113
0.588105
0.809971
0.777009
0.810882
0.805111
0.569936
0.802903
0.802529
0.807458
0.79861
0.816698
0.808148
0.709938
0.823096
0.84787
0.684364
0.74358
0.812141
0.8009
0.71224
0.814258
0.754307
0.796777
0.802896
0.805357
0.837119
0.668651
0.723341
0.800797
0.701931
0.772632
0.832124
0.531874
0.691185
0.799578
0.804284
0.803362
0.741754
0.822349
0.80686
0.803659
0.808124
0.813266
0.696035
0.649067
0.80967
0.813769
0.799219
0.871412
0.802712
0.812327
0.799043
0.809928
0.81124
0.808358
0.652927
0.814737
0.816551
0.803436
0.801847
0.799358
0.61722
0.809682
0.810483
0.81239
0.862257
0.814397
0.801482
0.480449
0.836314
0.692446
0.826365
0.805753
0.813772
0.823982
0.809059
0.812039
0.730884
0.551246
0.491498
0.812302
0.80893
0.53395
0.795553
0.814462
0.83325
0.50388
0.809568
0.813403
0.802249
0.809073
0.530089
0.813088
0.808241
0.55984
0.812182
0.815234
0.538641
0.808743
0.812638
0.775817
0.806263
0.811156
0.80947
0.798977
0.825851
0.533707
0.830151
0.815796
0.804066
0.742047
0.786171
0.811329
0.809379
0.80209
0.815918
0.800701
0.656938
0.80614
0.577968
0.811935
0.659794
0.746272
0.796994
0.718241
0.803541
0.579639
0.849717
0.812176
0.81231
0.799243
0.8027
0.80318
0.813633
0.814337
0.670048
0.717605
0.72616
0.814753
0.721283
0.572863
0.817378
0.783695
0.827856
0.811667
0.809373
0.732466
0.53574
0.798714
0.790019
0.496007
0.813822
0.812982
0.735563
0.805903
0.768488
0.606925
0.809931
0.814638
0.78862
0.609725
0.802306
0.782954
0.826326
0.81295
0.810357
0.81189
0.812809
0.715796
0.80006
0.815715
0.694581
0.480354
0.732875
0.7988
0.730736
0.812987
0.798097
0.80552
0.782557
0.867314
0.803554
0.801668
0.825756
0.859314
0.804613
0.815676
0.794316
0.815885
0.789149
0.743979
0.811905
0.804258
0.816207
0.803247
0.790794
0.842779
0.766082
0.812707
0.773358
0.803714
0.642492
0.509276
0.800982
0.80216
0.809501
0.798146
0.799666
0.811896
0.772898
0.804608
0.811978
0.782185
0.816896
0.777164
0.593259
0.805042
0.760901
0.776189
0.750435
0.763664
0.793913
0.788568
0.823024
0.787506
0.809417
0.803367
0.765104
0.815497
0.542162
0.72948
0.810523
0.813979
0.811386
0.802312
0.812818
0.810513
0.805748
0.821142
0.809682
0.78294
0.81659
0.801677
0.790461
0.795887
0.805164
0.586059
0.80362
0.792165
0.574397
0.813175
0.807231
0.806043
0.810755
0.702297
0.754899
0.821094
0.774894
0.811382
0.816309
0.72228
0.804479
0.82409
0.720021
0.799421
0.809497
0.778559
0.804709
0.836948
0.8019
0.817308
0.772512
0.805335
0.800287
0.813059
0.802095
0.797878
0.588619
0.8152
0.786708
0.806631
0.825608
0.691012
0.828537
0.819956
0.505186
0.806377
0.80445
0.801456
0.812247
0.824231
0.824045
0.804907
0.805895
0.814149
0.813365
0.80352
0.812549
0.804721
0.749241
0.708149
0.78089
0.813646
0.812072
0.775849
0.75777
0.813919
0.824926
0.810515
0.812198
0.691396
0.500627
0.747782
0.817517
0.806706
0.816226
0.844182
0.799863
0.714813
0.654148
0.799644
0.804682
0.694163
0.812648
0.671071
0.836802
0.729204
0.812836
0.89525
0.815604
0.800796
0.777719
0.811094
0.681413
0.814181
0.808204
0.791507
0.805594
0.779413
0.80064
0.810027
0.780445
0.803574
0.852055
0.776993
0.80213
0.492748
0.803166
0.693868
0.804095
0.794445
0.788572
0.783604
0.722198
0.80208
0.78817
0.844446
0.813266
0.812422
0.81176
0.895508
0.746391
0.802731
0.730785
0.803156
0.798348
0.804495
0.716717
0.800914
0.805494
0.638953
0.808646
0.74856
0.533767
0.846501
0.847323
0.750006
0.810754
0.794666
0.772007
0.731701
0.775981
0.785472
0.736206
0.803848
0.804411
0.719415
0.815294
0.804974
0.556725
0.811971
0.821429
0.813232
0.803504
0.610647
0.71493
0.806269
0.859167
0.483598
0.724493
0.80645
0.81595
0.796433
0.713247
0.710618
0.809019
0.813215
0.814992
0.837068
0.745187
0.754362
0.875738
0.806859
0.809198
0.795163
0.637332
0.597239
0.585923
0.656945
0.586069
0.764177
0.800708
0.803373
0.81225
0.809118
0.811472
0.860151
0.715339
0.823854
0.813874
0.817074
0.816623
0.813802
0.812946
0.811557
0.811919
0.656674