# vtk DataFile Version 1.0
unstructured grid
ascii
DATASET UNSTRUCTURED_GRID
points 14760 float
-1 0 0
-1 1 0
2 0 0
2 1 0
0 0 0
1 0 0
-1 1 0.1
-1 0 0.1
0 0 0.1
1 0 0.1
2 0 0.1
2 1 0.1
-0.99 0 0
-0.98 0 0
-0.97 0 0
-0.96 0 0
-0.95 0 0
-0.94 0 0
-0.93 0 0
-0.92 0 0
-0.91 0 0
-0.9 0 0
-0.89 0 0
-0.88 0 0
-0.87 0 0
-0.86 0 0
-0.85 0 0
-0.84 0 0
-0.83 0 0
-0.82 0 0
-0.81 0 0
-0.8 0 0
-0.79 0 0
-0.78 0 0
-0.77 0 0
-0.76 0 0
-0.75 0 0
-0.74 0 0
-0.73 0 0
-0.72 0 0
-0.71 0 0
-0.7 0 0
-0.69 0 0
-0.68 0 0
-0.67 0 0
-0.66 0 0
-0.65 0 0
-0.64 0 0
-0.63 0 0
-0.62 0 0
-0.61 0 0
-0.6 0 0
-0.59 0 0
-0.58 0 0
-0.57 0 0
-0.56 0 0
-0.55 0 0
-0.54 0 0
-0.53 0 0
-0.52 0 0
-0.51 0 0
-0.5 0 0
-0.49 0 0
-0.48 0 0
-0.47 0 0
-0.46 0 0
-0.45 0 0
-0.44 0 0
-0.43 0 0
-0.42 0 0
-0.41 0 0
-0.4 0 0
-0.39 0 0
-0.38 0 0
-0.37 0 0
-0.36 0 0
-0.35 0 0
-0.34 0 0
-0.33 0 0
-0.32 0 0
-0.31 0 0
-0.3 0 0
-0.29 0 0
-0.28 0 0
-0.27 0 0
-0.26 0 0
-0.25 0 0
-0.24 0 0
-0.23 0 0
-0.22 0 0
-0.21 0 0
-0.2 0 0
-0.19 0 0
-0.18 0 0
-0.17 0 0
-0.16 0 0
-0.15 0 0
-0.14 0 0
-0.13 0 0
-0.12 0 0
-0.11 0 0
-0.1 0 0
-0.09 0 0
-0.08 0 0
-0.07 0 0
-0.06 0 0
-0.05 0 0
-0.04 0 0
-0.03 0 0
-0.02 0 0
-0.01 0 0
1.01 0 0
1.02 0 0
1.03 0 0
1.04 0 0
1.05 0 0
1.06 0 0
1.07 0 0
1.08 0 0
1.09 0 0
1.1 0 0
1.11 0 0
1.12 0 0
1.13 0 0
1.14 0 0
1.15 0 0
1.16 0 0
1.17 0 0
1.18 0 0
1.19 0 0
1.2 0 0
1.21 0 0
1.22 0 0
1.23 0 0
1.24 0 0
1.25 0 0
1.26 0 0
1.27 0 0
1.28 0 0
1.29 0 0
1.3 0 0
1.31 0 0
1.32 0 0
1.33 0 0
1.34 0 0
1.35 0 0
1.36 0 0
1.37 0 0
1.38 0 0
1.39 0 0
1.4 0 0
1.41 0 0
1.42 0 0
1.43 0 0
1.44 0 0
1.45 0 0
1.46 0 0
1.47 0 0
1.48 0 0
1.49 0 0
1.5 0 0
1.51 0 0
1.52 0 0
1.53 0 0
1.54 0 0
1.55 0 0
1.56 0 0
1.57 0 0
1.58 0 0
1.59 0 0
1.6 0 0
1.61 0 0
1.62 0 0
1.63 0 0
1.64 0 0
1.65 0 0
1.66 0 0
1.67 0 0
1.68 0 0
1.69 0 0
1.7 0 0
1.71 0 0
1.72 0 0
1.73 0 0
1.74 0 0
1.75 0 0
1.76 0 0
1.77 0 0
1.78 0 0
1.79 0 0
1.8 0 0
1.81 0 0
1.82 0 0
1.83 0 0
1.84 0 0
1.85 0 0
1.86 0 0
1.87 0 0
1.88 0 0
1.89 0 0
1.9 0 0
1.91 0 0
1.92 0 0
1.93 0 0
1.94 0 0
1.95 0 0
1.96 0 0
1.97 0 0
1.98 0 0
1.99 0 0
2 0.0100088 0
2 0.0204183 0
2 0.0312446 0
2 0.0425043 0
2 0.0542147 0
2 0.066394 0
2 0.079061 0
2 0.092235 0
2 0.105936 0
2 0.120186 0
2 0.135007 0
2 0.150421 0
2 0.166452 0
2 0.183124 0
2 0.200465 0
2 0.218499 0
2 0.237256 0
2 0.256763 0
2 0.277051 0
2 0.298152 0
2 0.320097 0
2 0.342921 0
2 0.366659 0
2 0.391347 0
2 0.417024 0
2 0.443728 0
2 0.471502 0
2 0.500387 0
2 0.530429 0
2 0.561674 0
2 0.594169 0
2 0.627966 0
2 0.663115 0
2 0.699672 0
2 0.737692 0
2 0.777235 0
2 0.818361 0
2 0.861133 0
2 0.905617 0
2 0.951882 0
1.95 1 0
1.9 1 0
1.85 1 0
1.8 1 0
1.75 1 0
1.7 1 0
1.65 1 0
1.6 1 0
1.55 1 0
1.5 1 0
1.45 1 0
1.4 1 0
1.35 1 0
1.3 1 0
1.25 1 0
1.2 1 0
1.15 1 0
1.1 1 0
1.05 1 0
1 1 0
0.95 1 0
0.9 1 0
0.85 1 0
0.8 1 0
0.75 1 0
0.7 1 0
0.65 1 0
0.6 1 0
0.55 1 0
0.5 1 0
0.45 1 0
0.4 1 0
0.35 1 0
0.3 1 0
0.25 1 0
0.2 1 0
0.15 1 0
0.1 1 0
0.05 1 0
3.69793e-12 1 0
-0.05 1 0
-0.1 1 0
-0.15 1 0
-0.2 1 0
-0.25 1 0
-0.3 1 0
-0.35 1 0
-0.4 1 0
-0.45 1 0
-0.5 1 0
-0.55 1 0
-0.6 1 0
-0.65 1 0
-0.7 1 0
-0.75 1 0
-0.8 1 0
-0.85 1 0
-0.9 1 0
-0.95 1 0
-1 0.951882 0
-1 0.905617 0
-1 0.861133 0
-1 0.818361 0
-1 0.777235 0
-1 0.737692 0
-1 0.699672 0
-1 0.663115 0
-1 0.627966 0
-1 0.594169 0
-1 0.561674 0
-1 0.530429 0
-1 0.500387 0
-1 0.471502 0
-1 0.443728 0
-1 0.417024 0
-1 0.391347 0
-1 0.366659 0
-1 0.342921 0
-1 0.320097 0
-1 0.298152 0
-1 0.277051 0
-1 0.256763 0
-1 0.237256 0
-1 0.218499 0
-1 0.200465 0
-1 0.183124 0
-1 0.166452 0
-1 0.150421 0
-1 0.135007 0
-1 0.120186 0
-1 0.105936 0
-1 0.092235 0
-1 0.079061 0
-1 0.066394 0
-1 0.0542147 0
-1 0.0425043 0
-1 0.0312446 0
-1 0.0204183 0
-1 0.0100088 0
0.00921362 0.00379763 0
0.0184561 0.00752451 0
0.0277268 0.0111804 0
0.0370253 0.0147652 0
0.0463511 0.0182786 0
0.0557034 0.0217203 0
0.0650819 0.0250903 0
0.074486 0.0283883 0
0.083915 0.0316141 0
0.0933685 0.0347675 0
0.102846 0.0378484 0
0.112347 0.0408565 0
0.12187 0.0437917 0
0.131416 0.0466538 0
0.140983 0.0494427 0
0.150572 0.0521581 0
0.160181 0.0547999 0
0.16981 0.0573681 0
0.179458 0.0598623 0
0.189125 0.0622825 0
0.198811 0.0646285 0
0.208514 0.0669001 0
0.218234 0.0690974 0
0.227971 0.07122 0
0.237724 0.073268 0
0.247493 0.0752411 0
0.257276 0.0771393 0
0.267073 0.0789625 0
0.276884 0.0807105 0
0.286708 0.0823832 0
0.296545 0.0839806 0
0.306394 0.0855025 0
0.316254 0.0869488 0
0.326125 0.0883196 0
0.336006 0.0896146 0
0.345896 0.0908339 0
0.355796 0.0919773 0
0.365704 0.0930447 0
0.375621 0.0940362 0
0.385544 0.0949517 0
0.395474 0.095791 0
0.40541 0.0965542 0
0.415352 0.0972412 0
0.425299 0.097852 0
0.43525 0.0983865 0
0.445205 0.0988447 0
0.455164 0.0992266 0
0.465125 0.0995321 0
0.475088 0.0997613 0
0.485052 0.0999141 0
0.495017 0.0999904 0
0.504983 0.0999904 0
0.514948 0.0999141 0
0.524912 0.0997613 0
0.534875 0.0995321 0
0.544836 0.0992266 0
0.554795 0.0988447 0
0.56475 0.0983865 0
0.574701 0.097852 0
0.584648 0.0972412 0
0.59459 0.0965542 0
0.604526 0.095791 0
0.614456 0.0949517 0
0.624379 0.0940362 0
0.634296 0.0930447 0
0.644204 0.0919773 0
0.654104 0.0908339 0
0.663994 0.0896146 0
0.673875 0.0883196 0
0.683746 0.0869488 0
0.693606 0.0855025 0
0.703455 0.0839806 0
0.713292 0.0823832 0
0.723116 0.0807105 0
0.732927 0.0789625 0
0.742724 0.0771393 0
0.752508 0.0752411 0
0.762276 0.073268 0
0.772029 0.07122 0
0.781766 0.0690974 0
0.791486 0.0669001 0
0.801189 0.0646285 0
0.810875 0.0622825 0
0.820542 0.0598623 0
0.83019 0.0573681 0
0.839819 0.0547999 0
0.849428 0.0521581 0
0.859017 0.0494427 0
0.868584 0.0466538 0
0.87813 0.0437917 0
0.887653 0.0408565 0
0.897154 0.0378484 0
0.906631 0.0347675 0
0.916085 0.0316141 0
0.925514 0.0283883 0
0.934918 0.0250903 0
0.944297 0.0217203 0
0.953649 0.0182786 0
0.962975 0.0147652 0
0.972273 0.0111804 0
0.981544 0.00752451 0
0.990786 0.00379763 0
-1 0.951882 0.1
-1 0.905617 0.1
-1 0.861133 0.1
-1 0.818361 0.1
-1 0.777235 0.1
-1 0.737692 0.1
-1 0.699672 0.1
-1 0.663115 0.1
-1 0.627966 0.1
-1 0.594169 0.1
-1 0.561674 0.1
-1 0.530429 0.1
-1 0.500387 0.1
-1 0.471502 0.1
-1 0.443728 0.1
-1 0.417024 0.1
-1 0.391347 0.1
-1 0.366659 0.1
-1 0.342921 0.1
-1 0.320097 0.1
-1 0.298152 0.1
-1 0.277051 0.1
-1 0.256763 0.1
-1 0.237256 0.1
-1 0.218499 0.1
-1 0.200465 0.1
-1 0.183124 0.1
-1 0.166452 0.1
-1 0.150421 0.1
-1 0.135007 0.1
-1 0.120186 0.1
-1 0.105936 0.1
-1 0.092235 0.1
-1 0.079061 0.1
-1 0.066394 0.1
-1 0.0542147 0.1
-1 0.0425043 0.1
-1 0.0312446 0.1
-1 0.0204183 0.1
-1 0.0100088 0.1
-0.99 0 0.1
-0.98 0 0.1
-0.97 0 0.1
-0.96 0 0.1
-0.95 0 0.1
-0.94 0 0.1
-0.93 0 0.1
-0.92 0 0.1
-0.91 0 0.1
-0.9 0 0.1
-0.89 0 0.1
-0.88 0 0.1
-0.87 0 0.1
-0.86 0 0.1
-0.85 0 0.1
-0.84 0 0.1
-0.83 0 0.1
-0.82 0 0.1
-0.81 0 0.1
-0.8 0 0.1
-0.79 0 0.1
-0.78 0 0.1
-0.77 0 0.1
-0.76 0 0.1
-0.75 0 0.1
-0.74 0 0.1
-0.73 0 0.1
-0.72 0 0.1
-0.71 0 0.1
-0.7 0 0.1
-0.69 0 0.1
-0.68 0 0.1
-0.67 0 0.1
-0.66 0 0.1
-0.65 0 0.1
-0.64 0 0.1
-0.63 0 0.1
-0.62 0 0.1
-0.61 0 0.1
-0.6 0 0.1
-0.59 0 0.1
-0.58 0 0.1
-0.57 0 0.1
-0.56 0 0.1
-0.55 0 0.1
-0.54 0 0.1
-0.53 0 0.1
-0.52 0 0.1
-0.51 0 0.1
-0.5 0 0.1
-0.49 0 0.1
-0.48 0 0.1
-0.47 0 0.1
-0.46 0 0.1
-0.45 0 0.1
-0.44 0 0.1
-0.43 0 0.1
-0.42 0 0.1
-0.41 0 0.1
-0.4 0 0.1
-0.39 0 0.1
-0.38 0 0.1
-0.37 0 0.1
-0.36 0 0.1
-0.35 0 0.1
-0.34 0 0.1
-0.33 0 0.1
-0.32 0 0.1
-0.31 0 0.1
-0.3 0 0.1
-0.29 0 0.1
-0.28 0 0.1
-0.27 0 0.1
-0.26 0 0.1
-0.25 0 0.1
-0.24 0 0.1
-0.23 0 0.1
-0.22 0 0.1
-0.21 0 0.1
-0.2 0 0.1
-0.19 0 0.1
-0.18 0 0.1
-0.17 0 0.1
-0.16 0 0.1
-0.15 0 0.1
-0.14 0 0.1
-0.13 0 0.1
-0.12 0 0.1
-0.11 0 0.1
-0.1 0 0.1
-0.09 0 0.1
-0.08 0 0.1
-0.07 0 0.1
-0.06 0 0.1
-0.05 0 0.1
-0.04 0 0.1
-0.03 0 0.1
-0.02 0 0.1
-0.01 0 0.1
0.00921362 0.00379763 0.1
0.0184561 0.00752451 0.1
0.0277268 0.0111804 0.1
0.0370253 0.0147652 0.1
0.0463511 0.0182786 0.1
0.0557034 0.0217203 0.1
0.0650819 0.0250903 0.1
0.074486 0.0283883 0.1
0.083915 0.0316141 0.1
0.0933685 0.0347675 0.1
0.102846 0.0378484 0.1
0.112347 0.0408565 0.1
0.12187 0.0437917 0.1
0.131416 0.0466538 0.1
0.140983 0.0494427 0.1
0.150572 0.0521581 0.1
0.160181 0.0547999 0.1
0.16981 0.0573681 0.1
0.179458 0.0598623 0.1
0.189125 0.0622825 0.1
0.198811 0.0646285 0.1
0.208514 0.0669001 0.1
0.218234 0.0690974 0.1
0.227971 0.07122 0.1
0.237724 0.073268 0.1
0.247493 0.0752411 0.1
0.257276 0.0771393 0.1
0.267073 0.0789625 0.1
0.276884 0.0807105 0.1
0.286708 0.0823832 0.1
0.296545 0.0839806 0.1
0.306394 0.0855025 0.1
0.316254 0.0869488 0.1
0.326125 0.0883196 0.1
0.336006 0.0896146 0.1
0.345896 0.0908339 0.1
0.355796 0.0919773 0.1
0.365704 0.0930447 0.1
0.375621 0.0940362 0.1
0.385544 0.0949517 0.1
0.395474 0.095791 0.1
0.40541 0.0965542 0.1
0.415352 0.0972412 0.1
0.425299 0.097852 0.1
0.43525 0.0983865 0.1
0.445205 0.0988447 0.1
0.455164 0.0992266 0.1
0.465125 0.0995321 0.1
0.475088 0.0997613 0.1
0.485052 0.0999141 0.1
0.495017 0.0999904 0.1
0.504983 0.0999904 0.1
0.514948 0.0999141 0.1
0.524912 0.0997613 0.1
0.534875 0.0995321 0.1
0.544836 0.0992266 0.1
0.554795 0.0988447 0.1
0.56475 0.0983865 0.1
0.574701 0.097852 0.1
0.584648 0.0972412 0.1
0.59459 0.0965542 0.1
0.604526 0.095791 0.1
0.614456 0.0949517 0.1
0.624379 0.0940362 0.1
0.634296 0.0930447 0.1
0.644204 0.0919773 0.1
0.654104 0.0908339 0.1
0.663994 0.0896146 0.1
0.673875 0.0883196 0.1
0.683746 0.0869488 0.1
0.693606 0.0855025 0.1
0.703455 0.0839806 0.1
0.713292 0.0823832 0.1
0.723116 0.0807105 0.1
0.732927 0.0789625 0.1
0.742724 0.0771393 0.1
0.752508 0.0752411 0.1
0.762276 0.073268 0.1
0.772029 0.07122 0.1
0.781766 0.0690974 0.1
0.791486 0.0669001 0.1
0.801189 0.0646285 0.1
0.810875 0.0622825 0.1
0.820542 0.0598623 0.1
0.83019 0.0573681 0.1
0.839819 0.0547999 0.1
0.849428 0.0521581 0.1
0.859017 0.0494427 0.1
0.868584 0.0466538 0.1
0.87813 0.0437917 0.1
0.887653 0.0408565 0.1
0.897154 0.0378484 0.1
0.906631 0.0347675 0.1
0.916085 0.0316141 0.1
0.925514 0.0283883 0.1
0.934918 0.0250903 0.1
0.944297 0.0217203 0.1
0.953649 0.0182786 0.1
0.962975 0.0147652 0.1
0.972273 0.0111804 0.1
0.981544 0.00752451 0.1
0.990786 0.00379763 0.1
1.01 0 0.1
1.02 0 0.1
1.03 0 0.1
[...]
CELL_DATA 14313
SCALARS rho float
LOOKUP_TABLE default
0.781918
0.824632
0.806114
0.539988
0.76726
0.812745
0.813317
0.813217
0.811192
0.815442
0.812979
0.799065
0.797849
0.52234
0.813647
0.832345
0.809075
0.807907
0.810828
0.805574
0.811642
0.814214
0.813256
0.767006
0.812862
0.814945
0.743101
0.708594
0.824138
0.824829
0.812799
0.794698
0.800301
0.812833
0.804871
0.811415
0.681208
0.809206
0.812423
0.802682
0.753298
0.811305
0.544158
0.703294
0.818228
0.836022
0.81166
0.777845
0.804935
0.852191
0.676912
0.65439
0.593131
0.811328
0.820211
0.783066
0.818214
0.814983
0.810976
0.813132
0.812843
0.819002
0.794676
0.839496
0.811264
0.814055
0.853973
0.784283
0.84094
0.813639
0.798505
0.831911
0.491914
0.837584
0.727919
0.807592
0.825425
0.747772
0.697349
0.812281
0.593387
0.82518
0.833443
0.803593
0.806202
0.819862
0.812725
0.804656
0.826908
0.807199
0.780326
0.527616
0.807598
0.798733
0.727866
0.803922
0.815327
0.809785
0.803482
0.493436
0.807588
0.810462
0.813287
0.814633
0.749193
0.809547
0.802984
0.700436
0.834857
0.810742
0.814055
0.825373
0.812786
0.819893
0.804296
0.827869
0.82036
0.836602
0.779175
0.799549
0.81238
0.809847
0.859642
0.722702
0.844371
0.75439
0.790179
0.804657
0.815341
0.843891
0.810237
0.812829
0.860936
0.813092
0.823785
0.783031
0.807413
0.792521
0.818265
0.817938
0.813316
0.817323
0.803419
0.803504
0.796796
0.839425
0.806092
0.761309
0.796022
0.817964
0.798025
0.80363
0.813259
0.71019
0.821685
0.803813
0.723868
0.821645
0.812871
0.812123
0.819018
0.808966
0.65389
0.758188
0.82363
0.825184
0.715552
0.813407
0.828483
0.816205
0.690015
0.81644
0.713894
0.788545
0.809601
0.826909
0.80884
0.815853
0.821498
0.742872
0.812248
0.810304
0.774075
0.771772
0.790803
0.81152
0.813634
0.797244
0.500036
0.787768
0.758432
0.74403
0.770578
0.715884
0.813105
0.815567
0.807561
0.803502
0.806815
0.817447
0.760806
0.803204
0.828954
0.815548
0.833857
0.803421
0.816783
0.814434
0.812825
0.834891
0.804719
0.811711
0.796461
0.701795
0.814761
0.821363
0.810408
0.807887
0.834913
0.80345
0.802904
0.819486
0.806726
0.855617
0.810121
0.803376
0.818552
0.80264
0.813217
0.75795
0.642585
0.81532
0.698398
0.827342
0.802566
0.723216
0.812713
0.81473
0.815517
0.827075
0.791964
0.708584
0.74876
0.599419
0.815701
0.724579
0.80008
0.807329
0.838078
0.815865
0.577103
0.804199
0.729863
0.837735
0.801921
0.69601
0.811903
0.827512
0.815302
0.560085
0.813456
0.801866
0.799564
0.806617
0.788919
0.774458
0.815946
0.815754
0.533515
0.815338
0.814497
0.77263
0.802243
0.812963
0.78089
0.817846
0.78376
0.710617
0.803056
0.805967
0.569594
0.545741
0.757212
0.808693
0.821025
0.790381
0.812615
0.815524
0.776494
0.806205
0.803615
0.817341
0.829944
0.793755
0.808454
0.812344
0.635673
0.819273
0.702939
0.798075
0.79352
0.778016
0.836008
0.809567
0.797487
0.678183
0.670098
0.804131
0.806421
0.819915
0.804362
0.799187
0.653255
0.815806
0.822502
0.818376
0.812983
0.81362
0.800218
0.791429
0.814913
0.582539
0.808747
0.813104
0.815141
0.813377
0.76604
0.822038
0.801847
0.814949
0.813797
0.754119
0.753408
0.803442
0.803519
0.650713
0.813294
0.812684
0.807837
0.812581
0.803804
0.801089
0.729268
0.712897
0.815114
0.749044
0.758942
0.819158
0.837885
0.81492
0.802929
0.808644
0.813128
0.803597
0.817701
0.783301
0.817633
0.812026
0.811576
0.795629
0.811226
0.792764
0.812766
0.591187
0.800203
0.801024
0.812711
0.813873
0.768279
0.801808
0.813082
0.813286
0.818662
0.770608
0.818577
0.808891
0.753658
0.762078
0.813074
0.806473
0.829669
0.825262
0.823592
0.804986
0.598502
0.779704
0.602888
0.803533
0.803152
0.801474
0.814986
0.874236
0.528803
0.596409
0.838689
0.872201
0.812589
0.691091
0.80283
0.718749
0.807478
0.816427
0.707852
0.652191
0.751972
0.813679
0.487581
0.873768
0.824913
0.79916
0.809035
0.483785
0.74121
0.782312
0.818238
0.805387
0.801329
0.830711
0.813191
0.707072
0.686519
0.801881
0.806362
0.810238
0.812522
0.809013
0.812852
0.736641
0.791467
0.797406
0.802797
0.764811
0.818311
0.808103
0.813675
0.812555
0.756217
0.805731
0.80417
0.793895
0.813041
0.816274
0.80755
0.659013
0.787808
0.818009
0.813034
0.81293
0.807589
0.813473
0.804952
0.821672
0.822041
0.652036
0.855458
0.74473
0.821205
0.805539
0.746508
0.824862
0.801017
0.825986
0.55067
0.80028
0.680756
0.812925
0.809478
0.526306
0.80067
0.804836
0.798217
0.802331
0.801359
0.772901
0.812782
0.595377
0.806018
0.806336
0.799999
0.818925
0.765639
0.812919
0.810224
0.798712
0.816898
0.797353
0.803009
0.813208
0.635416
0.769937
0.735066
0.494062
0.825267
0.570455
0.802796
0.819441
0.856917
0.705808
0.741151
0.813038
0.806341
0.801647
0.794357
0.766788
0.811726
0.813266
0.797565
0.813913
0.816948
0.483026
0.813196
0.814043
0.806486
0.811042
0.606767
0.815846
0.822106
0.708668
0.789112
0.813965
0.801177
0.828995
0.831676
0.804181
0.742513
0.478084
0.814605
0.573003
0.799592
0.803378
0.774684
0.812967
0.7513
0.812209
0.806819
0.803413
0.489908
0.814984
0.827932
0.831056
0.815204
0.803583
0.803303
0.813235
0.758877
0.847676
0.837989
0.71206
0.799453
0.654588
0.778484
0.668909
0.816654
0.836984
0.799753
0.640611
0.766684
0.814436
0.824982
0.832979
0.81408
0.67522
0.540278
0.80534
0.816574
0.802044
0.816634
0.805253
0.772104
0.852325
0.815896
0.804136
0.817398
0.799191
0.744038
0.79881
0.812141
0.598524
0.690104
0.803474
0.811696
0.804952
0.576887
0.812421
0.606242
0.813269
0.768148
0.817408
0.816964
0.753589
0.807203
0.792981
0.805266
0.837821
0.838094
0.831647
0.804904
0.816815
0.581895
0.813293
0.857095
0.825454
0.829769
0.804337
0.821362
0.800012
0.840137
0.809025
0.814633
0.675266
0.634667
0.836182
0.814151
0.840982
0.717631
0.801952
0.764105
0.798052
0.809854
0.793731
0.807717
0.813889
0.823267
0.828597
0.830565
0.805568
0.750345
0.804752
0.731467
0.793908
0.822022
0.801465
0.815335
0.759109
0.805222
0.805093
0.847329
0.809799
0.80344
0.806705
0.834752
0.831759
0.803656
0.856616
0.796419
0.82066
0.665647
0.803242
0.800414
0.799623
0.832195
0.61019
0.806487
0.805683
0.660336
0.815309
0.829827
0.814606
0.80343
0.806343
0.802671
0.816742
0.799695
0.718972
0.516507
0.814185
0.806325
0.802287
0.804859
0.803561
0.803836
0.811561
0.7989
0.814494
0.585075
0.813583
0.809577
0.812769
0.842699
0.814486
0.834773
0.812351
0.798489
0.813623
0.683387
0.803875
0.851327
0.813653
0.793259
0.814928
0.635258
0.805791
0.573909
0.666904
0.676094
0.80972
0.816185
0.812629
0.500817
0.695424
0.803564
0.831267
0.748056
0.832445
0.805275
0.805522
0.797406
0.699661
0.752337
0.550456
0.803014
0.812643
0.805025
0.821299
0.670929
0.655083
0.855239
0.802248
0.814782
0.731138
0.814332
0.529129
0.821419
0.705016
0.814603
0.818133
0.801992
0.802559
0.825716
0.795363
0.803763
0.804552
0.632696
0.80682
0.655584
0.799632
0.799039
0.814502
0.815579
0.72994
0.816048
0.755498
0.803263
0.720085
0.805725
0.745758
0.672551
0.825089
0.813275
0.799921
0.727618
0.812048
0.659686
0.811667
0.803069
0.726999
0.8264
0.817021
0.641421
0.696983
0.826327
0.803729
0.726864
0.834187
0.835186
0.836566
0.812719
0.550496
0.751746
0.8214
0.820916
0.529427
0.641274
0.816292
0.813327
0.724134
0.778835
0.812994
0.807677
0.758935
0.813038
0.814292
0.803629
0.730686
0.802405
0.797588
0.812767
0.579215
0.805705
0.822371
0.576056
0.818775
0.846336
0.81298
0.677615
0.812697
0.812472
0.812792
0.801281
0.819355
0.803464
0.806848
0.804978
0.803372
0.814275
0.500183
0.810556
0.810271
0.694983
0.605992
0.786462
0.799152
0.813022
0.7533
0.576833
0.812344
0.784187
0.813003
0.822079
0.814278
0.825641
0.749002
0.594374
0.812497
0.839705
0.812976
0.706349
0.804084
0.728208
0.81393
0.811833
0.812889
0.818018
0.801445
0.813888
0.80858
0.757531
0.816876
0.813485
0.75263
0.792188
0.712802
0.566117
0.734978
0.782251
0.816461
0.812242
0.811418
0.811345
0.803359
0.796002
0.808221
0.704608
0.753309
0.812527
0.803546
0.804975
0.818633
0.607023
0.814345
0.803994
0.843874
0.808664
0.639129
0.793956
0.804003
0.84277
0.693828
0.564818
0.578931
0.636517
0.818225
0.804738
0.563639
0.589911
0.820569
0.813097
0.889422
0.804932
0.829801
0.813299
0.76948
0.811655
0.813426
0.813016
0.811497
0.812981
0.798829
0.812915
0.64871
0.816407
0.803706
0.810306
0.756399
0.817821
0.612211
0.856709
0.80402
0.827482
0.812983
0.808162
0.747659
0.823043
0.812694
0.837823
0.812755
0.813309
0.644603
0.827237
0.811116
0.813242
0.83693
0.823144
0.556026
0.797317
0.803542
0.811676
0.817225
0.804031
0.80073
0.81593
0.765848
0.805679
0.816554
0.863677
0.831632
0.590667
0.79667
0.754853
0.81479
0.762278
0.82
0.805009
0.806548
0.813129
0.789634
0.806206
0.815708
0.822251
0.787676
0.673444
0.735359
0.701374
0.814837
0.836822
0.838793
0.735065
0.809588
0.75383
0.612087
0.812984
0.800134
0.812765
0.803654
0.634052
0.802411
0.777005
0.736475
0.811713
0.744473
0.808325
0.817082
0.860028
0.809869
0.807313
0.740684
0.813354
0.776427
0.839757
0.883904
0.79785
0.523317
0.800481
0.610016
0.769951
0.658457
0.799341
0.499322
0.81572
0.850806
0.806086
0.81158
0.820305
0.803601
0.803291
0.698003
0.823723
0.81282
0.804262
0.807289
0.792722
0.803647
0.807413
0.63162
0.817209
0.80276
0.846158
0.808759
0.804602
0.80219
0.813722
0.813839
0.808287
0.8036
0.788131
0.813069
0.795763
0.802581
0.814055
0.772537
0.569233
0.813508
0.818795
0.804219
0.723531
0.801942
0.80832
0.803526
0.701103
0.874493
0.812587
0.817334
0.812986
0.848834
0.778737
0.813033
0.78822
0.816474
0.822613
0.66441
0.813064
0.729471
0.819295
0.720825
0.800273
0.752239
0.803194
0.662485
0.810083
0.734099
0.480967
0.820593
0.663009
0.769121
0.817871
0.813192
0.77716
0.812155
0.721313
0.63937
0.826663
0.708768
0.817372
0.768157
0.801933
0.808078
0.814053
0.653428
0.804543
0.774822
0.810537
0.81282
0.829866
0.806274
0.68892
0.756103
0.653782
0.798986
0.803771
0.812908
0.816053
0.812145
0.812483
0.81032
0.664811
0.7321
0.507908
0.699051
0.814644
0.808836
0.833425
0.809652
0.815416
0.705924
0.875401
0.815874
0.826704
0.574042
0.823427
0.813071
0.841071
0.845853
0.826914
0.830898
0.820778
0.54311
0.805901
0.815533
0.713955
0.817401
0.802075
0.813018
0.80818
0.813411
0.813433
0.768097
0.719412
0.798828
0.80085
0.574225
0.814757
0.859292
0.815996
0.663588
0.823283
0.813901
0.820137
0.836049
0.70488
0.490666
0.804975
0.840209
0.806204
0.804358
0.814943
0.801757
0.812612
0.810377
0.800532
0.804368
0.804808
0.813312
0.80569
0.806375
0.799386
0.836686
0.831143
0.853519
0.813703
0.808124
0.815175
0.813784
0.812995
0.811857
0.816214
0.834292
0.808762
0.811935
0.605815
0.830991
0.706352
0.868395
0.80374
0.833594
0.799817
0.786444
0.786365
0.73971
0.821941
0.811175
0.812285
0.814155
0.77634
0.808658
0.586089
0.806237
0.813793
0.813911
0.795942
0.812943
0.612387
0.783892
0.560305
0.821297
0.797739
0.775096
0.802742
0.814409
0.813279
0.813303
0.737082
0.809008
0.812832
0.811128
0.80376
0.803948
0.747084
0.768209
0.809939
0.803827
0.699863
0.599865
0.493552
0.841375
0.806204
0.779155
0.781612
0.824577
0.803652
0.804051
0.818662
0.779677
0.756978
0.816826
0.808209
0.811812
0.837517
0.805056
0.812671
0.808415
0.487573
0.803549
0.812808
0.774351
0.81999
0.814939
0.82611
0.604401
0.709277
0.575557
0.828603
0.816245
0.74423
0.812071
0.677963
0.814493
0.811182
0.812829
0.803674
0.8121
0.578762
0.687989
0.806727
0.814081
0.79391
0.801991
0.831401
0.799508
0.803304
0.646382
0.808392
0.812891
0.804509
0.813124
0.802795
0.619171
0.815036
0.813234
0.574487
0.700736
0.793844
0.829013
0.700142
0.804131
0.793927
0.813031
0.756676
0.686038
0.811354
0.796139
0.800111
0.766785
0.543686
0.820774
0.674724
0.748807
0.730614
0.804059
0.798149
0.81238
0.662402
0.76815
0.80411
0.815699
0.59416
0.799719
0.826076
0.807829
0.542463
0.805753
0.783803
0.710232
0.709014
0.800572
0.819736
0.813803
0.809388
0.703009
0.740392
0.642778
0.83278
0.843175
0.817505
0.788474
0.865424
0.69967
0.814127
0.767417
0.790686
0.795795
0.812904
0.804095
0.812504
0.787264
0.756168
0.820352
0.797596
0.8425
0.72017
0.791562
0.805665
0.72405
0.803798
0.815199
0.577816
0.802087
0.799756
0.802846
0.821766
0.764995
0.800426
0.723535
0.813045
0.80899
0.72614
0.813044
0.816853
0.829145
0.805798
0.787635
0.798495
0.805947
0.725406
0.813307
0.802031
0.679361
0.807202
0.780729
0.832278
0.821293
0.819588
0.83971
0.84936
0.702049
0.814482
0.796039
0.78764
0.618833
0.817447
0.804377
0.813111
0.776892
0.853735
0.833164
0.782203
0.842978
0.780224
0.80075
0.772576
0.813101
0.722623
0.637131
0.844527
0.662991
0.79301
0.840027
0.813286
0.67282
0.809399
0.752579
0.804166
0.799184
0.782084
0.804272
0.801924
0.802965
0.802062
0.785983
0.812914
0.781992
0.816942
0.807699
0.71469
0.784388
0.815422
0.813309
0.805656
0.56603
0.825549
0.813555
0.812887
0.706714
0.805006
0.801505
0.802126
0.816588
0.74634
0.816667
0.801227
0.805097
0.756245
0.81238
0.812937
0.806506
0.769646
0.808658
0.813717
0.808202
0.816318
0.80896
0.806199
0.82349
0.804723
0.789287
0.806998
0.813078
0.818437
0.779549
0.704536
0.814528
0.812405
0.80155
0.74358
0.789127
0.65529
0.803438
0.54287
0.803263
0.815157
0.775431
0.835018
0.521855
0.810265
0.739211
0.811407
0.536881
0.804953
0.828692
0.814086
0.819362
0.735713
0.841336
0.556933
0.823965
0.70403
0.800419
0.491529
0.671061
0.813381
0.812985
0.742797
0.80178
0.821279
0.613394
0.822432
0.770834
0.833955
0.812993
0.814794
0.813931
0.803926
0.837865
0.81124
0.803899
0.481898
0.803215
0.843861
0.802583
0.802067
0.768182
0.806111
0.812896
0.813056
0.79747
0.735069
0.811188
0.816198
0.604433
0.804328
0.553185
0.816361
0.543843
0.812928
0.77112
0.683968
0.732774
0.78322
0.714468
0.842469
0.814032
0.797394
0.804141
0.704335
0.802689
0.789996
0.802632
0.815472
0.802374
0.730263
0.701313
0.801395
0.772872
0.521692
0.812113
0.667393
0.794393
0.703118
0.825487
0.810314
0.825598
0.810667
0.837833
0.80803
0.584177
0.829832
0.807786
0.802345
0.816145
0.81292
0.813398
0.814805
0.82565
0.817076
0.620309
0.804875
0.800774
0.813724
0.693167
0.802452
0.824067
0.757062
0.689649
0.808034
0.691456
0.732564
0.810722
0.813551
0.669749
0.841834
0.767671
0.805514
0.797319
0.810742
0.844859
0.80128
0.543124
0.81562
0.704001
0.647273
0.778216
0.759215
0.770206
0.813101
0.803559
0.816924
0.812982
0.587442
0.787678
0.832253
0.813013
0.593235
0.723958
0.638463
0.817339
0.811311
0.691914
0.804124
0.813026
0.80018
0.835155
0.609153
0.84075
0.740088
0.812811
0.813335
0.673481
0.813336
0.719356
0.792323
0.714768
0.812567
0.785216
0.635763
0.725121
0.714369
0.833531
0.810296
0.81995
0.822619
0.803397
0.808754
0.803615
0.818143
0.803432
0.690342
0.803679
0.604938
0.777449
0.807325
0.803025
0.813074
0.824817
0.803361
0.719372
0.705586
0.668879
0.791009
0.817262
0.74858
0.590247
0.752351
0.811213
0.801996
0.760881
0.8042
0.823528
0.753896
0.570679
0.703533
0.799424
0.813074
0.864549
0.81542
0.812719
0.852107
0.800404
0.802045
0.815155
0.813142
0.806055
0.719012
0.809326
0.697409
0.862509
0.779475
0.814227
0.587227
0.797377
0.531773
0.584879
0.594222
0.808672
0.803692
0.810005
0.759241
0.803613
0.535376
0.783026
0.803785
0.735955
0.815047
0.802498
0.816539
0.843238
0.624398
0.812696
0.802175
0.810517
0.816983
0.813706
0.813233
0.755095
0.798022
0.799038
0.803313
0.798425
0.8115
0.846394
0.81921
0.725047
0.804854
0.625719
0.814013
0.813002
0.588922
0.76755
0.76761
0.539537
0.785041
0.803741
0.878453
0.799222
0.813815
0.756247
0.794679
0.797917
0.809835
0.783092
0.54468
0.707264
0.681609
0.781497
0.815292
0.803112
0.82213
0.790547
0.802525
0.813635
0.79894
0.852465
0.707827
0.812807
0.781127
0.534033
0.529412
0.813744
0.803653
0.805605
0.562674
0.797167
0.803844
0.660315
0.81451
0.791337
0.807332
0.815534
0.557947
0.723619
0.720969
0.813306
0.832931
0.632283
0.790146
0.714923
0.814387
0.827729
0.779894
0.77393
0.539108
0.812354
0.802475
0.724465
0.853263
0.805947
0.725086
0.740646
0.764683
0.811769
0.565342
0.7969
0.73804
0.800463
0.822666
0.718143
0.800041
0.812419
0.717359
0.813246
0.707048
0.816702
0.799068
0.759478
0.693652
0.809581
0.800176
0.814185
0.67076
0.8055
0.805612
0.812553
0.700551
0.813072
0.809144
0.832145
0.67866
0.816217
0.741545
0.812871
0.806489
0.842603
0.803795
0.819569
0.749615
0.81592
0.839222
0.833291
0.816963
0.846686
0.752474
0.848843
0.826823
0.804541
0.826122
0.80591
0.647853
0.778763
0.814704
0.74776
0.697253
0.799294
0.804837
0.686563
0.798292
0.540659
0.849523
0.699744
0.707306
0.814361
0.775042
0.807421
0.799144
0.807467
0.803998
0.812888
0.836591
0.73193
0.772811
0.59062
0.810995
0.777353
0.811343
0.805236
0.571998
0.803004
0.802594
0.808319
0.799445
0.817424
0.808315
0.70662
0.823702
0.849067
0.685609
0.744575
0.813084
0.801728
0.714695
0.814907
0.755354
0.797048
0.803079
0.805575
0.837587
0.670124
0.722255
0.800926
0.703371
0.772975
0.832569
0.534645
0.692878
0.799724
0.804407
0.803423
0.74167
0.82296
0.807653
0.803753
0.808315
0.814126
0.697041
0.652463
0.809845
0.814603
0.799994
0.872974
0.803235
0.813268
0.799199
0.810695
0.811917
0.808611
0.655672
0.814968
0.817288
0.803543
0.802673
0.8002
0.618744
0.810455
0.811395
0.813322
0.863493
0.815172
0.801705
0.48555
0.836877
0.696678
0.826934
0.80648
0.814079
0.824835
0.810077
0.812965
0.732794
0.553731
0.497413
0.813218
0.809803
0.537528
0.795839
0.815237
0.833916
0.507959
0.809856
0.814219
0.802871
0.80936
0.534581
0.813944
0.808436
0.562204
0.813126
0.816004
0.541833
0.809563
0.813504
0.776392
0.806884
0.811617
0.810502
0.79976
0.82641
0.536503
0.830968
0.816044
0.804173
0.743143
0.786733
0.812303
0.809705
0.802983
0.816566
0.800836
0.661499
0.806959
0.669893
0.812967
0.661163
0.747379
0.797183
0.719255
0.803597
0.581444
0.850075
0.813141
0.813173
0.800133
0.80296
0.80322
0.813911
0.815145
0.671304
0.720041
0.728067
0.815543
0.723712
0.610334
0.817918
0.784322
0.828357
0.812473
0.809631
0.733382
0.539789
0.798955
0.790736
0.500827
0.814644
0.813858
0.73635
0.80619
0.769163
0.610174
0.810688
0.814942
0.789279
0.611355
0.802496
0.78338
0.826903
0.813829
0.811387
0.812098
0.813696
0.713468
0.800592
0.816476
0.698622
0.485168
0.734734
0.798988
0.732317
0.813863
0.798983
0.80573
0.78298
0.867579
0.803588
0.801841
0.826289
0.859635
0.804742
0.816322
0.795062
0.81663
0.789503
0.74479
0.812164
0.804389
0.816913
0.803328
0.791522
0.843205
0.766554
0.813602
0.773979
0.804219
0.643799
0.512824
0.80118
0.802396
0.810501
0.798351
0.800199
0.812931
0.773306
0.805228
0.812992
0.78279
0.817475
0.777249
0.59565
0.805223
0.76098
0.776747
0.751384
0.763801
0.794212
0.788906
0.823348
0.787835
0.809596
0.803406
0.76592
0.816265
0.545043
0.730991
0.811391
0.814743
0.812323
0.80301
0.813622
0.810999
0.805941
0.821782
0.809866
0.783373
0.817295
0.802429
0.791183
0.796166
0.80532
0.58806
0.803767
0.792475
0.577155
0.813644
0.807419
0.806183
0.810945
0.703748
0.75457
0.82174
0.775027
0.811621
0.81704
0.72032
0.80461
0.824675
0.721248
0.79969
0.810359
0.779174
0.805362
0.837845
0.80216
0.818026
0.773138
0.805459
0.800966
0.813897
0.802938
0.798755
0.591171
0.815975
0.787492
0.806783
0.826192
0.694911
0.829087
0.820415
0.50917
0.807001
0.804577
0.802354
0.813105
0.824721
0.824634
0.805047
0.806616
0.814964
0.813636
0.803595
0.81338
0.805342
0.749877
0.71108
0.781576
0.814484
0.812834
0.776479
0.758479
0.814156
0.825392
0.810775
0.813137
0.695672
0.504503
0.747833
0.818231
0.807413
0.816962
0.844532
0.800663
0.717199
0.656921
0.80053
0.805409
0.696324
0.813555
0.674581
0.837233
0.730181
0.813615
0.89538
0.815833
0.801569
0.778445
0.81137
0.684058
0.814468
0.808991
0.791834
0.806317
0.77954
0.801416
0.810205
0.781304
0.80365
0.852398
0.777348
0.802226
0.498663
0.803673
0.69489
0.804206
0.794684
0.788784
0.784232
0.723049
0.802815
0.788832
0.844863
0.814127
0.813347
0.812724
0.895635
0.74751
0.802912
0.732758
0.80321
0.79924
0.804866
0.718286
0.801687
0.805738
0.643151
0.809361
0.749402
0.549143
0.846902
0.847716
0.751022
0.811031
0.794964
0.772769
0.733475
0.776545
0.785903
0.737031
0.803998
0.80488
0.721688
0.816068
0.805126
0.560395
0.812982
0.822172
0.813885
0.803612
0.612295
0.717453
0.806462
0.859486
0.489486
0.725908
0.806923
0.816234
0.797054
0.712365
0.713561
0.809193
0.814079
0.81577
0.837537
0.745029
0.755414
0.875953
0.80719
0.810213
0.795452
0.643259
0.60821
0.588382
0.659239
0.590964
0.765223
0.801446
0.803879
0.813114
0.809622
0.811662
0.860461
0.718207
0.824444
0.814703
0.817784
0.817357
0.814634
0.813828
0.81243