# vtk DataFile Version 1.0
unstructured grid
ascii
DATASET UNSTRUCTURED_GRID
points 14760 float
-1 0 0
-1 1 0
2 0 0
2 1 0
0 0 0
1 0 0
-1 1 0.1
-1 0 0.1
0 0 0.1
1 0 0.1
2 0 0.1
2 1 0.1
-0.99 0 0
-0.98 0 0
-0.97 0 0
-0.96 0 0
-0.95 0 0
-0.94 0 0
-0.93 0 0
-0.92 0 0
-0.91 0 0
-0.9 0 0
-0.89 0 0
-0.88 0 0
-0.87 0 0
-0.86 0 0
-0.85 0 0
-0.84 0 0
-0.83 0 0
-0.82 0 0
-0.81 0 0
-0.8 0 0
-0.79 0 0
-0.78 0 0
-0.77 0 0
-0.76 0 0
-0.75 0 0
-0.74 0 0
-0.73 0 0
-0.72 0 0
-0.71 0 0
-0.7 0 0
-0.69 0 0
-0.68 0 0
-0.67 0 0
-0.66 0 0
-0.65 0 0
-0.64 0 0
-0.63 0 0
-0.62 0 0
-0.61 0 0
-0.6 0 0
-0.59 0 0
-0.58 0 0
-0.57 0 0
-0.56 0 0
-0.55 0 0
-0.54 0 0
-0.53 0 0
-0.52 0 0
-0.51 0 0
-0.5 0 0
-0.49 0 0
-0.48 0 0
-0.47 0 0
-0.46 0 0
-0.45 0 0
-0.44 0 0
-0.43 0 0
-0.42 0 0
-0.41 0 0
-0.4 0 0
-0.39 0 0
-0.38 0 0
-0.37 0 0
-0.36 0 0
-0.35 0 0
-0.34 0 0
-0.33 0 0
-0.32 0 0
-0.31 0 0
-0.3 0 0
-0.29 0 0
-0.28 0 0
-0.27 0 0
-0.26 0 0
-0.25 0 0
-0.24 0 0
-0.23 0 0
-0.22 0 0
-0.21 0 0
-0.2 0 0
-0.19 0 0
-0.18 0 0
-0.17 0 0
-0.16 0 0
-0.15 0 0
-0.14 0 0
-0.13 0 0
-0.12 0 0
-0.11 0 0
-0.1 0 0
-0.09 0 0
-0.08 0 0
-0.07 0 0
-0.06 0 0
-0.05 0 0
-0.04 0 0
-0.03 0 0
-0.02 0 0
-0.01 0 0
1.01 0 0
1.02 0 0
1.03 0 0
1.04 0 0
1.05 0 0
1.06 0 0
1.07 0 0
1.08 0 0
1.09 0 0
1.1 0 0
1.11 0 0
1.12 0 0
1.13 0 0
1.14 0 0
1.15 0 0
1.16 0 0
1.17 0 0
1.18 0 0
1.19 0 0
1.2 0 0
1.21 0 0
1.22 0 0
1.23 0 0
1.24 0 0
1.25 0 0
1.26 0 0
1.27 0 0
1.28 0 0
1.29 0 0
1.3 0 0
1.31 0 0
1.32 0 0
1.33 0 0
1.34 0 0
1.35 0 0
1.36 0 0
1.37 0 0
1.38 0 0
1.39 0 0
1.4 0 0
1.41 0 0
1.42 0 0
1.43 0 0
1.44 0 0
1.45 0 0
1.46 0 0
1.47 0 0
1.48 0 0
1.49 0 0
1.5 0 0
1.51 0 0
1.52 0 0
1.53 0 0
1.54 0 0
1.55 0 0
1.56 0 0
1.57 0 0
1.58 0 0
1.59 0 0
1.6 0 0
1.61 0 0
1.62 0 0
1.63 0 0
1.64 0 0
1.65 0 0
1.66 0 0
1.67 0 0
1.68 0 0
1.69 0 0
1.7 0 0
1.71 0 0
1.72 0 0
1.73 0 0
1.74 0 0
1.75 0 0
1.76 0 0
1.77 0 0
1.78 0 0
1.79 0 0
1.8 0 0
1.81 0 0
1.82 0 0
1.83 0 0
1.84 0 0
1.85 0 0
1.86 0 0
1.87 0 0
1.88 0 0
1.89 0 0
1.9 0 0
1.91 0 0
1.92 0 0
1.93 0 0
1.94 0 0
1.95 0 0
1.96 0 0
1.97 0 0
1.98 0 0
1.99 0 0
2 0.0100088 0
2 0.0204183 0
2 0.0312446 0
2 0.0425043 0
2 0.0542147 0
2 0.066394 0
2 0.079061 0
2 0.092235 0
2 0.105936 0
2 0.120186 0
2 0.135007 0
2 0.150421 0
2 0.166452 0
2 0.183124 0
2 0.200465 0
2 0.218499 0
2 0.237256 0
2 0.256763 0
2 0.277051 0
2 0.298152 0
2 0.320097 0
2 0.342921 0
2 0.366659 0
2 0.391347 0
2 0.417024 0
2 0.443728 0
2 0.471502 0
2 0.500387 0
2 0.530429 0
2 0.561674 0
2 0.594169 0
2 0.627966 0
2 0.663115 0
2 0.699672 0
2 0.737692 0
2 0.777235 0
2 0.818361 0
2 0.861133 0
2 0.905617 0
2 0.951882 0
1.95 1 0
1.9 1 0
1.85 1 0
1.8 1 0
1.75 1 0
1.7 1 0
1.65 1 0
1.6 1 0
1.55 1 0
1.5 1 0
1.45 1 0
1.4 1 0
1.35 1 0
1.3 1 0
1.25 1 0
1.2 1 0
1.15 1 0
1.1 1 0
1.05 1 0
1 1 0
0.95 1 0
0.9 1 0
0.85 1 0
0.8 1 0
0.75 1 0
0.7 1 0
0.65 1 0
0.6 1 0
0.55 1 0
0.5 1 0
0.45 1 0
0.4 1 0
0.35 1 0
0.3 1 0
0.25 1 0
0.2 1 0
0.15 1 0
0.1 1 0
0.05 1 0
3.69793e-12 1 0
-0.05 1 0
-0.1 1 0
-0.15 1 0
-0.2 1 0
-0.25 1 0
-0.3 1 0
-0.35 1 0
-0.4 1 0
-0.45 1 0
-0.5 1 0
-0.55 1 0
-0.6 1 0
-0.65 1 0
-0.7 1 0
-0.75 1 0
-0.8 1 0
-0.85 1 0
-0.9 1 0
-0.95 1 0
-1 0.951882 0
-1 0.905617 0
-1 0.861133 0
-1 0.818361 0
-1 0.777235 0
-1 0.737692 0
-1 0.699672 0
-1 0.663115 0
-1 0.627966 0
-1 0.594169 0
-1 0.561674 0
-1 0.530429 0
-1 0.500387 0
-1 0.471502 0
-1 0.443728 0
-1 0.417024 0
-1 0.391347 0
-1 0.366659 0
-1 0.342921 0
-1 0.320097 0
-1 0.298152 0
-1 0.277051 0
-1 0.256763 0
-1 0.237256 0
-1 0.218499 0
-1 0.200465 0
-1 0.183124 0
-1 0.166452 0
-1 0.150421 0
-1 0.135007 0
-1 0.120186 0
-1 0.105936 0
-1 0.092235 0
-1 0.079061 0
-1 0.066394 0
-1 0.0542147 0
-1 0.0425043 0
-1 0.0312446 0
-1 0.0204183 0
-1 0.0100088 0
0.00921362 0.00379763 0
0.0184561 0.00752451 0
0.0277268 0.0111804 0
0.0370253 0.0147652 0
0.0463511 0.0182786 0
0.0557034 0.0217203 0
0.0650819 0.0250903 0
0.074486 0.0283883 0
0.083915 0.0316141 0
0.0933685 0.0347675 0
0.102846 0.0378484 0
0.112347 0.0408565 0
0.12187 0.0437917 0
0.131416 0.0466538 0
0.140983 0.0494427 0
0.150572 0.0521581 0
0.160181 0.0547999 0
0.16981 0.0573681 0
0.179458 0.0598623 0
0.189125 0.0622825 0
0.198811 0.0646285 0
0.208514 0.0669001 0
0.218234 0.0690974 0
0.227971 0.07122 0
0.237724 0.073268 0
0.247493 0.0752411 0
0.257276 0.0771393 0
0.267073 0.0789625 0
0.276884 0.0807105 0
0.286708 0.0823832 0
0.296545 0.0839806 0
0.306394 0.0855025 0
0.316254 0.0869488 0
0.326125 0.0883196 0
0.336006 0.0896146 0
0.345896 0.0908339 0
0.355796 0.0919773 0
0.365704 0.0930447 0
0.375621 0.0940362 0
0.385544 0.0949517 0
0.395474 0.095791 0
0.40541 0.0965542 0
0.415352 0.0972412 0
0.425299 0.097852 0
0.43525 0.0983865 0
0.445205 0.0988447 0
0.455164 0.0992266 0
0.465125 0.0995321 0
0.475088 0.0997613 0
0.485052 0.0999141 0
0.495017 0.0999904 0
0.504983 0.0999904 0
0.514948 0.0999141 0
0.524912 0.0997613 0
0.534875 0.0995321 0
0.544836 0.0992266 0
0.554795 0.0988447 0
0.56475 0.0983865 0
0.574701 0.097852 0
0.584648 0.0972412 0
0.59459 0.0965542 0
0.604526 0.095791 0
0.614456 0.0949517 0
0.624379 0.0940362 0
0.634296 0.0930447 0
0.644204 0.0919773 0
0.654104 0.0908339 0
0.663994 0.0896146 0
0.673875 0.0883196 0
0.683746 0.0869488 0
0.693606 0.0855025 0
0.703455 0.0839806 0
0.713292 0.0823832 0
0.723116 0.0807105 0
0.732927 0.0789625 0
0.742724 0.0771393 0
0.752508 0.0752411 0
0.762276 0.073268 0
0.772029 0.07122 0
0.781766 0.0690974 0
0.791486 0.0669001 0
0.801189 0.0646285 0
0.810875 0.0622825 0
0.820542 0.0598623 0
0.83019 0.0573681 0
0.839819 0.0547999 0
0.849428 0.0521581 0
0.859017 0.0494427 0
0.868584 0.0466538 0
0.87813 0.0437917 0
0.887653 0.0408565 0
0.897154 0.0378484 0
0.906631 0.0347675 0
0.916085 0.0316141 0
0.925514 0.0283883 0
0.934918 0.0250903 0
0.944297 0.0217203 0
0.953649 0.0182786 0
0.962975 0.0147652 0
0.972273 0.0111804 0
0.981544 0.00752451 0
0.990786 0.00379763 0
-1 0.951882 0.1
-1 0.905617 0.1
-1 0.861133 0.1
-1 0.818361 0.1
-1 0.777235 0.1
-1 0.737692 0.1
-1 0.699672 0.1
-1 0.663115 0.1
-1 0.627966 0.1
-1 0.594169 0.1
-1 0.561674 0.1
-1 0.530429 0.1
-1 0.500387 0.1
-1 0.471502 0.1
-1 0.443728 0.1
-1 0.417024 0.1
-1 0.391347 0.1
-1 0.366659 0.1
-1 0.342921 0.1
-1 0.320097 0.1
-1 0.298152 0.1
-1 0.277051 0.1
-1 0.256763 0.1
-1 0.237256 0.1
-1 0.218499 0.1
-1 0.200465 0.1
-1 0.183124 0.1
-1 0.166452 0.1
-1 0.150421 0.1
-1 0.135007 0.1
-1 0.120186 0.1
-1 0.105936 0.1
-1 0.092235 0.1
-1 0.079061 0.1
-1 0.066394 0.1
-1 0.0542147 0.1
-1 0.0425043 0.1
-1 0.0312446 0.1
-1 0.0204183 0.1
-1 0.0100088 0.1
-0.99 0 0.1
-0.98 0 0.1
-0.97 0 0.1
-0.96 0 0.1
-0.95 0 0.1
-0.94 0 0.1
-0.93 0 0.1
-0.92 0 0.1
-0.91 0 0.1
-0.9 0 0.1
-0.89 0 0.1
-0.88 0 0.1
-0.87 0 0.1
-0.86 0 0.1
-0.85 0 0.1
-0.84 0 0.1
-0.83 0 0.1
-0.82 0 0.1
-0.81 0 0.1
-0.8 0 0.1
-0.79 0 0.1
-0.78 0 0.1
-0.77 0 0.1
-0.76 0 0.1
-0.75 0 0.1
-0.74 0 0.1
-0.73 0 0.1
-0.72 0 0.1
-0.71 0 0.1
-0.7 0 0.1
-0.69 0 0.1
-0.68 0 0.1
-0.67 0 0.1
-0.66 0 0.1
-0.65 0 0.1
-0.64 0 0.1
-0.63 0 0.1
-0.62 0 0.1
-0.61 0 0.1
-0.6 0 0.1
-0.59 0 0.1
-0.58 0 0.1
-0.57 0 0.1
-0.56 0 0.1
-0.55 0 0.1
-0.54 0 0.1
-0.53 0 0.1
-0.52 0 0.1
-0.51 0 0.1
-0.5 0 0.1
-0.49 0 0.1
-0.48 0 0.1
-0.47 0 0.1
-0.46 0 0.1
-0.45 0 0.1
-0.44 0 0.1
-0.43 0 0.1
-0.42 0 0.1
-0.41 0 0.1
-0.4 0 0.1
-0.39 0 0.1
-0.38 0 0.1
-0.37 0 0.1
-0.36 0 0.1
-0.35 0 0.1
-0.34 0 0.1
-0.33 0 0.1
-0.32 0 0.1
-0.31 0 0.1
-0.3 0 0.1
-0.29 0 0.1
-0.28 0 0.1
-0.27 0 0.1
-0.26 0 0.1
-0.25 0 0.1
-0.24 0 0.1
-0.23 0 0.1
-0.22 0 0.1
-0.21 0 0.1
-0.2 0 0.1
-0.19 0 0.1
-0.18 0 0.1
-0.17 0 0.1
-0.16 0 0.1
-0.15 0 0.1
-0.14 0 0.1
-0.13 0 0.1
-0.12 0 0.1
-0.11 0 0.1
-0.1 0 0.1
-0.09 0 0.1
-0.08 0 0.1
-0.07 0 0.1
-0.06 0 0.1
-0.05 0 0.1
-0.04 0 0.1
-0.03 0 0.1
-0.02 0 0.1
-0.01 0 0.1
0.00921362 0.00379763 0.1
0.0184561 0.00752451 0.1
0.0277268 0.0111804 0.1
0.0370253 0.0147652 0.1
0.0463511 0.0182786 0.1
0.0557034 0.0217203 0.1
0.0650819 0.0250903 0.1
0.074486 0.0283883 0.1
0.083915 0.0316141 0.1
0.0933685 0.0347675 0.1
0.102846 0.0378484 0.1
0.112347 0.0408565 0.1
0.12187 0.0437917 0.1
0.131416 0.0466538 0.1
0.140983 0.0494427 0.1
0.150572 0.0521581 0.1
0.160181 0.0547999 0.1
0.16981 0.0573681 0.1
0.179458 0.0598623 0.1
0.189125 0.0622825 0.1
0.198811 0.0646285 0.1
0.208514 0.0669001 0.1
0.218234 0.0690974 0.1
0.227971 0.07122 0.1
0.237724 0.073268 0.1
0.247493 0.0752411 0.1
0.257276 0.0771393 0.1
0.267073 0.0789625 0.1
0.276884 0.0807105 0.1
0.286708 0.0823832 0.1
0.296545 0.0839806 0.1
0.306394 0.0855025 0.1
0.316254 0.0869488 0.1
0.326125 0.0883196 0.1
0.336006 0.0896146 0.1
0.345896 0.0908339 0.1
0.355796 0.0919773 0.1
0.365704 0.0930447 0.1
0.375621 0.0940362 0.1
0.385544 0.0949517 0.1
0.395474 0.095791 0.1
0.40541 0.0965542 0.1
0.415352 0.0972412 0.1
0.425299 0.097852 0.1
0.43525 0.0983865 0.1
0.445205 0.0988447 0.1
0.455164 0.0992266 0.1
0.465125 0.0995321 0.1
0.475088 0.0997613 0.1
0.485052 0.0999141 0.1
0.495017 0.0999904 0.1
0.504983 0.0999904 0.1
0.514948 0.0999141 0.1
0.524912 0.0997613 0.1
0.534875 0.0995321 0.1
0.544836 0.0992266 0.1
0.554795 0.0988447 0.1
0.56475 0.0983865 0.1
0.574701 0.097852 0.1
0.584648 0.0972412 0.1
0.59459 0.0965542 0.1
0.604526 0.095791 0.1
0.614456 0.0949517 0.1
0.624379 0.0940362 0.1
0.634296 0.0930447 0.1
0.644204 0.0919773 0.1
0.654104 0.0908339 0.1
0.663994 0.0896146 0.1
0.673875 0.0883196 0.1
0.683746 0.0869488 0.1
0.693606 0.0855025 0.1
0.703455 0.0839806 0.1
0.713292 0.0823832 0.1
0.723116 0.0807105 0.1
0.732927 0.0789625 0.1
0.742724 0.0771393 0.1
0.752508 0.0752411 0.1
0.762276 0.073268 0.1
0.772029 0.07122 0.1
0.781766 0.0690974 0.1
0.791486 0.0669001 0.1
0.801189 0.0646285 0.1
0.810875 0.0622825 0.1
0.820542 0.0598623 0.1
0.83019 0.0573681 0.1
0.839819 0.0547999 0.1
0.849428 0.0521581 0.1
0.859017 0.0494427 0.1
0.868584 0.0466538 0.1
0.87813 0.0437917 0.1
0.887653 0.0408565 0.1
0.897154 0.0378484 0.1
0.906631 0.0347675 0.1
0.916085 0.0316141 0.1
0.925514 0.0283883 0.1
0.934918 0.0250903 0.1
0.944297 0.0217203 0.1
0.953649 0.0182786 0.1
0.962975 0.0147652 0.1
0.972273 0.0111804 0.1
0.981544 0.00752451 0.1
0.990786 0.00379763 0.1
1.01 0 0.1
1.02 0 0.1
1.03 0 0.1
[...]
CELL_DATA 14313
SCALARS rho float
LOOKUP_TABLE default
0.781298
0.82417
0.805881
0.537437
0.766234
0.811727
0.812398
0.812284
0.810998
0.815112
0.811963
0.798865
0.79696
0.517133
0.812768
0.831838
0.808752
0.807702
0.809984
0.805337
0.81063
0.813913
0.81233
0.765974
0.81196
0.814615
0.742357
0.709788
0.823691
0.824287
0.811825
0.794466
0.79946
0.811931
0.804662
0.810581
0.679639
0.808889
0.811517
0.802341
0.752487
0.810298
0.541641
0.701919
0.817538
0.835673
0.810782
0.777387
0.804371
0.850924
0.675338
0.653146
0.589047
0.810493
0.819589
0.782634
0.817524
0.814669
0.810791
0.812238
0.811834
0.818318
0.794444
0.839162
0.810258
0.813216
0.852665
0.783867
0.840507
0.81276
0.798298
0.831401
0.486951
0.837152
0.725805
0.806871
0.824547
0.747044
0.696364
0.811301
0.591799
0.82464
0.833087
0.803466
0.805481
0.819201
0.811709
0.804445
0.826522
0.806986
0.779845
0.5224
0.80729
0.797855
0.72574
0.803828
0.814548
0.808838
0.803211
0.488568
0.806965
0.809546
0.812365
0.814171
0.748364
0.809282
0.802613
0.699482
0.834393
0.8099
0.813845
0.824797
0.812003
0.819232
0.804156
0.827335
0.819738
0.836165
0.778673
0.798689
0.811476
0.808893
0.859387
0.720628
0.84331
0.753322
0.789504
0.804445
0.814557
0.842822
0.809348
0.811859
0.860688
0.812155
0.823178
0.782599
0.806901
0.792222
0.817574
0.817229
0.812398
0.816669
0.803385
0.803429
0.796523
0.838979
0.805941
0.760646
0.795476
0.817256
0.797152
0.803529
0.812333
0.708909
0.821119
0.803716
0.723022
0.821007
0.811951
0.811849
0.818335
0.808702
0.646191
0.757435
0.823022
0.824333
0.713843
0.812552
0.827944
0.815365
0.688546
0.81621
0.712876
0.787855
0.808835
0.826016
0.80804
0.815392
0.820857
0.741465
0.811265
0.809417
0.773441
0.77185
0.790479
0.810965
0.812752
0.796973
0.496272
0.787182
0.757436
0.742646
0.770204
0.713025
0.812211
0.814843
0.807244
0.803379
0.806018
0.816727
0.760041
0.802881
0.828419
0.814771
0.833384
0.803341
0.81655
0.814214
0.811901
0.83453
0.80395
0.811126
0.795911
0.700841
0.813977
0.8206
0.809492
0.807121
0.834459
0.802856
0.80261
0.819197
0.80593
0.855281
0.809547
0.803103
0.817857
0.802465
0.812284
0.757178
0.63529
0.815042
0.697414
0.82679
0.802375
0.72114
0.81189
0.813948
0.814795
0.826189
0.791671
0.710504
0.74759
0.594853
0.814943
0.723736
0.799239
0.807087
0.837658
0.815024
0.574945
0.804031
0.72859
0.837271
0.801166
0.694606
0.811312
0.826978
0.81452
0.556767
0.813248
0.80111
0.79885
0.805971
0.78834
0.773825
0.815708
0.815524
0.529133
0.814554
0.813701
0.772112
0.802033
0.811942
0.780475
0.817201
0.782964
0.709038
0.802802
0.805816
0.567341
0.5433
0.756185
0.807892
0.820377
0.790053
0.811588
0.814745
0.776037
0.805931
0.803487
0.816618
0.82941
0.793098
0.808292
0.811484
0.63132
0.818859
0.699277
0.797205
0.79327
0.777561
0.835561
0.809319
0.796585
0.676194
0.66797
0.803564
0.805642
0.819615
0.804224
0.798336
0.652008
0.815053
0.822062
0.818091
0.811964
0.812812
0.79938
0.790902
0.814109
0.569731
0.807887
0.812152
0.814354
0.812523
0.765246
0.82148
0.8015
0.814147
0.813002
0.753868
0.752398
0.803401
0.803483
0.525284
0.812377
0.811883
0.807073
0.811752
0.803306
0.800943
0.728015
0.711877
0.814324
0.748324
0.757929
0.818407
0.837423
0.814129
0.802151
0.808485
0.812197
0.803449
0.816986
0.782501
0.816917
0.81177
0.810671
0.795076
0.810381
0.7921
0.811771
0.589604
0.799522
0.800368
0.811861
0.81343
0.767558
0.801598
0.812142
0.812364
0.81797
0.770215
0.818268
0.808317
0.752477
0.761692
0.812868
0.805753
0.829132
0.824677
0.823154
0.804275
0.594042
0.778956
0.600209
0.803377
0.802918
0.800731
0.814215
0.874007
0.52594
0.593341
0.838271
0.871968
0.811798
0.690089
0.801943
0.716073
0.806791
0.815694
0.706946
0.650806
0.751076
0.812869
0.475886
0.873538
0.824327
0.798446
0.808772
0.47871
0.7396
0.781691
0.817537
0.804617
0.800527
0.830189
0.812254
0.70548
0.684843
0.801542
0.806056
0.80924
0.811522
0.808787
0.811843
0.735493
0.791167
0.79718
0.802499
0.76402
0.817611
0.807872
0.8128
0.811559
0.755066
0.805599
0.804074
0.793199
0.812075
0.815653
0.806896
0.657152
0.787443
0.817457
0.812825
0.812212
0.807348
0.81265
0.804152
0.821122
0.821475
0.613626
0.855122
0.743995
0.82056
0.804907
0.746994
0.824467
0.800891
0.825417
0.548317
0.799435
0.679048
0.811921
0.809215
0.521754
0.799909
0.804626
0.798001
0.802076
0.800615
0.772216
0.811783
0.592356
0.805708
0.806087
0.799189
0.818274
0.764913
0.811917
0.809288
0.79784
0.816165
0.796459
0.802849
0.812275
0.634073
0.769245
0.733877
0.490066
0.824682
0.568076
0.802608
0.818767
0.856587
0.702904
0.739543
0.812072
0.806095
0.800889
0.793664
0.76587
0.810848
0.81234
0.79708
0.813057
0.816385
0.471746
0.812306
0.813204
0.806332
0.810036
0.604131
0.815136
0.821493
0.705465
0.788765
0.813112
0.801031
0.828133
0.8313
0.804078
0.742448
0.47296
0.813813
0.570966
0.798713
0.803323
0.774703
0.811946
0.750386
0.811242
0.806574
0.803356
0.485814
0.81421
0.827385
0.830533
0.814735
0.803474
0.803219
0.812335
0.75851
0.847305
0.836804
0.709151
0.79859
0.653332
0.778013
0.667473
0.816034
0.836057
0.798903
0.637667
0.765763
0.813615
0.8244
0.832554
0.813608
0.670154
0.53751
0.804568
0.815857
0.801294
0.815776
0.804697
0.771596
0.851088
0.815183
0.80404
0.816706
0.799002
0.744025
0.797956
0.811338
0.596482
0.68909
0.803311
0.810687
0.804803
0.575007
0.811531
0.604743
0.812344
0.767555
0.816853
0.81626
0.753535
0.806513
0.792362
0.805146
0.836828
0.837123
0.831282
0.804779
0.81608
0.579395
0.812379
0.856765
0.82506
0.829245
0.804196
0.820738
0.799293
0.839797
0.808748
0.814378
0.672494
0.63039
0.835706
0.813312
0.840651
0.715792
0.801189
0.763449
0.797171
0.809568
0.793115
0.807005
0.813027
0.822653
0.82807
0.830037
0.80541
0.750128
0.804068
0.729293
0.793157
0.821481
0.800903
0.815031
0.758211
0.805058
0.804323
0.846957
0.809035
0.803408
0.80599
0.834263
0.831324
0.803586
0.856284
0.795924
0.820022
0.66144
0.803161
0.800238
0.798782
0.831683
0.60873
0.806329
0.80555
0.658462
0.814523
0.829301
0.813793
0.803381
0.806031
0.802499
0.816028
0.798855
0.720544
0.513456
0.813342
0.805595
0.801781
0.804503
0.802966
0.80368
0.810674
0.798045
0.81367
0.583202
0.812764
0.809403
0.811833
0.842329
0.813667
0.834195
0.81135
0.797613
0.812739
0.682362
0.803725
0.850177
0.812771
0.793006
0.814137
0.633852
0.805455
0.566187
0.662119
0.673294
0.809549
0.815458
0.81243
0.497078
0.694427
0.803466
0.830749
0.747308
0.831315
0.805157
0.80469
0.796687
0.69417
0.751233
0.547185
0.802758
0.811618
0.804253
0.820837
0.669814
0.620776
0.853945
0.801505
0.813985
0.728952
0.813499
0.526277
0.820793
0.703189
0.813792
0.817475
0.801663
0.802113
0.825134
0.794845
0.803599
0.803861
0.631263
0.806584
0.653068
0.798753
0.798185
0.813679
0.815324
0.729077
0.815354
0.755799
0.803154
0.721496
0.804955
0.74596
0.671449
0.824507
0.812352
0.799076
0.726312
0.811344
0.658354
0.810875
0.802914
0.728404
0.825827
0.816315
0.637348
0.695991
0.825753
0.803655
0.725568
0.833643
0.834701
0.836093
0.811709
0.548114
0.751022
0.820992
0.820282
0.520904
0.639963
0.815567
0.812412
0.721745
0.778372
0.812001
0.807034
0.75792
0.812138
0.813457
0.803571
0.728675
0.802232
0.796876
0.812049
0.576835
0.805558
0.821746
0.574191
0.818124
0.845298
0.811966
0.676563
0.811696
0.811578
0.811803
0.801159
0.818679
0.803241
0.806682
0.804853
0.80331
0.813469
0.484955
0.809855
0.809664
0.691785
0.603077
0.786079
0.7983
0.812042
0.753271
0.563917
0.811388
0.78347
0.812013
0.821465
0.813448
0.825058
0.748291
0.590198
0.811485
0.839039
0.811962
0.709493
0.803447
0.727266
0.813103
0.811037
0.81187
0.817318
0.801247
0.813026
0.808332
0.757547
0.816204
0.812588
0.751728
0.791888
0.710735
0.558296
0.733497
0.781528
0.81578
0.811275
0.810614
0.810542
0.803295
0.795349
0.808062
0.707432
0.75341
0.811543
0.803422
0.804824
0.818334
0.604059
0.813518
0.803892
0.843518
0.807805
0.636221
0.793676
0.803805
0.842446
0.690642
0.56175
0.576935
0.635174
0.817572
0.804494
0.560257
0.585267
0.819914
0.812143
0.889276
0.804802
0.829418
0.812385
0.769436
0.810759
0.81255
0.812034
0.810592
0.811966
0.797971
0.812133
0.64069
0.815683
0.803628
0.809601
0.756677
0.817116
0.61088
0.855391
0.803927
0.826972
0.811961
0.807996
0.748092
0.82222
0.811881
0.837186
0.811749
0.812474
0.641114
0.826729
0.810103
0.81234
0.836576
0.822528
0.553716
0.796418
0.802728
0.810887
0.816941
0.803936
0.800168
0.815166
0.765067
0.804912
0.815811
0.863436
0.831115
0.586673
0.796023
0.754065
0.813986
0.761474
0.81935
0.804832
0.806384
0.812192
0.789101
0.805577
0.815458
0.821815
0.787331
0.668336
0.733723
0.69776
0.814087
0.835849
0.837784
0.733438
0.808812
0.753936
0.60957
0.811987
0.799421
0.811749
0.803573
0.630745
0.802213
0.776481
0.736711
0.810717
0.744638
0.807552
0.816409
0.859716
0.809624
0.807082
0.739934
0.812446
0.775836
0.839354
0.883736
0.796976
0.520424
0.799633
0.607536
0.769255
0.657217
0.799152
0.49451
0.814949
0.849721
0.805925
0.810571
0.81966
0.802797
0.803252
0.696592
0.822899
0.811889
0.804148
0.806567
0.792426
0.803558
0.806781
0.628316
0.816482
0.801968
0.845145
0.807947
0.804363
0.801442
0.812926
0.813041
0.807504
0.803531
0.787498
0.812106
0.795249
0.801693
0.813214
0.771742
0.566987
0.812614
0.818105
0.803973
0.724645
0.801132
0.807668
0.803481
0.698178
0.873001
0.811562
0.816674
0.81199
0.847675
0.778135
0.812062
0.787592
0.815789
0.821991
0.663168
0.812098
0.728534
0.818989
0.71812
0.799429
0.751141
0.802472
0.571402
0.809157
0.7351
0.476214
0.820128
0.661766
0.769067
0.817174
0.812255
0.776506
0.811195
0.718631
0.63806
0.82612
0.698152
0.816651
0.767314
0.801594
0.807924
0.813209
0.652166
0.804308
0.774855
0.809531
0.81201
0.828947
0.80611
0.687468
0.75542
0.651286
0.798132
0.802969
0.811897
0.815355
0.811889
0.811472
0.809312
0.663387
0.731237
0.48752
0.696311
0.813829
0.808064
0.832925
0.809402
0.814636
0.710196
0.873945
0.815108
0.82614
0.571386
0.822827
0.812114
0.840637
0.845509
0.826519
0.829979
0.820125
0.540363
0.805726
0.814867
0.716085
0.816706
0.801264
0.812048
0.807932
0.812536
0.812602
0.767123
0.721314
0.797952
0.800294
0.571608
0.813952
0.858978
0.815248
0.658608
0.822438
0.813056
0.819474
0.835134
0.686952
0.486348
0.804842
0.839807
0.806059
0.803878
0.814147
0.80156
0.812411
0.809451
0.79991
0.804241
0.80468
0.812402
0.805552
0.806158
0.798537
0.83606
0.830633
0.853172
0.812826
0.80734
0.814397
0.812913
0.812002
0.81095
0.815516
0.833938
0.808597
0.811035
0.600605
0.830479
0.711026
0.868142
0.803616
0.833235
0.799001
0.78607
0.785669
0.740038
0.821111
0.810928
0.811459
0.813315
0.775811
0.807806
0.5842
0.806067
0.812924
0.813079
0.795671
0.811989
0.61101
0.783472
0.558192
0.820721
0.796859
0.774502
0.801856
0.813607
0.81236
0.812394
0.737938
0.808205
0.811847
0.810317
0.803646
0.803813
0.7473
0.767241
0.809237
0.803723
0.696203
0.59781
0.489644
0.84099
0.806061
0.778556
0.78119
0.82423
0.803571
0.803961
0.81797
0.779212
0.756999
0.816089
0.807439
0.811106
0.837173
0.804823
0.811664
0.808247
0.483362
0.80344
0.811818
0.773689
0.819357
0.814142
0.82554
0.599323
0.71036
0.572906
0.828227
0.815544
0.743256
0.811822
0.676694
0.813685
0.810605
0.811817
0.803079
0.811824
0.576835
0.686305
0.80609
0.813232
0.79369
0.801243
0.830995
0.798663
0.802997
0.642851
0.80773
0.811879
0.804272
0.812188
0.802738
0.616882
0.814222
0.812304
0.572368
0.697019
0.793091
0.828117
0.6974
0.803995
0.793631
0.81206
0.756554
0.684893
0.81036
0.795893
0.799281
0.766331
0.540527
0.820188
0.673458
0.747627
0.731329
0.803968
0.797277
0.811379
0.660006
0.767544
0.803968
0.814926
0.592547
0.798872
0.825731
0.807143
0.539045
0.805593
0.783402
0.707027
0.705752
0.800394
0.819065
0.812936
0.80861
0.699404
0.739607
0.64139
0.832273
0.842857
0.816839
0.788152
0.865193
0.696725
0.813282
0.766726
0.790206
0.79552
0.811893
0.803983
0.811518
0.787078
0.755215
0.819692
0.796708
0.84209
0.719299
0.791383
0.805515
0.723218
0.803209
0.814422
0.575902
0.801942
0.79894
0.802792
0.821132
0.764241
0.800159
0.722585
0.812073
0.808825
0.725167
0.812074
0.816154
0.828605
0.805581
0.787089
0.797621
0.805613
0.726559
0.812387
0.801143
0.677499
0.806883
0.780261
0.831856
0.820846
0.81895
0.839263
0.848202
0.699017
0.813659
0.795511
0.787295
0.617482
0.816903
0.803616
0.812157
0.776127
0.853438
0.832766
0.781791
0.841982
0.779771
0.800634
0.771942
0.812149
0.721661
0.635747
0.84417
0.660924
0.792807
0.839694
0.812369
0.671106
0.809231
0.75187
0.803966
0.798999
0.781311
0.804154
0.801041
0.802792
0.801891
0.7856
0.811956
0.781399
0.816209
0.807461
0.712609
0.783829
0.815138
0.812391
0.805484
0.563977
0.82508
0.812808
0.811982
0.70335
0.804765
0.801088
0.801288
0.815844
0.746208
0.815927
0.800543
0.804555
0.755183
0.811418
0.812736
0.805895
0.768983
0.807886
0.812927
0.808041
0.815793
0.808299
0.806063
0.822889
0.804597
0.788729
0.806193
0.812125
0.818144
0.778712
0.703515
0.813717
0.812171
0.800733
0.74243
0.788797
0.654042
0.80339
0.540141
0.803167
0.814365
0.774881
0.834558
0.515107
0.809419
0.73842
0.810413
0.534183
0.804343
0.827801
0.813269
0.818684
0.734233
0.840902
0.553519
0.823506
0.702426
0.799541
0.477313
0.669833
0.812504
0.811992
0.741709
0.800964
0.820845
0.612007
0.821966
0.770913
0.833459
0.811997
0.814111
0.813087
0.803826
0.836783
0.810649
0.803757
0.475926
0.803108
0.843459
0.802225
0.801319
0.76757
0.805399
0.811937
0.812092
0.796578
0.73429
0.810385
0.815449
0.602966
0.804162
0.536494
0.81561
0.539455
0.811936
0.770372
0.682495
0.733486
0.783086
0.713013
0.841494
0.8137
0.796868
0.803971
0.703312
0.802555
0.789435
0.802443
0.814943
0.801695
0.731444
0.697864
0.800593
0.772271
0.518866
0.811153
0.66318
0.794098
0.705647
0.825008
0.809389
0.825016
0.810177
0.837151
0.807234
0.579872
0.829206
0.806991
0.80153
0.815388
0.811928
0.81255
0.814566
0.825094
0.816346
0.618012
0.804747
0.800656
0.812848
0.692157
0.802311
0.823224
0.756359
0.688549
0.807495
0.68829
0.731661
0.810028
0.812663
0.668515
0.841448
0.766927
0.805391
0.796426
0.809742
0.844468
0.801059
0.53872
0.814847
0.708288
0.519419
0.77818
0.758098
0.769514
0.812145
0.803516
0.816353
0.811959
0.585767
0.787493
0.831215
0.812042
0.591149
0.72147
0.634809
0.816616
0.810414
0.690908
0.803982
0.812121
0.799311
0.83419
0.606018
0.840311
0.74016
0.811914
0.812423
0.669113
0.812488
0.720986
0.791799
0.716515
0.811864
0.784425
0.633874
0.724145
0.712311
0.833119
0.809361
0.819283
0.821995
0.803343
0.808509
0.8028
0.817605
0.803252
0.687005
0.803432
0.603452
0.776693
0.807175
0.802297
0.812117
0.824227
0.803327
0.716874
0.710515
0.667165
0.790262
0.816699
0.749071
0.579225
0.751461
0.810199
0.801852
0.760178
0.803573
0.823123
0.753209
0.568744
0.701971
0.798601
0.812116
0.864274
0.814581
0.811718
0.851798
0.799555
0.801847
0.814362
0.812214
0.805323
0.717591
0.809143
0.695419
0.862212
0.778644
0.813388
0.573811
0.796482
0.529106
0.583186
0.584794
0.807885
0.80363
0.80924
0.758119
0.803554
0.532167
0.782197
0.8029
0.73452
0.8143
0.801617
0.815803
0.842866
0.510619
0.812011
0.802081
0.809548
0.816719
0.812834
0.812302
0.754113
0.797139
0.798787
0.803232
0.797556
0.81069
0.845281
0.818529
0.723667
0.804675
0.606965
0.813166
0.812013
0.586502
0.766831
0.766897
0.536221
0.784246
0.803638
0.878249
0.798353
0.813076
0.755175
0.794412
0.797032
0.809222
0.782666
0.541888
0.711264
0.68038
0.781038
0.814625
0.802885
0.821809
0.790224
0.801801
0.81276
0.798069
0.852132
0.704508
0.811827
0.780663
0.530858
0.515633
0.812872
0.803542
0.805439
0.560316
0.796981
0.80374
0.659081
0.813698
0.790594
0.806537
0.814785
0.532793
0.724562
0.718735
0.812424
0.83199
0.629875
0.78982
0.717104
0.813571
0.827235
0.779419
0.773133
0.535064
0.811497
0.802406
0.723625
0.851991
0.805814
0.722652
0.73983
0.763855
0.810773
0.563364
0.796695
0.737953
0.800324
0.82183
0.720248
0.799164
0.811734
0.716486
0.813002
0.705936
0.815961
0.798194
0.759665
0.689797
0.808888
0.799999
0.813343
0.669533
0.80537
0.804838
0.811565
0.69942
0.812119
0.808372
0.831733
0.648383
0.815469
0.740733
0.811908
0.805704
0.842182
0.803682
0.818895
0.749018
0.815161
0.838771
0.832797
0.816429
0.845569
0.752307
0.847725
0.825978
0.803828
0.825729
0.805602
0.646574
0.778055
0.813902
0.746785
0.695117
0.798445
0.804067
0.67976
0.797427
0.537886
0.848434
0.696012
0.706187
0.813545
0.774458
0.806877
0.798929
0.806939
0.803887
0.812003
0.835612
0.729966
0.772126
0.58815
0.809989
0.777014
0.810891
0.805113
0.569973
0.802905
0.80253
0.807473
0.798625
0.816711
0.80815
0.709889
0.823107
0.847893
0.684386
0.743598
0.812157
0.800917
0.712285
0.814269
0.754326
0.796782
0.8029
0.80536
0.837128
0.668677
0.723309
0.800799
0.701957
0.772638
0.832132
0.531923
0.691216
0.79958
0.804286
0.803363
0.741751
0.822361
0.806874
0.803661
0.808127
0.813281
0.696053
0.649128
0.809673
0.813784
0.799233
0.871443
0.802722
0.812343
0.799045
0.809942
0.811256
0.808363
0.652976
0.814741
0.816564
0.803437
0.801865
0.799373
0.617247
0.809696
0.810499
0.812407
0.862286
0.814411
0.801485
0.480537
0.836325
0.692526
0.826376
0.805765
0.813778
0.824001
0.809077
0.812056
0.73092
0.55129
0.491595
0.812318
0.808945
0.534013
0.795558
0.814476
0.833262
0.503952
0.809573
0.813418
0.802259
0.809078
0.530166
0.813103
0.808245
0.559882
0.812198
0.815248
0.538697
0.808756
0.812654
0.775825
0.806273
0.811165
0.809488
0.798991
0.825862
0.533756
0.830164
0.8158
0.804067
0.742067
0.786181
0.811346
0.809385
0.802107
0.81593
0.800703
0.657021
0.806155
0.579828
0.811953
0.659818
0.746292
0.796997
0.718259
0.803542
0.579671
0.849724
0.812193
0.812325
0.799259
0.802706
0.803181
0.813638
0.814352
0.670071
0.71765
0.726195
0.814767
0.721327
0.573589
0.817388
0.783706
0.827865
0.811681
0.809377
0.732483
0.535811
0.798718
0.790032
0.49609
0.813837
0.812997
0.735577
0.805909
0.7685
0.606983
0.809944
0.814644
0.788633
0.609754
0.802309
0.782961
0.826336
0.812965
0.810375
0.811893
0.812825
0.715749
0.80007
0.815729
0.694659
0.480438
0.732909
0.798804
0.730764
0.813002
0.798115
0.805524
0.782565
0.867319
0.803554
0.80167
0.825766
0.85932
0.804615
0.815688
0.794329
0.815898
0.789155
0.743993
0.81191
0.804261
0.816219
0.803249
0.790808
0.842787
0.76609
0.812722
0.773369
0.803723
0.642516
0.509338
0.800985
0.802164
0.809519
0.79815
0.799676
0.811914
0.772905
0.804618
0.811996
0.782196
0.816907
0.777164
0.593302
0.805045
0.760902
0.776198
0.750452
0.763666
0.793918
0.788574
0.82303
0.787512
0.80942
0.803367
0.765119
0.815511
0.542214
0.729508
0.810538
0.813993
0.811402
0.802325
0.812832
0.810522
0.805751
0.821153
0.809685
0.782948
0.816603
0.80169
0.790475
0.795891
0.805167
0.586094
0.803623
0.79217
0.574446
0.813183
0.807234
0.806046
0.810758
0.702324
0.75489
0.821106
0.774895
0.811387
0.816322
0.722242
0.804481
0.824101
0.720044
0.799425
0.809512
0.778568
0.804721
0.836963
0.801904
0.817321
0.772524
0.805337
0.800299
0.813074
0.80211
0.797895
0.588664
0.815214
0.786722
0.806633
0.825619
0.691084
0.828547
0.819965
0.505256
0.806387
0.804452
0.801473
0.812263
0.82424
0.824055
0.804909
0.805908
0.814164
0.81337
0.803521
0.812564
0.804731
0.749252
0.708203
0.780903
0.813661
0.812086
0.775861
0.757783
0.813923
0.824934
0.810519
0.812214
0.691477
0.500695
0.747779
0.81753
0.806718
0.816239
0.844189
0.799877
0.714857
0.654198
0.799661
0.804694
0.694202
0.812664
0.671134
0.83681
0.729222
0.81285
0.895253
0.815608
0.80081
0.777733
0.811099
0.681461
0.814186
0.808218
0.791512
0.805607
0.779414
0.800653
0.81003
0.780461
0.803575
0.852062
0.776999
0.802132
0.492844
0.803174
0.693887
0.804097
0.794449
0.788576
0.783615
0.722214
0.802093
0.788182
0.844454
0.813281
0.812439
0.811777
0.89551
0.746411
0.802734
0.730821
0.803157
0.798365
0.804501
0.716745
0.800927
0.805498
0.639028
0.808659
0.748576
0.533986
0.846509
0.84733
0.750024
0.810759
0.794671
0.772021
0.731733
0.775991
0.78548
0.736221
0.803851
0.804419
0.719457
0.815308
0.804977
0.556789
0.811989
0.821441
0.813244
0.803506
0.610677
0.714976
0.806272
0.859173
0.483695
0.724518
0.806459
0.815955
0.796444
0.713231
0.710672
0.809022
0.81323
0.815006
0.837077
0.745182
0.754381
0.875742
0.806865
0.809215
0.795168
0.637439
0.597432
0.585966
0.656986
0.586154
0.764196
0.800721
0.803382
0.812265
0.809127
0.811475
0.860157
0.715392
0.823865
0.813889
0.817087
0.816636
0.813817
0.812962
0.811573