# vtk DataFile Version 1.0
unstructured grid
ascii
DATASET UNSTRUCTURED_GRID
points 14760 float
-1 0 0
-1 1 0
2 0 0
2 1 0
0 0 0
1 0 0
-1 1 0.1
-1 0 0.1
0 0 0.1
1 0 0.1
2 0 0.1
2 1 0.1
-0.99 0 0
-0.98 0 0
-0.97 0 0
-0.96 0 0
-0.95 0 0
-0.94 0 0
-0.93 0 0
-0.92 0 0
-0.91 0 0
-0.9 0 0
-0.89 0 0
-0.88 0 0
-0.87 0 0
-0.86 0 0
-0.85 0 0
-0.84 0 0
-0.83 0 0
-0.82 0 0
-0.81 0 0
-0.8 0 0
-0.79 0 0
-0.78 0 0
-0.77 0 0
-0.76 0 0
-0.75 0 0
-0.74 0 0
-0.73 0 0
-0.72 0 0
-0.71 0 0
-0.7 0 0
-0.69 0 0
-0.68 0 0
-0.67 0 0
-0.66 0 0
-0.65 0 0
-0.64 0 0
-0.63 0 0
-0.62 0 0
-0.61 0 0
-0.6 0 0
-0.59 0 0
-0.58 0 0
-0.57 0 0
-0.56 0 0
-0.55 0 0
-0.54 0 0
-0.53 0 0
-0.52 0 0
-0.51 0 0
-0.5 0 0
-0.49 0 0
-0.48 0 0
-0.47 0 0
-0.46 0 0
-0.45 0 0
-0.44 0 0
-0.43 0 0
-0.42 0 0
-0.41 0 0
-0.4 0 0
-0.39 0 0
-0.38 0 0
-0.37 0 0
-0.36 0 0
-0.35 0 0
-0.34 0 0
-0.33 0 0
-0.32 0 0
-0.31 0 0
-0.3 0 0
-0.29 0 0
-0.28 0 0
-0.27 0 0
-0.26 0 0
-0.25 0 0
-0.24 0 0
-0.23 0 0
-0.22 0 0
-0.21 0 0
-0.2 0 0
-0.19 0 0
-0.18 0 0
-0.17 0 0
-0.16 0 0
-0.15 0 0
-0.14 0 0
-0.13 0 0
-0.12 0 0
-0.11 0 0
-0.1 0 0
-0.09 0 0
-0.08 0 0
-0.07 0 0
-0.06 0 0
-0.05 0 0
-0.04 0 0
-0.03 0 0
-0.02 0 0
-0.01 0 0
1.01 0 0
1.02 0 0
1.03 0 0
1.04 0 0
1.05 0 0
1.06 0 0
1.07 0 0
1.08 0 0
1.09 0 0
1.1 0 0
1.11 0 0
1.12 0 0
1.13 0 0
1.14 0 0
1.15 0 0
1.16 0 0
1.17 0 0
1.18 0 0
1.19 0 0
1.2 0 0
1.21 0 0
1.22 0 0
1.23 0 0
1.24 0 0
1.25 0 0
1.26 0 0
1.27 0 0
1.28 0 0
1.29 0 0
1.3 0 0
1.31 0 0
1.32 0 0
1.33 0 0
1.34 0 0
1.35 0 0
1.36 0 0
1.37 0 0
1.38 0 0
1.39 0 0
1.4 0 0
1.41 0 0
1.42 0 0
1.43 0 0
1.44 0 0
1.45 0 0
1.46 0 0
1.47 0 0
1.48 0 0
1.49 0 0
1.5 0 0
1.51 0 0
1.52 0 0
1.53 0 0
1.54 0 0
1.55 0 0
1.56 0 0
1.57 0 0
1.58 0 0
1.59 0 0
1.6 0 0
1.61 0 0
1.62 0 0
1.63 0 0
1.64 0 0
1.65 0 0
1.66 0 0
1.67 0 0
1.68 0 0
1.69 0 0
1.7 0 0
1.71 0 0
1.72 0 0
1.73 0 0
1.74 0 0
1.75 0 0
1.76 0 0
1.77 0 0
1.78 0 0
1.79 0 0
1.8 0 0
1.81 0 0
1.82 0 0
1.83 0 0
1.84 0 0
1.85 0 0
1.86 0 0
1.87 0 0
1.88 0 0
1.89 0 0
1.9 0 0
1.91 0 0
1.92 0 0
1.93 0 0
1.94 0 0
1.95 0 0
1.96 0 0
1.97 0 0
1.98 0 0
1.99 0 0
2 0.0100088 0
2 0.0204183 0
2 0.0312446 0
2 0.0425043 0
2 0.0542147 0
2 0.066394 0
2 0.079061 0
2 0.092235 0
2 0.105936 0
2 0.120186 0
2 0.135007 0
2 0.150421 0
2 0.166452 0
2 0.183124 0
2 0.200465 0
2 0.218499 0
2 0.237256 0
2 0.256763 0
2 0.277051 0
2 0.298152 0
2 0.320097 0
2 0.342921 0
2 0.366659 0
2 0.391347 0
2 0.417024 0
2 0.443728 0
2 0.471502 0
2 0.500387 0
2 0.530429 0
2 0.561674 0
2 0.594169 0
2 0.627966 0
2 0.663115 0
2 0.699672 0
2 0.737692 0
2 0.777235 0
2 0.818361 0
2 0.861133 0
2 0.905617 0
2 0.951882 0
1.95 1 0
1.9 1 0
1.85 1 0
1.8 1 0
1.75 1 0
1.7 1 0
1.65 1 0
1.6 1 0
1.55 1 0
1.5 1 0
1.45 1 0
1.4 1 0
1.35 1 0
1.3 1 0
1.25 1 0
1.2 1 0
1.15 1 0
1.1 1 0
1.05 1 0
1 1 0
0.95 1 0
0.9 1 0
0.85 1 0
0.8 1 0
0.75 1 0
0.7 1 0
0.65 1 0
0.6 1 0
0.55 1 0
0.5 1 0
0.45 1 0
0.4 1 0
0.35 1 0
0.3 1 0
0.25 1 0
0.2 1 0
0.15 1 0
0.1 1 0
0.05 1 0
3.69793e-12 1 0
-0.05 1 0
-0.1 1 0
-0.15 1 0
-0.2 1 0
-0.25 1 0
-0.3 1 0
-0.35 1 0
-0.4 1 0
-0.45 1 0
-0.5 1 0
-0.55 1 0
-0.6 1 0
-0.65 1 0
-0.7 1 0
-0.75 1 0
-0.8 1 0
-0.85 1 0
-0.9 1 0
-0.95 1 0
-1 0.951882 0
-1 0.905617 0
-1 0.861133 0
-1 0.818361 0
-1 0.777235 0
-1 0.737692 0
-1 0.699672 0
-1 0.663115 0
-1 0.627966 0
-1 0.594169 0
-1 0.561674 0
-1 0.530429 0
-1 0.500387 0
-1 0.471502 0
-1 0.443728 0
-1 0.417024 0
-1 0.391347 0
-1 0.366659 0
-1 0.342921 0
-1 0.320097 0
-1 0.298152 0
-1 0.277051 0
-1 0.256763 0
-1 0.237256 0
-1 0.218499 0
-1 0.200465 0
-1 0.183124 0
-1 0.166452 0
-1 0.150421 0
-1 0.135007 0
-1 0.120186 0
-1 0.105936 0
-1 0.092235 0
-1 0.079061 0
-1 0.066394 0
-1 0.0542147 0
-1 0.0425043 0
-1 0.0312446 0
-1 0.0204183 0
-1 0.0100088 0
0.00921362 0.00379763 0
0.0184561 0.00752451 0
0.0277268 0.0111804 0
0.0370253 0.0147652 0
0.0463511 0.0182786 0
0.0557034 0.0217203 0
0.0650819 0.0250903 0
0.074486 0.0283883 0
0.083915 0.0316141 0
0.0933685 0.0347675 0
0.102846 0.0378484 0
0.112347 0.0408565 0
0.12187 0.0437917 0
0.131416 0.0466538 0
0.140983 0.0494427 0
0.150572 0.0521581 0
0.160181 0.0547999 0
0.16981 0.0573681 0
0.179458 0.0598623 0
0.189125 0.0622825 0
0.198811 0.0646285 0
0.208514 0.0669001 0
0.218234 0.0690974 0
0.227971 0.07122 0
0.237724 0.073268 0
0.247493 0.0752411 0
0.257276 0.0771393 0
0.267073 0.0789625 0
0.276884 0.0807105 0
0.286708 0.0823832 0
0.296545 0.0839806 0
0.306394 0.0855025 0
0.316254 0.0869488 0
0.326125 0.0883196 0
0.336006 0.0896146 0
0.345896 0.0908339 0
0.355796 0.0919773 0
0.365704 0.0930447 0
0.375621 0.0940362 0
0.385544 0.0949517 0
0.395474 0.095791 0
0.40541 0.0965542 0
0.415352 0.0972412 0
0.425299 0.097852 0
0.43525 0.0983865 0
0.445205 0.0988447 0
0.455164 0.0992266 0
0.465125 0.0995321 0
0.475088 0.0997613 0
0.485052 0.0999141 0
0.495017 0.0999904 0
0.504983 0.0999904 0
0.514948 0.0999141 0
0.524912 0.0997613 0
0.534875 0.0995321 0
0.544836 0.0992266 0
0.554795 0.0988447 0
0.56475 0.0983865 0
0.574701 0.097852 0
0.584648 0.0972412 0
0.59459 0.0965542 0
0.604526 0.095791 0
0.614456 0.0949517 0
0.624379 0.0940362 0
0.634296 0.0930447 0
0.644204 0.0919773 0
0.654104 0.0908339 0
0.663994 0.0896146 0
0.673875 0.0883196 0
0.683746 0.0869488 0
0.693606 0.0855025 0
0.703455 0.0839806 0
0.713292 0.0823832 0
0.723116 0.0807105 0
0.732927 0.0789625 0
0.742724 0.0771393 0
0.752508 0.0752411 0
0.762276 0.073268 0
0.772029 0.07122 0
0.781766 0.0690974 0
0.791486 0.0669001 0
0.801189 0.0646285 0
0.810875 0.0622825 0
0.820542 0.0598623 0
0.83019 0.0573681 0
0.839819 0.0547999 0
0.849428 0.0521581 0
0.859017 0.0494427 0
0.868584 0.0466538 0
0.87813 0.0437917 0
0.887653 0.0408565 0
0.897154 0.0378484 0
0.906631 0.0347675 0
0.916085 0.0316141 0
0.925514 0.0283883 0
0.934918 0.0250903 0
0.944297 0.0217203 0
0.953649 0.0182786 0
0.962975 0.0147652 0
0.972273 0.0111804 0
0.981544 0.00752451 0
0.990786 0.00379763 0
-1 0.951882 0.1
-1 0.905617 0.1
-1 0.861133 0.1
-1 0.818361 0.1
-1 0.777235 0.1
-1 0.737692 0.1
-1 0.699672 0.1
-1 0.663115 0.1
-1 0.627966 0.1
-1 0.594169 0.1
-1 0.561674 0.1
-1 0.530429 0.1
-1 0.500387 0.1
-1 0.471502 0.1
-1 0.443728 0.1
-1 0.417024 0.1
-1 0.391347 0.1
-1 0.366659 0.1
-1 0.342921 0.1
-1 0.320097 0.1
-1 0.298152 0.1
-1 0.277051 0.1
-1 0.256763 0.1
-1 0.237256 0.1
-1 0.218499 0.1
-1 0.200465 0.1
-1 0.183124 0.1
-1 0.166452 0.1
-1 0.150421 0.1
-1 0.135007 0.1
-1 0.120186 0.1
-1 0.105936 0.1
-1 0.092235 0.1
-1 0.079061 0.1
-1 0.066394 0.1
-1 0.0542147 0.1
-1 0.0425043 0.1
-1 0.0312446 0.1
-1 0.0204183 0.1
-1 0.0100088 0.1
-0.99 0 0.1
-0.98 0 0.1
-0.97 0 0.1
-0.96 0 0.1
-0.95 0 0.1
-0.94 0 0.1
-0.93 0 0.1
-0.92 0 0.1
-0.91 0 0.1
-0.9 0 0.1
-0.89 0 0.1
-0.88 0 0.1
-0.87 0 0.1
-0.86 0 0.1
-0.85 0 0.1
-0.84 0 0.1
-0.83 0 0.1
-0.82 0 0.1
-0.81 0 0.1
-0.8 0 0.1
-0.79 0 0.1
-0.78 0 0.1
-0.77 0 0.1
-0.76 0 0.1
-0.75 0 0.1
-0.74 0 0.1
-0.73 0 0.1
-0.72 0 0.1
-0.71 0 0.1
-0.7 0 0.1
-0.69 0 0.1
-0.68 0 0.1
-0.67 0 0.1
-0.66 0 0.1
-0.65 0 0.1
-0.64 0 0.1
-0.63 0 0.1
-0.62 0 0.1
-0.61 0 0.1
-0.6 0 0.1
-0.59 0 0.1
-0.58 0 0.1
-0.57 0 0.1
-0.56 0 0.1
-0.55 0 0.1
-0.54 0 0.1
-0.53 0 0.1
-0.52 0 0.1
-0.51 0 0.1
-0.5 0 0.1
-0.49 0 0.1
-0.48 0 0.1
-0.47 0 0.1
-0.46 0 0.1
-0.45 0 0.1
-0.44 0 0.1
-0.43 0 0.1
-0.42 0 0.1
-0.41 0 0.1
-0.4 0 0.1
-0.39 0 0.1
-0.38 0 0.1
-0.37 0 0.1
-0.36 0 0.1
-0.35 0 0.1
-0.34 0 0.1
-0.33 0 0.1
-0.32 0 0.1
-0.31 0 0.1
-0.3 0 0.1
-0.29 0 0.1
-0.28 0 0.1
-0.27 0 0.1
-0.26 0 0.1
-0.25 0 0.1
-0.24 0 0.1
-0.23 0 0.1
-0.22 0 0.1
-0.21 0 0.1
-0.2 0 0.1
-0.19 0 0.1
-0.18 0 0.1
-0.17 0 0.1
-0.16 0 0.1
-0.15 0 0.1
-0.14 0 0.1
-0.13 0 0.1
-0.12 0 0.1
-0.11 0 0.1
-0.1 0 0.1
-0.09 0 0.1
-0.08 0 0.1
-0.07 0 0.1
-0.06 0 0.1
-0.05 0 0.1
-0.04 0 0.1
-0.03 0 0.1
-0.02 0 0.1
-0.01 0 0.1
0.00921362 0.00379763 0.1
0.0184561 0.00752451 0.1
0.0277268 0.0111804 0.1
0.0370253 0.0147652 0.1
0.0463511 0.0182786 0.1
0.0557034 0.0217203 0.1
0.0650819 0.0250903 0.1
0.074486 0.0283883 0.1
0.083915 0.0316141 0.1
0.0933685 0.0347675 0.1
0.102846 0.0378484 0.1
0.112347 0.0408565 0.1
0.12187 0.0437917 0.1
0.131416 0.0466538 0.1
0.140983 0.0494427 0.1
0.150572 0.0521581 0.1
0.160181 0.0547999 0.1
0.16981 0.0573681 0.1
0.179458 0.0598623 0.1
0.189125 0.0622825 0.1
0.198811 0.0646285 0.1
0.208514 0.0669001 0.1
0.218234 0.0690974 0.1
0.227971 0.07122 0.1
0.237724 0.073268 0.1
0.247493 0.0752411 0.1
0.257276 0.0771393 0.1
0.267073 0.0789625 0.1
0.276884 0.0807105 0.1
0.286708 0.0823832 0.1
0.296545 0.0839806 0.1
0.306394 0.0855025 0.1
0.316254 0.0869488 0.1
0.326125 0.0883196 0.1
0.336006 0.0896146 0.1
0.345896 0.0908339 0.1
0.355796 0.0919773 0.1
0.365704 0.0930447 0.1
0.375621 0.0940362 0.1
0.385544 0.0949517 0.1
0.395474 0.095791 0.1
0.40541 0.0965542 0.1
0.415352 0.0972412 0.1
0.425299 0.097852 0.1
0.43525 0.0983865 0.1
0.445205 0.0988447 0.1
0.455164 0.0992266 0.1
0.465125 0.0995321 0.1
0.475088 0.0997613 0.1
0.485052 0.0999141 0.1
0.495017 0.0999904 0.1
0.504983 0.0999904 0.1
0.514948 0.0999141 0.1
0.524912 0.0997613 0.1
0.534875 0.0995321 0.1
0.544836 0.0992266 0.1
0.554795 0.0988447 0.1
0.56475 0.0983865 0.1
0.574701 0.097852 0.1
0.584648 0.0972412 0.1
0.59459 0.0965542 0.1
0.604526 0.095791 0.1
0.614456 0.0949517 0.1
0.624379 0.0940362 0.1
0.634296 0.0930447 0.1
0.644204 0.0919773 0.1
0.654104 0.0908339 0.1
0.663994 0.0896146 0.1
0.673875 0.0883196 0.1
0.683746 0.0869488 0.1
0.693606 0.0855025 0.1
0.703455 0.0839806 0.1
0.713292 0.0823832 0.1
0.723116 0.0807105 0.1
0.732927 0.0789625 0.1
0.742724 0.0771393 0.1
0.752508 0.0752411 0.1
0.762276 0.073268 0.1
0.772029 0.07122 0.1
0.781766 0.0690974 0.1
0.791486 0.0669001 0.1
0.801189 0.0646285 0.1
0.810875 0.0622825 0.1
0.820542 0.0598623 0.1
0.83019 0.0573681 0.1
0.839819 0.0547999 0.1
0.849428 0.0521581 0.1
0.859017 0.0494427 0.1
0.868584 0.0466538 0.1
0.87813 0.0437917 0.1
0.887653 0.0408565 0.1
0.897154 0.0378484 0.1
0.906631 0.0347675 0.1
0.916085 0.0316141 0.1
0.925514 0.0283883 0.1
0.934918 0.0250903 0.1
0.944297 0.0217203 0.1
0.953649 0.0182786 0.1
0.962975 0.0147652 0.1
0.972273 0.0111804 0.1
0.981544 0.00752451 0.1
0.990786 0.00379763 0.1
1.01 0 0.1
1.02 0 0.1
1.03 0 0.1
[...]
CELL_DATA 14313
SCALARS rho float
LOOKUP_TABLE default
0.781334
0.824195
0.805893
0.537576
0.766293
0.811778
0.812445
0.812331
0.811008
0.815131
0.812014
0.798875
0.797013
0.517401
0.812813
0.831867
0.80877
0.807713
0.810028
0.80535
0.810681
0.813931
0.812378
0.766033
0.812006
0.814634
0.7424
0.709722
0.823716
0.824318
0.811874
0.794478
0.799514
0.811977
0.804674
0.810625
0.679728
0.808906
0.811563
0.802361
0.752534
0.810349
0.541778
0.701997
0.817576
0.835694
0.810828
0.777411
0.804404
0.850993
0.675427
0.653215
0.589269
0.810537
0.819624
0.782657
0.817561
0.814687
0.810801
0.812284
0.811884
0.818356
0.794455
0.839182
0.810309
0.81326
0.852737
0.783889
0.840532
0.812805
0.798309
0.83143
0.487216
0.837178
0.725926
0.80691
0.824592
0.747086
0.696419
0.811351
0.591887
0.82467
0.833109
0.803474
0.805521
0.819238
0.81176
0.804458
0.826545
0.806997
0.77987
0.522667
0.807307
0.797907
0.725862
0.803832
0.814589
0.808886
0.803227
0.488828
0.807001
0.809593
0.812412
0.814198
0.748411
0.809297
0.802634
0.699536
0.83442
0.809944
0.813856
0.82483
0.812045
0.819269
0.804164
0.827366
0.819773
0.83619
0.7787
0.798739
0.811523
0.808941
0.859404
0.720747
0.843367
0.753384
0.789543
0.804457
0.814599
0.842879
0.809394
0.811908
0.860704
0.812203
0.823212
0.782622
0.806945
0.792238
0.817612
0.817267
0.812445
0.816705
0.803387
0.803433
0.796537
0.839005
0.805949
0.760681
0.795508
0.817295
0.797206
0.803535
0.81238
0.708981
0.821151
0.80372
0.72307
0.821042
0.811998
0.811864
0.818373
0.808717
0.646636
0.757476
0.823056
0.824376
0.713944
0.812597
0.827975
0.815408
0.688629
0.816223
0.712934
0.787895
0.808877
0.826062
0.808083
0.81542
0.820893
0.741544
0.811314
0.809463
0.773478
0.771841
0.790495
0.811013
0.812798
0.796987
0.496476
0.787216
0.75749
0.742723
0.770223
0.713189
0.812257
0.814882
0.807262
0.803386
0.806061
0.816766
0.760085
0.802899
0.828449
0.814812
0.833411
0.803345
0.816563
0.814226
0.811949
0.834552
0.80399
0.81116
0.795943
0.700895
0.814019
0.820654
0.809539
0.807161
0.834485
0.802886
0.802627
0.819214
0.805973
0.855302
0.80958
0.803119
0.817895
0.802475
0.812331
0.757222
0.635701
0.815058
0.69747
0.826821
0.802387
0.721258
0.811934
0.813989
0.814834
0.826235
0.791686
0.710397
0.747657
0.595101
0.814983
0.723784
0.799292
0.8071
0.837682
0.815068
0.575064
0.804041
0.728661
0.837298
0.801206
0.694685
0.811345
0.827008
0.814562
0.556948
0.813259
0.80115
0.798891
0.806007
0.788374
0.773862
0.815721
0.815537
0.529368
0.814595
0.813744
0.772139
0.802044
0.811992
0.780497
0.817236
0.783009
0.709127
0.802816
0.805823
0.567464
0.543434
0.756241
0.807935
0.820413
0.79007
0.811639
0.814786
0.776061
0.805947
0.803494
0.816657
0.829441
0.793136
0.8083
0.811529
0.631561
0.818884
0.699488
0.797259
0.793282
0.777581
0.835587
0.809334
0.796639
0.676306
0.66809
0.803597
0.805682
0.819633
0.804231
0.798389
0.652078
0.815093
0.822086
0.818108
0.812015
0.812855
0.799432
0.790932
0.814152
0.5704
0.807932
0.812201
0.814396
0.812567
0.765292
0.821512
0.80152
0.814189
0.813044
0.753878
0.752453
0.803403
0.803484
0.531932
0.812424
0.811924
0.807113
0.811796
0.803332
0.80095
0.728085
0.711935
0.814366
0.748365
0.757985
0.818459
0.83745
0.814171
0.802192
0.808493
0.812244
0.803456
0.817025
0.782547
0.816956
0.811784
0.810717
0.795108
0.810425
0.792138
0.811821
0.589692
0.79956
0.800404
0.811905
0.813457
0.7676
0.801609
0.81219
0.812411
0.818008
0.770234
0.818285
0.80835
0.752545
0.761708
0.812879
0.805793
0.829163
0.82471
0.823178
0.804311
0.594284
0.778999
0.600357
0.803385
0.80293
0.800772
0.814256
0.874022
0.526097
0.59351
0.838295
0.871983
0.81184
0.690146
0.801992
0.716226
0.806829
0.815732
0.706997
0.650883
0.751127
0.812911
0.476306
0.873553
0.82436
0.798486
0.808787
0.478981
0.739692
0.781727
0.817575
0.804657
0.80057
0.830218
0.812301
0.70557
0.684937
0.801562
0.806073
0.80929
0.811573
0.808799
0.811894
0.735558
0.791182
0.797192
0.802516
0.764066
0.817649
0.807885
0.812845
0.811609
0.755132
0.805606
0.804079
0.793239
0.812124
0.815688
0.806933
0.657256
0.787462
0.817488
0.812836
0.812251
0.807362
0.812694
0.804205
0.821154
0.821507
0.616108
0.855142
0.744037
0.820595
0.804943
0.746959
0.824491
0.800897
0.825449
0.548446
0.799488
0.679144
0.811972
0.80923
0.521997
0.799946
0.804638
0.798012
0.80209
0.800656
0.772256
0.811833
0.592522
0.805726
0.806101
0.799231
0.81831
0.764955
0.811968
0.809336
0.797893
0.816204
0.796514
0.802858
0.812322
0.634149
0.769285
0.733945
0.490283
0.824715
0.568208
0.802618
0.818804
0.856607
0.703077
0.739635
0.812121
0.806109
0.800929
0.793704
0.765923
0.810894
0.812388
0.797115
0.813102
0.816414
0.472161
0.812352
0.813247
0.80634
0.810087
0.604277
0.815175
0.821527
0.70565
0.788783
0.813156
0.801038
0.828192
0.831323
0.804083
0.742448
0.473233
0.813855
0.571077
0.798765
0.803326
0.774698
0.811997
0.750436
0.811291
0.806587
0.803359
0.486036
0.814251
0.827416
0.830563
0.814762
0.80348
0.803224
0.812381
0.758526
0.847327
0.836871
0.709318
0.79864
0.653402
0.778038
0.667553
0.816069
0.836124
0.798957
0.637831
0.765816
0.813658
0.824432
0.832579
0.813635
0.670445
0.537661
0.804608
0.815896
0.801333
0.815821
0.804729
0.771623
0.851155
0.815221
0.804045
0.816743
0.799011
0.744016
0.798009
0.811379
0.596595
0.689147
0.803319
0.810738
0.804811
0.575111
0.811577
0.604827
0.812391
0.767586
0.816885
0.816298
0.753534
0.806551
0.792398
0.805152
0.836881
0.83719
0.831304
0.804786
0.81612
0.579533
0.812426
0.856785
0.825083
0.829275
0.804204
0.820773
0.799333
0.839818
0.808764
0.814392
0.67265
0.630626
0.835734
0.813356
0.840672
0.715897
0.801229
0.763484
0.797224
0.809584
0.793151
0.807044
0.813072
0.822688
0.828101
0.830067
0.805418
0.750135
0.804106
0.729416
0.793199
0.821512
0.800934
0.815048
0.75826
0.805066
0.804363
0.846979
0.809076
0.80341
0.806026
0.834292
0.83135
0.803589
0.856305
0.795959
0.820058
0.661677
0.803166
0.800247
0.798835
0.831712
0.608811
0.806337
0.805557
0.658566
0.814564
0.829331
0.813836
0.803384
0.806048
0.802507
0.816067
0.798908
0.720453
0.513623
0.813386
0.805635
0.801808
0.804522
0.802996
0.803687
0.810719
0.798099
0.813713
0.583305
0.812807
0.809412
0.811881
0.842351
0.81371
0.834227
0.8114
0.797666
0.812784
0.68242
0.803733
0.850251
0.812817
0.793019
0.814179
0.63393
0.805474
0.566591
0.66239
0.673451
0.809558
0.815497
0.812441
0.49728
0.694483
0.803471
0.830779
0.747351
0.831378
0.805163
0.804743
0.796728
0.694636
0.751294
0.547363
0.802773
0.811669
0.804293
0.820864
0.669877
0.622967
0.854016
0.801544
0.814027
0.729076
0.813543
0.526434
0.820828
0.703316
0.813835
0.817511
0.801682
0.802138
0.825167
0.794875
0.803607
0.8039
0.631343
0.806596
0.653208
0.798805
0.798239
0.813722
0.815338
0.729126
0.815392
0.755776
0.80316
0.721366
0.804995
0.745929
0.671511
0.824539
0.812399
0.79913
0.726387
0.81138
0.658429
0.810918
0.802923
0.728319
0.825859
0.816354
0.637574
0.696047
0.825785
0.803659
0.725642
0.833674
0.834729
0.83612
0.811759
0.548244
0.751064
0.821017
0.820317
0.521312
0.640037
0.815603
0.812459
0.72188
0.778396
0.812051
0.80707
0.757976
0.812185
0.8135
0.803574
0.728789
0.802241
0.796916
0.812088
0.576966
0.805565
0.821781
0.574294
0.81816
0.845368
0.812016
0.676622
0.811746
0.811624
0.811852
0.801165
0.818716
0.803253
0.806691
0.804859
0.803314
0.813511
0.485444
0.809893
0.809695
0.691967
0.603239
0.786099
0.798353
0.812091
0.753269
0.564587
0.811436
0.783512
0.812063
0.821499
0.813492
0.825091
0.748332
0.590425
0.811536
0.839076
0.812012
0.70933
0.803484
0.727319
0.813146
0.811079
0.811921
0.817356
0.801257
0.813071
0.808346
0.757542
0.816241
0.812634
0.75178
0.791903
0.710853
0.558702
0.733579
0.78157
0.815818
0.811324
0.810656
0.810585
0.803299
0.795386
0.80807
0.707271
0.7534
0.811592
0.803429
0.804832
0.818352
0.604223
0.813561
0.803897
0.84354
0.80785
0.636382
0.79369
0.803817
0.842466
0.690823
0.56192
0.577045
0.63525
0.817609
0.804507
0.560442
0.585518
0.81995
0.812191
0.889287
0.804808
0.829441
0.812432
0.769435
0.810805
0.812596
0.812083
0.810639
0.812017
0.798021
0.812175
0.641151
0.815723
0.803632
0.809639
0.756659
0.817154
0.610954
0.855465
0.803932
0.827002
0.812012
0.808005
0.748064
0.822276
0.811924
0.837222
0.8118
0.812518
0.641308
0.826758
0.810154
0.812386
0.836597
0.822563
0.553842
0.796473
0.802771
0.81094
0.816957
0.803941
0.800199
0.815207
0.76511
0.804952
0.815851
0.863452
0.831145
0.58689
0.79606
0.754107
0.814029
0.761518
0.819386
0.804841
0.806392
0.81224
0.789133
0.805613
0.815472
0.821839
0.787349
0.668628
0.733817
0.697967
0.814127
0.835912
0.837837
0.733531
0.808853
0.753926
0.609709
0.812037
0.79946
0.811799
0.803578
0.63093
0.802223
0.776509
0.736693
0.810767
0.744624
0.807592
0.816446
0.859735
0.809637
0.807094
0.739977
0.812493
0.77587
0.839378
0.883747
0.79703
0.520582
0.79968
0.607673
0.769293
0.657286
0.799161
0.494767
0.81499
0.849795
0.805933
0.810622
0.819696
0.80285
0.803254
0.696672
0.822955
0.811937
0.804153
0.806606
0.792441
0.803562
0.806817
0.6285
0.816522
0.80201
0.845215
0.80799
0.804376
0.801482
0.812969
0.813083
0.807546
0.803535
0.787535
0.812154
0.795279
0.801742
0.813258
0.771788
0.56711
0.81266
0.818143
0.803986
0.724535
0.801185
0.807705
0.803483
0.698344
0.873098
0.811613
0.81671
0.81204
0.847738
0.77817
0.812111
0.787629
0.815826
0.822025
0.663238
0.812147
0.728587
0.819006
0.718275
0.799482
0.751202
0.802509
0.57733
0.809204
0.735038
0.476469
0.820155
0.661836
0.769066
0.817212
0.812303
0.776544
0.811244
0.718784
0.638133
0.826151
0.698573
0.81669
0.767362
0.801614
0.807932
0.813253
0.652237
0.804322
0.77485
0.809582
0.812052
0.829006
0.806118
0.68755
0.755459
0.651425
0.798185
0.803022
0.811947
0.815393
0.811904
0.811522
0.809363
0.663467
0.731286
0.48814
0.696467
0.813872
0.808104
0.832953
0.809416
0.814677
0.710024
0.874043
0.815149
0.826172
0.571533
0.82286
0.812162
0.840663
0.84553
0.826542
0.830026
0.820161
0.540515
0.805735
0.814904
0.715963
0.816744
0.801316
0.812097
0.807946
0.812581
0.812646
0.767179
0.721198
0.798005
0.800325
0.571752
0.813995
0.858997
0.815288
0.65889
0.822481
0.813101
0.81951
0.835196
0.6878
0.486582
0.804849
0.83983
0.806067
0.803903
0.81419
0.80157
0.812422
0.809499
0.799944
0.804247
0.804686
0.812449
0.805559
0.806169
0.798591
0.836095
0.830663
0.853193
0.812871
0.807382
0.814438
0.812959
0.812052
0.810997
0.815554
0.833959
0.808606
0.811081
0.600888
0.830508
0.710651
0.868159
0.803623
0.833257
0.799054
0.786089
0.78571
0.740014
0.821154
0.810941
0.811512
0.813358
0.775839
0.807851
0.584304
0.806076
0.812969
0.813122
0.795685
0.812038
0.611086
0.783494
0.558308
0.820754
0.796913
0.774537
0.801905
0.81365
0.812407
0.81244
0.737883
0.808248
0.811897
0.810359
0.803652
0.803819
0.747276
0.767296
0.809273
0.803728
0.696413
0.597923
0.489856
0.841013
0.806068
0.778591
0.781212
0.824251
0.803575
0.803965
0.818008
0.779237
0.756993
0.816128
0.807479
0.811142
0.837194
0.804836
0.811714
0.808256
0.483591
0.803446
0.811868
0.773728
0.819393
0.814184
0.825573
0.599598
0.710312
0.573052
0.828249
0.815582
0.743312
0.811836
0.676766
0.813738
0.810634
0.811867
0.80311
0.81184
0.576941
0.6864
0.806126
0.813277
0.793701
0.801284
0.83102
0.798716
0.803014
0.643047
0.807767
0.81193
0.804286
0.812236
0.802741
0.617009
0.814276
0.812352
0.572485
0.697233
0.793134
0.828164
0.697556
0.804002
0.793646
0.812109
0.756558
0.684958
0.81041
0.795906
0.799327
0.766354
0.540699
0.820221
0.67353
0.747692
0.731289
0.803973
0.79733
0.811429
0.66014
0.767577
0.803975
0.814968
0.592636
0.798926
0.825752
0.807181
0.539231
0.805601
0.783423
0.707211
0.70594
0.800403
0.819102
0.812981
0.808651
0.699611
0.739652
0.641467
0.832302
0.842877
0.816876
0.788168
0.865208
0.696893
0.813326
0.766763
0.790236
0.795534
0.811944
0.803988
0.811568
0.787087
0.755267
0.819728
0.796762
0.842114
0.719348
0.791392
0.805523
0.723266
0.803239
0.814463
0.576008
0.801949
0.798993
0.802794
0.821167
0.764282
0.800173
0.722639
0.812122
0.808834
0.725222
0.812123
0.816192
0.828636
0.805592
0.787121
0.797672
0.805631
0.726494
0.812434
0.801193
0.677604
0.806901
0.780286
0.831881
0.820873
0.818986
0.839289
0.848264
0.699191
0.813702
0.795542
0.787313
0.617558
0.816934
0.803657
0.812206
0.776171
0.853456
0.832789
0.781813
0.842049
0.779792
0.800639
0.771976
0.812197
0.721716
0.635824
0.844192
0.661039
0.792816
0.839715
0.812416
0.671202
0.80924
0.75191
0.803978
0.799008
0.781356
0.80416
0.801091
0.802801
0.801899
0.78562
0.812005
0.781434
0.816248
0.807474
0.712727
0.783861
0.815154
0.812438
0.805493
0.56409
0.825106
0.812849
0.812029
0.703543
0.804778
0.801112
0.801334
0.815884
0.746213
0.815967
0.800582
0.804587
0.755244
0.811467
0.812746
0.805926
0.769018
0.807926
0.812969
0.808049
0.815824
0.808336
0.80607
0.822923
0.804603
0.788762
0.806236
0.812173
0.818161
0.77876
0.703573
0.81376
0.812184
0.800785
0.742493
0.788814
0.654112
0.803392
0.540293
0.803172
0.814407
0.774908
0.834584
0.515437
0.809463
0.738465
0.810463
0.53433
0.804374
0.827847
0.813312
0.818721
0.734315
0.840928
0.553704
0.823533
0.702573
0.799593
0.477789
0.669902
0.81255
0.812042
0.741772
0.801016
0.820869
0.612085
0.821994
0.770906
0.833488
0.812047
0.814146
0.813131
0.80383
0.836839
0.810679
0.803764
0.47623
0.803114
0.843483
0.802245
0.801361
0.767602
0.805435
0.811986
0.812141
0.796633
0.734334
0.810427
0.815489
0.603048
0.804171
0.537225
0.815651
0.53969
0.811986
0.770415
0.682578
0.733446
0.783091
0.713095
0.841561
0.813719
0.796899
0.80398
0.70337
0.802562
0.789468
0.802454
0.814973
0.801734
0.731371
0.698067
0.800636
0.772303
0.51902
0.811202
0.663418
0.794114
0.705514
0.825036
0.809436
0.825049
0.810206
0.837188
0.807286
0.580104
0.829239
0.807043
0.801574
0.815429
0.811978
0.812594
0.814579
0.825126
0.816386
0.618139
0.804753
0.800661
0.812893
0.692214
0.802318
0.823268
0.756399
0.688611
0.807526
0.688469
0.731712
0.810063
0.812709
0.668584
0.841471
0.766967
0.805397
0.79648
0.809792
0.844491
0.80107
0.538956
0.814888
0.708071
0.528592
0.778179
0.758162
0.769554
0.812193
0.803518
0.816385
0.81201
0.58586
0.787502
0.831269
0.812091
0.591263
0.721612
0.635012
0.816655
0.810461
0.690965
0.80399
0.812167
0.799361
0.834241
0.606191
0.840337
0.740148
0.81196
0.81247
0.669361
0.812532
0.720889
0.79183
0.716404
0.8119
0.78447
0.633979
0.724201
0.712428
0.833143
0.809408
0.81932
0.82203
0.803346
0.808522
0.802843
0.817636
0.803261
0.687195
0.803445
0.603535
0.776737
0.807182
0.802334
0.812165
0.82426
0.803329
0.717017
0.710309
0.667261
0.790305
0.816728
0.749036
0.579813
0.751512
0.81025
0.801859
0.760218
0.803605
0.823147
0.753248
0.56885
0.702122
0.798647
0.812164
0.864291
0.814624
0.811768
0.851817
0.799603
0.801857
0.814404
0.812261
0.805363
0.717671
0.809153
0.695531
0.86223
0.778692
0.813432
0.574522
0.796537
0.529252
0.58328
0.585295
0.807927
0.803634
0.809281
0.758184
0.803557
0.532343
0.782245
0.802948
0.734602
0.814341
0.801669
0.815842
0.842888
0.515248
0.812049
0.802085
0.809597
0.816734
0.812879
0.812349
0.75417
0.797192
0.7988
0.803235
0.797607
0.810733
0.845341
0.818566
0.723746
0.804685
0.608029
0.81321
0.812062
0.586635
0.766869
0.766936
0.536402
0.784291
0.803643
0.878263
0.798405
0.813116
0.755237
0.794425
0.797086
0.809254
0.782688
0.542043
0.710927
0.680449
0.781062
0.814662
0.802899
0.821828
0.790241
0.801842
0.812805
0.798122
0.852152
0.704698
0.811877
0.780688
0.531031
0.516217
0.812918
0.803548
0.805448
0.560446
0.79699
0.803746
0.65915
0.813741
0.790637
0.806589
0.814825
0.533973
0.724483
0.718863
0.81247
0.832039
0.630008
0.789837
0.716976
0.813614
0.827263
0.779445
0.773179
0.535283
0.811541
0.80241
0.723673
0.852062
0.80582
0.722791
0.739877
0.7639
0.810823
0.563472
0.796705
0.737954
0.80033
0.821873
0.720119
0.799217
0.811772
0.716536
0.813016
0.705999
0.816001
0.798246
0.759652
0.690018
0.808927
0.800008
0.813387
0.669602
0.805376
0.80488
0.811614
0.699484
0.812167
0.808412
0.831758
0.650942
0.815509
0.74078
0.811957
0.805745
0.842206
0.803688
0.818932
0.749049
0.815202
0.838797
0.832826
0.816459
0.845629
0.752309
0.847797
0.826036
0.803864
0.825752
0.80562
0.646645
0.778096
0.813945
0.746838
0.695238
0.798499
0.804107
0.680222
0.797481
0.538037
0.848492
0.696226
0.70625
0.813588
0.774489
0.806908
0.79894
0.80697
0.803892
0.812049
0.835664
0.730077
0.772165
0.588286
0.810039
0.777031
0.810918
0.805119
0.570084
0.802911
0.802533
0.807517
0.798672
0.81675
0.808159
0.709739
0.82314
0.847964
0.684455
0.743654
0.812204
0.80097
0.712423
0.814301
0.754382
0.796796
0.80291
0.805371
0.837155
0.668759
0.723216
0.800805
0.702037
0.772654
0.832158
0.532071
0.691309
0.799587
0.804293
0.803367
0.741742
0.822394
0.806916
0.803666
0.808137
0.813325
0.696109
0.649314
0.809682
0.813827
0.799276
0.871538
0.802749
0.81239
0.799053
0.809982
0.811303
0.808377
0.653127
0.814754
0.816603
0.803442
0.801917
0.799419
0.61733
0.809737
0.810545
0.812454
0.862373
0.814451
0.801497
0.480805
0.836357
0.692767
0.826407
0.805802
0.813795
0.824058
0.809127
0.812102
0.731027
0.551423
0.491889
0.812364
0.80899
0.534205
0.795573
0.814517
0.833298
0.504169
0.809589
0.81346
0.802291
0.809095
0.530402
0.813147
0.808255
0.560009
0.812245
0.815288
0.538868
0.808798
0.812698
0.775851
0.806304
0.811191
0.809538
0.799034
0.825893
0.533904
0.830206
0.815814
0.804072
0.742129
0.786214
0.811394
0.809403
0.802159
0.815965
0.80071
0.657273
0.806198
0.58544
0.812003
0.659894
0.746352
0.797006
0.718316
0.803545
0.579769
0.849745
0.812241
0.812369
0.79931
0.802721
0.803183
0.813653
0.814394
0.67014
0.717786
0.726301
0.814808
0.721463
0.575782
0.817419
0.783742
0.827893
0.811724
0.809391
0.732534
0.536026
0.79873
0.790073
0.496343
0.813879
0.813042
0.735621
0.805925
0.768539
0.607159
0.809985
0.814661
0.78867
0.609843
0.802318
0.782983
0.826368
0.81301
0.810426
0.811904
0.81287
0.715607
0.800101
0.815769
0.694892
0.480692
0.733014
0.798813
0.730851
0.813047
0.798168
0.805534
0.782586
0.867336
0.803556
0.801679
0.825796
0.859339
0.804621
0.815723
0.794371
0.815938
0.789174
0.744035
0.811923
0.804267
0.816257
0.803252
0.790849
0.842811
0.766114
0.812768
0.773404
0.803749
0.642588
0.509527
0.800995
0.802176
0.809568
0.79816
0.799707
0.811964
0.772925
0.80465
0.812046
0.782231
0.816939
0.777166
0.593431
0.805054
0.760902
0.776228
0.750503
0.76367
0.793934
0.788591
0.823049
0.787529
0.809429
0.803369
0.765165
0.815552
0.542371
0.729592
0.810583
0.814033
0.811449
0.802364
0.812874
0.81055
0.805761
0.821188
0.809695
0.78297
0.816641
0.801729
0.790515
0.795905
0.805174
0.586202
0.803631
0.792186
0.574596
0.813211
0.807243
0.806052
0.810768
0.702404
0.754865
0.821141
0.7749
0.811399
0.816361
0.722126
0.804487
0.824133
0.720112
0.799439
0.809556
0.778598
0.804757
0.837008
0.801918
0.817359
0.772559
0.805343
0.800335
0.813117
0.802154
0.797945
0.588802
0.815255
0.786766
0.806641
0.825651
0.691303
0.828578
0.819992
0.505469
0.806418
0.804458
0.801525
0.812307
0.824268
0.824088
0.804916
0.805947
0.814206
0.813385
0.803524
0.812607
0.804763
0.749284
0.708367
0.780942
0.813704
0.812126
0.775896
0.757823
0.813936
0.82496
0.810534
0.812261
0.691719
0.500903
0.747773
0.817568
0.806753
0.816278
0.84421
0.79992
0.714991
0.65435
0.799713
0.804731
0.694322
0.81271
0.671329
0.836835
0.729277
0.812891
0.895262
0.81562
0.80085
0.777774
0.811114
0.681607
0.814203
0.80826
0.791529
0.805646
0.779419
0.800694
0.810039
0.780509
0.803579
0.852082
0.777016
0.802136
0.493136
0.803201
0.693943
0.804102
0.794461
0.788586
0.783651
0.722261
0.802134
0.78822
0.844478
0.813325
0.812485
0.811825
0.89552
0.746472
0.802743
0.73093
0.80316
0.798417
0.804521
0.716833
0.800968
0.805511
0.639258
0.808698
0.748623
0.534661
0.846532
0.847353
0.750082
0.810774
0.794686
0.772064
0.731833
0.77602
0.785506
0.736268
0.803859
0.804444
0.719585
0.815349
0.804985
0.556985
0.812038
0.821478
0.81328
0.803511
0.610766
0.715118
0.806282
0.859192
0.483988
0.724598
0.806486
0.815971
0.79648
0.713184
0.710838
0.809031
0.813275
0.815047
0.837103
0.745169
0.754438
0.875756
0.806883
0.809265
0.795183
0.637765
0.598022
0.586099
0.657112
0.586413
0.764256
0.800762
0.803408
0.81231
0.809156
0.811485
0.860176
0.715553
0.823897
0.813932
0.817125
0.816675
0.81386
0.813007
0.811617