# vtk DataFile Version 1.0
unstructured grid
ascii
DATASET UNSTRUCTURED_GRID
points 14760 float
-1 0 0
-1 1 0
2 0 0
2 1 0
0 0 0
1 0 0
-1 1 0.1
-1 0 0.1
0 0 0.1
1 0 0.1
2 0 0.1
2 1 0.1
-0.99 0 0
-0.98 0 0
-0.97 0 0
-0.96 0 0
-0.95 0 0
-0.94 0 0
-0.93 0 0
-0.92 0 0
-0.91 0 0
-0.9 0 0
-0.89 0 0
-0.88 0 0
-0.87 0 0
-0.86 0 0
-0.85 0 0
-0.84 0 0
-0.83 0 0
-0.82 0 0
-0.81 0 0
-0.8 0 0
-0.79 0 0
-0.78 0 0
-0.77 0 0
-0.76 0 0
-0.75 0 0
-0.74 0 0
-0.73 0 0
-0.72 0 0
-0.71 0 0
-0.7 0 0
-0.69 0 0
-0.68 0 0
-0.67 0 0
-0.66 0 0
-0.65 0 0
-0.64 0 0
-0.63 0 0
-0.62 0 0
-0.61 0 0
-0.6 0 0
-0.59 0 0
-0.58 0 0
-0.57 0 0
-0.56 0 0
-0.55 0 0
-0.54 0 0
-0.53 0 0
-0.52 0 0
-0.51 0 0
-0.5 0 0
-0.49 0 0
-0.48 0 0
-0.47 0 0
-0.46 0 0
-0.45 0 0
-0.44 0 0
-0.43 0 0
-0.42 0 0
-0.41 0 0
-0.4 0 0
-0.39 0 0
-0.38 0 0
-0.37 0 0
-0.36 0 0
-0.35 0 0
-0.34 0 0
-0.33 0 0
-0.32 0 0
-0.31 0 0
-0.3 0 0
-0.29 0 0
-0.28 0 0
-0.27 0 0
-0.26 0 0
-0.25 0 0
-0.24 0 0
-0.23 0 0
-0.22 0 0
-0.21 0 0
-0.2 0 0
-0.19 0 0
-0.18 0 0
-0.17 0 0
-0.16 0 0
-0.15 0 0
-0.14 0 0
-0.13 0 0
-0.12 0 0
-0.11 0 0
-0.1 0 0
-0.09 0 0
-0.08 0 0
-0.07 0 0
-0.06 0 0
-0.05 0 0
-0.04 0 0
-0.03 0 0
-0.02 0 0
-0.01 0 0
1.01 0 0
1.02 0 0
1.03 0 0
1.04 0 0
1.05 0 0
1.06 0 0
1.07 0 0
1.08 0 0
1.09 0 0
1.1 0 0
1.11 0 0
1.12 0 0
1.13 0 0
1.14 0 0
1.15 0 0
1.16 0 0
1.17 0 0
1.18 0 0
1.19 0 0
1.2 0 0
1.21 0 0
1.22 0 0
1.23 0 0
1.24 0 0
1.25 0 0
1.26 0 0
1.27 0 0
1.28 0 0
1.29 0 0
1.3 0 0
1.31 0 0
1.32 0 0
1.33 0 0
1.34 0 0
1.35 0 0
1.36 0 0
1.37 0 0
1.38 0 0
1.39 0 0
1.4 0 0
1.41 0 0
1.42 0 0
1.43 0 0
1.44 0 0
1.45 0 0
1.46 0 0
1.47 0 0
1.48 0 0
1.49 0 0
1.5 0 0
1.51 0 0
1.52 0 0
1.53 0 0
1.54 0 0
1.55 0 0
1.56 0 0
1.57 0 0
1.58 0 0
1.59 0 0
1.6 0 0
1.61 0 0
1.62 0 0
1.63 0 0
1.64 0 0
1.65 0 0
1.66 0 0
1.67 0 0
1.68 0 0
1.69 0 0
1.7 0 0
1.71 0 0
1.72 0 0
1.73 0 0
1.74 0 0
1.75 0 0
1.76 0 0
1.77 0 0
1.78 0 0
1.79 0 0
1.8 0 0
1.81 0 0
1.82 0 0
1.83 0 0
1.84 0 0
1.85 0 0
1.86 0 0
1.87 0 0
1.88 0 0
1.89 0 0
1.9 0 0
1.91 0 0
1.92 0 0
1.93 0 0
1.94 0 0
1.95 0 0
1.96 0 0
1.97 0 0
1.98 0 0
1.99 0 0
2 0.0100088 0
2 0.0204183 0
2 0.0312446 0
2 0.0425043 0
2 0.0542147 0
2 0.066394 0
2 0.079061 0
2 0.092235 0
2 0.105936 0
2 0.120186 0
2 0.135007 0
2 0.150421 0
2 0.166452 0
2 0.183124 0
2 0.200465 0
2 0.218499 0
2 0.237256 0
2 0.256763 0
2 0.277051 0
2 0.298152 0
2 0.320097 0
2 0.342921 0
2 0.366659 0
2 0.391347 0
2 0.417024 0
2 0.443728 0
2 0.471502 0
2 0.500387 0
2 0.530429 0
2 0.561674 0
2 0.594169 0
2 0.627966 0
2 0.663115 0
2 0.699672 0
2 0.737692 0
2 0.777235 0
2 0.818361 0
2 0.861133 0
2 0.905617 0
2 0.951882 0
1.95 1 0
1.9 1 0
1.85 1 0
1.8 1 0
1.75 1 0
1.7 1 0
1.65 1 0
1.6 1 0
1.55 1 0
1.5 1 0
1.45 1 0
1.4 1 0
1.35 1 0
1.3 1 0
1.25 1 0
1.2 1 0
1.15 1 0
1.1 1 0
1.05 1 0
1 1 0
0.95 1 0
0.9 1 0
0.85 1 0
0.8 1 0
0.75 1 0
0.7 1 0
0.65 1 0
0.6 1 0
0.55 1 0
0.5 1 0
0.45 1 0
0.4 1 0
0.35 1 0
0.3 1 0
0.25 1 0
0.2 1 0
0.15 1 0
0.1 1 0
0.05 1 0
3.69793e-12 1 0
-0.05 1 0
-0.1 1 0
-0.15 1 0
-0.2 1 0
-0.25 1 0
-0.3 1 0
-0.35 1 0
-0.4 1 0
-0.45 1 0
-0.5 1 0
-0.55 1 0
-0.6 1 0
-0.65 1 0
-0.7 1 0
-0.75 1 0
-0.8 1 0
-0.85 1 0
-0.9 1 0
-0.95 1 0
-1 0.951882 0
-1 0.905617 0
-1 0.861133 0
-1 0.818361 0
-1 0.777235 0
-1 0.737692 0
-1 0.699672 0
-1 0.663115 0
-1 0.627966 0
-1 0.594169 0
-1 0.561674 0
-1 0.530429 0
-1 0.500387 0
-1 0.471502 0
-1 0.443728 0
-1 0.417024 0
-1 0.391347 0
-1 0.366659 0
-1 0.342921 0
-1 0.320097 0
-1 0.298152 0
-1 0.277051 0
-1 0.256763 0
-1 0.237256 0
-1 0.218499 0
-1 0.200465 0
-1 0.183124 0
-1 0.166452 0
-1 0.150421 0
-1 0.135007 0
-1 0.120186 0
-1 0.105936 0
-1 0.092235 0
-1 0.079061 0
-1 0.066394 0
-1 0.0542147 0
-1 0.0425043 0
-1 0.0312446 0
-1 0.0204183 0
-1 0.0100088 0
0.00921362 0.00379763 0
0.0184561 0.00752451 0
0.0277268 0.0111804 0
0.0370253 0.0147652 0
0.0463511 0.0182786 0
0.0557034 0.0217203 0
0.0650819 0.0250903 0
0.074486 0.0283883 0
0.083915 0.0316141 0
0.0933685 0.0347675 0
0.102846 0.0378484 0
0.112347 0.0408565 0
0.12187 0.0437917 0
0.131416 0.0466538 0
0.140983 0.0494427 0
0.150572 0.0521581 0
0.160181 0.0547999 0
0.16981 0.0573681 0
0.179458 0.0598623 0
0.189125 0.0622825 0
0.198811 0.0646285 0
0.208514 0.0669001 0
0.218234 0.0690974 0
0.227971 0.07122 0
0.237724 0.073268 0
0.247493 0.0752411 0
0.257276 0.0771393 0
0.267073 0.0789625 0
0.276884 0.0807105 0
0.286708 0.0823832 0
0.296545 0.0839806 0
0.306394 0.0855025 0
0.316254 0.0869488 0
0.326125 0.0883196 0
0.336006 0.0896146 0
0.345896 0.0908339 0
0.355796 0.0919773 0
0.365704 0.0930447 0
0.375621 0.0940362 0
0.385544 0.0949517 0
0.395474 0.095791 0
0.40541 0.0965542 0
0.415352 0.0972412 0
0.425299 0.097852 0
0.43525 0.0983865 0
0.445205 0.0988447 0
0.455164 0.0992266 0
0.465125 0.0995321 0
0.475088 0.0997613 0
0.485052 0.0999141 0
0.495017 0.0999904 0
0.504983 0.0999904 0
0.514948 0.0999141 0
0.524912 0.0997613 0
0.534875 0.0995321 0
0.544836 0.0992266 0
0.554795 0.0988447 0
0.56475 0.0983865 0
0.574701 0.097852 0
0.584648 0.0972412 0
0.59459 0.0965542 0
0.604526 0.095791 0
0.614456 0.0949517 0
0.624379 0.0940362 0
0.634296 0.0930447 0
0.644204 0.0919773 0
0.654104 0.0908339 0
0.663994 0.0896146 0
0.673875 0.0883196 0
0.683746 0.0869488 0
0.693606 0.0855025 0
0.703455 0.0839806 0
0.713292 0.0823832 0
0.723116 0.0807105 0
0.732927 0.0789625 0
0.742724 0.0771393 0
0.752508 0.0752411 0
0.762276 0.073268 0
0.772029 0.07122 0
0.781766 0.0690974 0
0.791486 0.0669001 0
0.801189 0.0646285 0
0.810875 0.0622825 0
0.820542 0.0598623 0
0.83019 0.0573681 0
0.839819 0.0547999 0
0.849428 0.0521581 0
0.859017 0.0494427 0
0.868584 0.0466538 0
0.87813 0.0437917 0
0.887653 0.0408565 0
0.897154 0.0378484 0
0.906631 0.0347675 0
0.916085 0.0316141 0
0.925514 0.0283883 0
0.934918 0.0250903 0
0.944297 0.0217203 0
0.953649 0.0182786 0
0.962975 0.0147652 0
0.972273 0.0111804 0
0.981544 0.00752451 0
0.990786 0.00379763 0
-1 0.951882 0.1
-1 0.905617 0.1
-1 0.861133 0.1
-1 0.818361 0.1
-1 0.777235 0.1
-1 0.737692 0.1
-1 0.699672 0.1
-1 0.663115 0.1
-1 0.627966 0.1
-1 0.594169 0.1
-1 0.561674 0.1
-1 0.530429 0.1
-1 0.500387 0.1
-1 0.471502 0.1
-1 0.443728 0.1
-1 0.417024 0.1
-1 0.391347 0.1
-1 0.366659 0.1
-1 0.342921 0.1
-1 0.320097 0.1
-1 0.298152 0.1
-1 0.277051 0.1
-1 0.256763 0.1
-1 0.237256 0.1
-1 0.218499 0.1
-1 0.200465 0.1
-1 0.183124 0.1
-1 0.166452 0.1
-1 0.150421 0.1
-1 0.135007 0.1
-1 0.120186 0.1
-1 0.105936 0.1
-1 0.092235 0.1
-1 0.079061 0.1
-1 0.066394 0.1
-1 0.0542147 0.1
-1 0.0425043 0.1
-1 0.0312446 0.1
-1 0.0204183 0.1
-1 0.0100088 0.1
-0.99 0 0.1
-0.98 0 0.1
-0.97 0 0.1
-0.96 0 0.1
-0.95 0 0.1
-0.94 0 0.1
-0.93 0 0.1
-0.92 0 0.1
-0.91 0 0.1
-0.9 0 0.1
-0.89 0 0.1
-0.88 0 0.1
-0.87 0 0.1
-0.86 0 0.1
-0.85 0 0.1
-0.84 0 0.1
-0.83 0 0.1
-0.82 0 0.1
-0.81 0 0.1
-0.8 0 0.1
-0.79 0 0.1
-0.78 0 0.1
-0.77 0 0.1
-0.76 0 0.1
-0.75 0 0.1
-0.74 0 0.1
-0.73 0 0.1
-0.72 0 0.1
-0.71 0 0.1
-0.7 0 0.1
-0.69 0 0.1
-0.68 0 0.1
-0.67 0 0.1
-0.66 0 0.1
-0.65 0 0.1
-0.64 0 0.1
-0.63 0 0.1
-0.62 0 0.1
-0.61 0 0.1
-0.6 0 0.1
-0.59 0 0.1
-0.58 0 0.1
-0.57 0 0.1
-0.56 0 0.1
-0.55 0 0.1
-0.54 0 0.1
-0.53 0 0.1
-0.52 0 0.1
-0.51 0 0.1
-0.5 0 0.1
-0.49 0 0.1
-0.48 0 0.1
-0.47 0 0.1
-0.46 0 0.1
-0.45 0 0.1
-0.44 0 0.1
-0.43 0 0.1
-0.42 0 0.1
-0.41 0 0.1
-0.4 0 0.1
-0.39 0 0.1
-0.38 0 0.1
-0.37 0 0.1
-0.36 0 0.1
-0.35 0 0.1
-0.34 0 0.1
-0.33 0 0.1
-0.32 0 0.1
-0.31 0 0.1
-0.3 0 0.1
-0.29 0 0.1
-0.28 0 0.1
-0.27 0 0.1
-0.26 0 0.1
-0.25 0 0.1
-0.24 0 0.1
-0.23 0 0.1
-0.22 0 0.1
-0.21 0 0.1
-0.2 0 0.1
-0.19 0 0.1
-0.18 0 0.1
-0.17 0 0.1
-0.16 0 0.1
-0.15 0 0.1
-0.14 0 0.1
-0.13 0 0.1
-0.12 0 0.1
-0.11 0 0.1
-0.1 0 0.1
-0.09 0 0.1
-0.08 0 0.1
-0.07 0 0.1
-0.06 0 0.1
-0.05 0 0.1
-0.04 0 0.1
-0.03 0 0.1
-0.02 0 0.1
-0.01 0 0.1
0.00921362 0.00379763 0.1
0.0184561 0.00752451 0.1
0.0277268 0.0111804 0.1
0.0370253 0.0147652 0.1
0.0463511 0.0182786 0.1
0.0557034 0.0217203 0.1
0.0650819 0.0250903 0.1
0.074486 0.0283883 0.1
0.083915 0.0316141 0.1
0.0933685 0.0347675 0.1
0.102846 0.0378484 0.1
0.112347 0.0408565 0.1
0.12187 0.0437917 0.1
0.131416 0.0466538 0.1
0.140983 0.0494427 0.1
0.150572 0.0521581 0.1
0.160181 0.0547999 0.1
0.16981 0.0573681 0.1
0.179458 0.0598623 0.1
0.189125 0.0622825 0.1
0.198811 0.0646285 0.1
0.208514 0.0669001 0.1
0.218234 0.0690974 0.1
0.227971 0.07122 0.1
0.237724 0.073268 0.1
0.247493 0.0752411 0.1
0.257276 0.0771393 0.1
0.267073 0.0789625 0.1
0.276884 0.0807105 0.1
0.286708 0.0823832 0.1
0.296545 0.0839806 0.1
0.306394 0.0855025 0.1
0.316254 0.0869488 0.1
0.326125 0.0883196 0.1
0.336006 0.0896146 0.1
0.345896 0.0908339 0.1
0.355796 0.0919773 0.1
0.365704 0.0930447 0.1
0.375621 0.0940362 0.1
0.385544 0.0949517 0.1
0.395474 0.095791 0.1
0.40541 0.0965542 0.1
0.415352 0.0972412 0.1
0.425299 0.097852 0.1
0.43525 0.0983865 0.1
0.445205 0.0988447 0.1
0.455164 0.0992266 0.1
0.465125 0.0995321 0.1
0.475088 0.0997613 0.1
0.485052 0.0999141 0.1
0.495017 0.0999904 0.1
0.504983 0.0999904 0.1
0.514948 0.0999141 0.1
0.524912 0.0997613 0.1
0.534875 0.0995321 0.1
0.544836 0.0992266 0.1
0.554795 0.0988447 0.1
0.56475 0.0983865 0.1
0.574701 0.097852 0.1
0.584648 0.0972412 0.1
0.59459 0.0965542 0.1
0.604526 0.095791 0.1
0.614456 0.0949517 0.1
0.624379 0.0940362 0.1
0.634296 0.0930447 0.1
0.644204 0.0919773 0.1
0.654104 0.0908339 0.1
0.663994 0.0896146 0.1
0.673875 0.0883196 0.1
0.683746 0.0869488 0.1
0.693606 0.0855025 0.1
0.703455 0.0839806 0.1
0.713292 0.0823832 0.1
0.723116 0.0807105 0.1
0.732927 0.0789625 0.1
0.742724 0.0771393 0.1
0.752508 0.0752411 0.1
0.762276 0.073268 0.1
0.772029 0.07122 0.1
0.781766 0.0690974 0.1
0.791486 0.0669001 0.1
0.801189 0.0646285 0.1
0.810875 0.0622825 0.1
0.820542 0.0598623 0.1
0.83019 0.0573681 0.1
0.839819 0.0547999 0.1
0.849428 0.0521581 0.1
0.859017 0.0494427 0.1
0.868584 0.0466538 0.1
0.87813 0.0437917 0.1
0.887653 0.0408565 0.1
0.897154 0.0378484 0.1
0.906631 0.0347675 0.1
0.916085 0.0316141 0.1
0.925514 0.0283883 0.1
0.934918 0.0250903 0.1
0.944297 0.0217203 0.1
0.953649 0.0182786 0.1
0.962975 0.0147652 0.1
0.972273 0.0111804 0.1
0.981544 0.00752451 0.1
0.990786 0.00379763 0.1
1.01 0 0.1
1.02 0 0.1
1.03 0 0.1
[...]
CELL_DATA 14313
SCALARS rho float
LOOKUP_TABLE default
0.792984
0.829598
0.811835
0.611179
0.784749
0.831
0.829426
0.829638
0.815622
0.820185
0.831181
0.804298
0.801307
0.673922
0.828974
0.840831
0.81351
0.813031
0.825315
0.81137
0.82973
0.819643
0.829516
0.784586
0.828612
0.819694
0.756739
0.712251
0.829072
0.833951
0.830066
0.800539
0.806508
0.82859
0.807911
0.825749
0.71439
0.813647
0.828247
0.805181
0.768222
0.829249
0.613889
0.730768
0.83002
0.841864
0.826848
0.788964
0.814576
0.857858
0.710799
0.678921
0.68596
0.825669
0.830773
0.792795
0.830008
0.820429
0.815394
0.82874
0.830883
0.830671
0.800522
0.845049
0.829211
0.82859
0.859692
0.793898
0.848112
0.828968
0.803876
0.84046
0.663945
0.844736
0.761733
0.819809
0.831269
0.761093
0.716072
0.829664
0.631935
0.834287
0.839413
0.805355
0.818409
0.831116
0.830938
0.807581
0.83346
0.812476
0.790911
0.675721
0.811809
0.803274
0.761786
0.806416
0.828745
0.826302
0.806124
0.665602
0.818153
0.826359
0.829475
0.822555
0.764528
0.813807
0.805917
0.718474
0.842592
0.825192
0.81878
0.835103
0.82619
0.831152
0.806697
0.836835
0.830913
0.843869
0.790112
0.803788
0.828144
0.826545
0.863668
0.756932
0.849796
0.773397
0.801829
0.807612
0.828851
0.849373
0.825546
0.830009
0.864833
0.829567
0.834063
0.792724
0.815916
0.799828
0.830071
0.83007
0.829425
0.828445
0.804092
0.805453
0.803697
0.846818
0.809495
0.776322
0.805605
0.830069
0.802853
0.805255
0.829519
0.735566
0.831247
0.806386
0.739687
0.832491
0.829005
0.816596
0.830661
0.813137
0.723516
0.77433
0.833948
0.830947
0.739392
0.828228
0.837549
0.822224
0.720463
0.821178
0.73362
0.800457
0.822622
0.832717
0.822422
0.823724
0.832385
0.766503
0.829701
0.825608
0.785493
0.779926
0.798669
0.819924
0.829009
0.804085
0.638215
0.798157
0.776858
0.767385
0.782116
0.753767
0.828703
0.827954
0.811776
0.805133
0.820275
0.82979
0.774761
0.80598
0.837951
0.828943
0.841745
0.805489
0.82156
0.819169
0.82903
0.840914
0.809886
0.821624
0.806097
0.719822
0.828265
0.829276
0.826281
0.813474
0.842482
0.807612
0.805249
0.824047
0.820177
0.861028
0.819862
0.805979
0.830427
0.803583
0.829634
0.772089
0.720116
0.819863
0.717095
0.836639
0.803569
0.75742
0.826876
0.828191
0.827865
0.832863
0.800014
0.710739
0.769569
0.693117
0.828724
0.740332
0.806118
0.811207
0.845035
0.821882
0.631759
0.806666
0.75213
0.845438
0.806128
0.724715
0.821921
0.836494
0.828766
0.657404
0.818053
0.80605
0.811637
0.817568
0.799177
0.785846
0.820835
0.820576
0.66945
0.82885
0.828201
0.784964
0.807698
0.831294
0.791236
0.828819
0.797336
0.740792
0.809333
0.809342
0.626432
0.609953
0.776103
0.8223
0.832054
0.798288
0.831069
0.828944
0.787804
0.809967
0.805409
0.829732
0.838912
0.805042
0.812697
0.818456
0.710018
0.82638
0.747441
0.802921
0.799744
0.787242
0.843439
0.813738
0.801085
0.718885
0.714178
0.813852
0.8119
0.82451
0.808133
0.804895
0.677872
0.828734
0.827485
0.822939
0.831238
0.82753
0.806271
0.800755
0.828793
0.699291
0.823417
0.829914
0.82871
0.828186
0.780349
0.831446
0.803404
0.828791
0.82747
0.763514
0.772409
0.8043
0.80427
0.676541
0.829364
0.818569
0.813391
0.82685
0.807735
0.804997
0.751381
0.732638
0.828726
0.76223
0.777505
0.827121
0.845558
0.82857
0.807638
0.812799
0.829512
0.807613
0.829929
0.796942
0.829894
0.816415
0.827313
0.805326
0.825743
0.804186
0.830492
0.629727
0.802563
0.804031
0.818801
0.821514
0.781307
0.807266
0.829649
0.829471
0.830492
0.782278
0.823235
0.818652
0.774253
0.771226
0.81767
0.81865
0.838697
0.835153
0.828503
0.809983
0.691883
0.792783
0.6677
0.80774
0.809564
0.814016
0.828241
0.87768
0.622094
0.676568
0.845623
0.875741
0.826153
0.710222
0.808324
0.754633
0.819117
0.822135
0.724942
0.68264
0.768451
0.827636
0.674391
0.877232
0.834812
0.811242
0.813232
0.661997
0.768183
0.793366
0.83024
0.810687
0.805591
0.839475
0.829686
0.737939
0.721
0.803448
0.81033
0.827957
0.830363
0.814534
0.83089
0.758047
0.799615
0.803188
0.805104
0.779111
0.830277
0.81371
0.828925
0.830307
0.776184
0.808989
0.806468
0.805752
0.830154
0.826813
0.818633
0.700721
0.79647
0.827348
0.817799
0.825158
0.81149
0.82766
0.811964
0.830947
0.831596
0.697394
0.860872
0.758216
0.83218
0.816253
0.755831
0.831575
0.804341
0.835598
0.613398
0.806535
0.716648
0.830846
0.813698
0.667938
0.808118
0.80784
0.803792
0.808671
0.813901
0.785235
0.830613
0.675043
0.809922
0.810024
0.807746
0.829997
0.778822
0.830793
0.826531
0.803762
0.829465
0.800953
0.804322
0.829629
0.662674
0.78245
0.757185
0.643616
0.835152
0.641589
0.807749
0.830936
0.86221
0.735918
0.768103
0.830143
0.810033
0.805729
0.806145
0.782886
0.826912
0.829541
0.806266
0.828774
0.822261
0.672471
0.828719
0.82858
0.81059
0.828979
0.670772
0.827972
0.832486
0.746728
0.797447
0.828769
0.805076
0.836104
0.837979
0.806944
0.752182
0.661885
0.82825
0.624942
0.804332
0.804042
0.782831
0.831267
0.769569
0.829304
0.81289
0.804159
0.64182
0.828294
0.83713
0.839826
0.823211
0.80524
0.80432
0.82896
0.768203
0.853746
0.844567
0.747554
0.803659
0.679418
0.789572
0.700314
0.827163
0.844603
0.80577
0.701455
0.782853
0.82864
0.83482
0.840051
0.822165
0.734054
0.616994
0.810627
0.828831
0.806296
0.822694
0.814779
0.784437
0.857868
0.828078
0.806419
0.829209
0.80416
0.753435
0.804396
0.818034
0.649015
0.709429
0.807868
0.829713
0.807787
0.624336
0.827905
0.640908
0.829513
0.781704
0.826783
0.828983
0.765279
0.818903
0.803742
0.808362
0.843394
0.845582
0.837796
0.808149
0.82942
0.64547
0.829306
0.862386
0.832156
0.838566
0.806796
0.83196
0.802505
0.84575
0.814856
0.819877
0.725111
0.708922
0.844115
0.828693
0.846433
0.750305
0.80623
0.778722
0.801809
0.815695
0.804414
0.819791
0.828882
0.83368
0.837445
0.839426
0.809777
0.759881
0.816338
0.764188
0.806595
0.831145
0.804208
0.819994
0.77649
0.809558
0.810342
0.853406
0.822787
0.804059
0.811998
0.842908
0.839017
0.805084
0.861943
0.805132
0.831497
0.726937
0.804191
0.805084
0.805408
0.840769
0.6443
0.810666
0.808999
0.702156
0.828861
0.838647
0.828655
0.804063
0.810315
0.807273
0.828945
0.805512
0.725113
0.624477
0.828791
0.81868
0.805419
0.808607
0.807755
0.808079
0.826938
0.80449
0.828765
0.632183
0.827702
0.813956
0.829212
0.848788
0.828649
0.839549
0.830209
0.802958
0.829053
0.703102
0.807944
0.858001
0.829029
0.799523
0.828574
0.667655
0.809741
0.692828
0.729295
0.726039
0.814027
0.828646
0.817377
0.639609
0.71447
0.805115
0.839942
0.76182
0.839234
0.808383
0.812404
0.809564
0.70465
0.772373
0.654381
0.805179
0.831048
0.81026
0.829104
0.692642
0.698957
0.860802
0.806545
0.828523
0.76398
0.828767
0.62316
0.832046
0.704098
0.828619
0.829333
0.803626
0.805547
0.835539
0.804491
0.808194
0.816258
0.665451
0.812834
0.707406
0.804409
0.804688
0.828747
0.820745
0.746143
0.827868
0.764527
0.804491
0.72723
0.811081
0.75614
0.694033
0.834923
0.829464
0.805948
0.752155
0.817656
0.688551
0.825209
0.804409
0.734718
0.836069
0.829077
0.711567
0.715924
0.836023
0.805324
0.75128
0.838893
0.843278
0.844448
0.830799
0.611129
0.765032
0.828374
0.831698
0.683503
0.670383
0.821953
0.829367
0.757606
0.789821
0.830686
0.818577
0.777508
0.828739
0.828772
0.804876
0.76065
0.807032
0.809638
0.825005
0.641437
0.808972
0.832985
0.623178
0.829849
0.85318
0.83115
0.697964
0.830563
0.82804
0.830402
0.804496
0.830893
0.809785
0.811181
0.808226
0.804161
0.828187
0.677653
0.822467
0.815563
0.742837
0.678835
0.795507
0.804834
0.83044
0.764849
0.698071
0.82922
0.79665
0.830624
0.832502
0.828644
0.835485
0.761992
0.687592
0.830609
0.844436
0.831155
0.706762
0.814891
0.746084
0.828239
0.825462
0.831153
0.829994
0.80663
0.828883
0.812645
0.768246
0.828334
0.829164
0.769184
0.799538
0.748483
0.692637
0.759277
0.79487
0.828049
0.829331
0.817302
0.825068
0.804181
0.807172
0.812244
0.705292
0.763791
0.830026
0.805223
0.807864
0.823249
0.680324
0.82865
0.806692
0.849711
0.823306
0.699834
0.801667
0.806505
0.848108
0.741862
0.654266
0.629373
0.663769
0.829317
0.810737
0.660561
0.690707
0.831738
0.829969
0.891351
0.807784
0.836238
0.82931
0.778846
0.827223
0.828673
0.830487
0.827229
0.831165
0.802293
0.826314
0.721574
0.828785
0.805334
0.822291
0.765364
0.829866
0.643312
0.862437
0.806206
0.836043
0.831321
0.812135
0.756967
0.830262
0.826684
0.842631
0.830736
0.827748
0.709574
0.835761
0.829231
0.829015
0.842817
0.83359
0.614863
0.800968
0.808642
0.818961
0.82183
0.806231
0.802693
0.829073
0.781283
0.810999
0.829296
0.867416
0.840305
0.684297
0.807742
0.771686
0.82866
0.778406
0.831048
0.807959
0.810847
0.829617
0.79905
0.816865
0.820765
0.827208
0.795743
0.732983
0.763364
0.747953
0.827699
0.84366
0.844378
0.762988
0.8228
0.764349
0.671188
0.83076
0.802665
0.830978
0.805057
0.700986
0.807599
0.788632
0.748217
0.829456
0.755689
0.81397
0.828533
0.865004
0.815601
0.812969
0.754452
0.829262
0.787015
0.846402
0.886262
0.802522
0.626844
0.804916
0.669185
0.784006
0.68294
0.804296
0.664881
0.828993
0.857677
0.810316
0.8296
0.83128
0.8105
0.804118
0.726658
0.830926
0.829164
0.807374
0.819531
0.800026
0.805158
0.81813
0.699205
0.829656
0.807504
0.853091
0.822562
0.810471
0.806477
0.827398
0.827571
0.821565
0.804949
0.799233
0.830127
0.804825
0.80804
0.828634
0.786602
0.625485
0.829129
0.830571
0.810257
0.731508
0.808603
0.819369
0.804497
0.745914
0.88122
0.830991
0.82856
0.830761
0.854301
0.789524
0.830246
0.79924
0.828156
0.833169
0.689991
0.830166
0.747257
0.823919
0.759687
0.806449
0.772219
0.807728
0.685455
0.826173
0.742515
0.657628
0.828456
0.688609
0.778436
0.829782
0.829688
0.78887
0.829079
0.759933
0.668504
0.835792
0.677671
0.829714
0.783125
0.803559
0.812142
0.828694
0.67835
0.807572
0.782864
0.828443
0.826744
0.836801
0.81057
0.719085
0.768505
0.705586
0.804617
0.810679
0.830997
0.827968
0.816565
0.830588
0.828285
0.696487
0.748246
0.678588
0.743132
0.82873
0.814506
0.841795
0.81387
0.828859
0.698272
0.88229
0.829058
0.836201
0.646882
0.833599
0.82999
0.848237
0.851466
0.833596
0.836608
0.831883
0.623629
0.810449
0.826851
0.717511
0.82926
0.808734
0.830216
0.812216
0.828635
0.827776
0.784875
0.725011
0.803405
0.802835
0.64788
0.828656
0.864307
0.828833
0.727914
0.829107
0.828547
0.831443
0.843045
0.678894
0.649971
0.807861
0.846857
0.809708
0.80844
0.828664
0.806923
0.817171
0.826471
0.802733
0.806792
0.808137
0.829243
0.808926
0.811754
0.805138
0.841531
0.839683
0.859135
0.828994
0.821421
0.828558
0.828949
0.830688
0.827634
0.828122
0.840231
0.812939
0.827582
0.699402
0.839581
0.699785
0.872301
0.805637
0.839608
0.806006
0.795102
0.798444
0.750691
0.827765
0.816767
0.819439
0.828718
0.788124
0.823159
0.633556
0.810678
0.828926
0.828301
0.802739
0.829785
0.644393
0.793573
0.614921
0.831035
0.80161
0.785733
0.808232
0.828234
0.829413
0.829237
0.745879
0.822656
0.830338
0.817022
0.805625
0.807655
0.757472
0.784893
0.815481
0.806588
0.747
0.650775
0.636729
0.847728
0.809656
0.789872
0.791886
0.829242
0.805117
0.806093
0.830494
0.790529
0.767638
0.829465
0.813822
0.817409
0.843236
0.810799
0.83066
0.81243
0.647288
0.805143
0.83042
0.786262
0.830738
0.828696
0.835718
0.698062
0.713522
0.653421
0.83498
0.828219
0.762308
0.817572
0.704399
0.821764
0.81641
0.830953
0.80791
0.816554
0.627512
0.722527
0.81752
0.828815
0.801389
0.814609
0.838178
0.805279
0.806075
0.711165
0.819613
0.83102
0.807511
0.829606
0.804111
0.672665
0.822304
0.829578
0.628936
0.746756
0.80655
0.834744
0.744051
0.807837
0.8013
0.830239
0.768402
0.708713
0.829014
0.802352
0.804037
0.779418
0.646177
0.83068
0.701297
0.769816
0.738894
0.806111
0.801925
0.830236
0.711191
0.781774
0.807996
0.829003
0.63321
0.805701
0.830593
0.819463
0.651637
0.809964
0.793591
0.751097
0.750223
0.805312
0.831177
0.828889
0.822626
0.748098
0.754951
0.673493
0.841259
0.848404
0.828831
0.797173
0.868989
0.744867
0.828794
0.781857
0.799559
0.802696
0.830984
0.807126
0.830013
0.795352
0.774371
0.83159
0.801457
0.849266
0.736503
0.79907
0.809634
0.739572
0.808041
0.828583
0.626292
0.806013
0.805918
0.804094
0.832548
0.780317
0.807088
0.741633
0.83028
0.813252
0.744745
0.830247
0.828785
0.838223
0.811208
0.797321
0.802377
0.80992
0.733075
0.829454
0.80764
0.717973
0.811388
0.791322
0.839316
0.828854
0.830423
0.847121
0.854794
0.74718
0.828731
0.805326
0.795709
0.649933
0.826651
0.817218
0.82996
0.79034
0.858506
0.839805
0.792332
0.849877
0.789365
0.803731
0.785692
0.829914
0.740982
0.668086
0.85038
0.707337
0.800489
0.845536
0.829361
0.709677
0.81375
0.765543
0.806782
0.804014
0.795401
0.807416
0.807437
0.807588
0.806641
0.794812
0.829843
0.792573
0.829525
0.813613
0.750263
0.794333
0.820016
0.829413
0.810196
0.618821
0.830481
0.826313
0.828691
0.75053
0.811087
0.803169
0.807096
0.829351
0.755968
0.829354
0.812816
0.814412
0.775026
0.829372
0.817449
0.811458
0.783524
0.814307
0.827277
0.812287
0.825205
0.820176
0.809664
0.833661
0.808038
0.799189
0.820604
0.829914
0.82301
0.793858
0.724278
0.828545
0.817707
0.808095
0.76455
0.796959
0.679883
0.804097
0.622463
0.804387
0.828824
0.784463
0.842678
0.680798
0.824751
0.753866
0.829063
0.613233
0.809611
0.834412
0.828203
0.830934
0.76004
0.848517
0.654961
0.831696
0.71278
0.806092
0.675849
0.695673
0.828636
0.830683
0.762848
0.808381
0.826275
0.645433
0.830286
0.779136
0.842244
0.830762
0.820359
0.828575
0.8066
0.843811
0.816546
0.807788
0.669215
0.804377
0.850462
0.805097
0.814684
0.781873
0.811321
0.829834
0.830107
0.801548
0.749435
0.824914
0.82905
0.639854
0.806853
0.691888
0.829249
0.67258
0.830599
0.78453
0.715093
0.741301
0.791322
0.742493
0.849406
0.818782
0.806632
0.806562
0.724191
0.806357
0.79992
0.803709
0.824436
0.813875
0.738565
0.73647
0.805688
0.785752
0.620515
0.82904
0.728162
0.801713
0.702746
0.833528
0.826391
0.835423
0.819081
0.84276
0.815246
0.686502
0.835205
0.815001
0.807172
0.829158
0.830595
0.828082
0.819889
0.83502
0.82959
0.674065
0.807659
0.803802
0.828977
0.712597
0.806286
0.829852
0.769918
0.711376
0.817253
0.740036
0.749585
0.816252
0.829045
0.694925
0.848202
0.782504
0.808687
0.800876
0.828534
0.851288
0.806984
0.671134
0.82892
0.691183
0.674325
0.786196
0.778492
0.782697
0.830008
0.804456
0.826579
0.831338
0.628796
0.795699
0.838436
0.830211
0.644856
0.759475
0.707362
0.829727
0.826853
0.7111
0.806416
0.82885
0.805062
0.84079
0.68481
0.848015
0.749464
0.828458
0.829315
0.732458
0.828022
0.725645
0.801567
0.720469
0.818165
0.798661
0.68101
0.743764
0.749769
0.840404
0.826606
0.831321
0.833201
0.804069
0.814607
0.808743
0.827232
0.808217
0.740214
0.809969
0.640756
0.790742
0.811268
0.807549
0.829988
0.834796
0.804038
0.752638
0.692943
0.706374
0.803676
0.82259
0.75768
0.701
0.76869
0.829333
0.805913
0.773694
0.808763
0.830424
0.766413
0.620432
0.711483
0.802606
0.830029
0.86887
0.821436
0.830581
0.857088
0.804803
0.807259
0.828834
0.829435
0.818435
0.746026
0.813444
0.734885
0.867218
0.793701
0.828782
0.700928
0.801439
0.613291
0.626314
0.701983
0.822042
0.805042
0.823019
0.778584
0.804917
0.643083
0.797061
0.80941
0.7615
0.827827
0.808659
0.829157
0.849346
0.682772
0.824327
0.804616
0.827576
0.82153
0.828873
0.829601
0.772816
0.801873
0.805425
0.805431
0.801701
0.825378
0.851861
0.830839
0.750887
0.807756
0.70772
0.828723
0.830618
0.648381
0.782209
0.782206
0.64904
0.798541
0.806492
0.881446
0.80444
0.826438
0.775167
0.801351
0.801996
0.815139
0.792644
0.628598
0.704574
0.706803
0.791852
0.826621
0.805114
0.826765
0.798324
0.814755
0.828883
0.804034
0.857844
0.751278
0.830199
0.791552
0.641947
0.686034
0.82891
0.805378
0.809987
0.625145
0.801923
0.805731
0.684684
0.828523
0.803937
0.814539
0.828393
0.690739
0.733679
0.756885
0.828664
0.838605
0.686579
0.797976
0.719204
0.828493
0.836013
0.790691
0.787966
0.664226
0.827167
0.804117
0.740161
0.859026
0.80931
0.760086
0.755807
0.780706
0.829489
0.616536
0.803892
0.751718
0.804125
0.828482
0.723738
0.805492
0.824062
0.733698
0.818525
0.728909
0.829406
0.803678
0.768597
0.743623
0.821331
0.804864
0.828786
0.695228
0.808712
0.818678
0.83012
0.722831
0.82991
0.814821
0.839009
0.697701
0.829065
0.756636
0.82989
0.812006
0.84956
0.805715
0.83107
0.765466
0.828957
0.846706
0.837949
0.825994
0.852144
0.762256
0.855502
0.833986
0.809458
0.832783
0.809761
0.675282
0.791306
0.828539
0.766886
0.736444
0.805027
0.810031
0.720668
0.803418
0.618008
0.8547
0.746885
0.729314
0.828466
0.787336
0.816732
0.805939
0.816519
0.807019
0.828286
0.84219
0.761495
0.785148
0.651568
0.828921
0.787687
0.819168
0.80837
0.623722
0.803796
0.804121
0.822704
0.802587
0.829631
0.812364
0.705098
0.83378
0.855482
0.710461
0.762716
0.829363
0.808365
0.753221
0.820389
0.774382
0.80375
0.804617
0.810941
0.84522
0.701733
0.732224
0.804235
0.731564
0.783932
0.83707
0.618664
0.726327
0.803476
0.806857
0.804216
0.754005
0.833106
0.820836
0.805398
0.813133
0.828794
0.715774
0.71349
0.81428
0.828765
0.8029
0.87949
0.806977
0.82952
0.803199
0.823512
0.82007
0.812703
0.709519
0.819756
0.829682
0.806382
0.809425
0.804129
0.655482
0.823366
0.826941
0.829365
0.870505
0.828236
0.807389
0.663507
0.841482
0.742105
0.836339
0.811746
0.818699
0.832016
0.827847
0.828881
0.763669
0.620277
0.671114
0.828949
0.824501
0.653675
0.803278
0.8283
0.839047
0.651992
0.814197
0.828018
0.806853
0.813645
0.671222
0.828498
0.813307
0.624027
0.829419
0.828999
0.645349
0.81539
0.828241
0.785018
0.811887
0.819457
0.828632
0.802498
0.835644
0.625027
0.836367
0.821005
0.806984
0.762958
0.796546
0.829182
0.814206
0.809206
0.827361
0.804344
0.725557
0.820553
0.687141
0.831152
0.690238
0.767555
0.801941
0.738412
0.804733
0.62577
0.855778
0.829853
0.827855
0.805061
0.805064
0.804044
0.819312
0.828834
0.696458
0.752029
0.755926
0.828907
0.757115
0.697258
0.826882
0.795262
0.8366
0.826042
0.815429
0.750333
0.665782
0.804988
0.802774
0.666297
0.828577
0.828807
0.750594
0.810014
0.78115
0.686212
0.823348
0.819563
0.80055
0.65163
0.807464
0.793307
0.836452
0.82885
0.829477
0.816959
0.828862
0.717119
0.809697
0.829301
0.738238
0.658192
0.764791
0.80383
0.757284
0.828817
0.804094
0.810917
0.792954
0.87161
0.804198
0.806426
0.835086
0.864654
0.807485
0.827093
0.807451
0.829176
0.797993
0.762626
0.817688
0.806868
0.828749
0.805403
0.803699
0.850099
0.779309
0.828931
0.784944
0.808297
0.671489
0.637927
0.806303
0.808912
0.82786
0.80357
0.809346
0.831177
0.784659
0.809943
0.830759
0.793381
0.827089
0.78582
0.653501
0.809887
0.771852
0.788474
0.769827
0.77468
0.801476
0.796768
0.827897
0.796618
0.814116
0.804243
0.780342
0.82921
0.629873
0.757664
0.826072
0.827594
0.828436
0.814608
0.827186
0.819204
0.8108
0.832447
0.81421
0.793232
0.82911
0.806778
0.803275
0.803038
0.809387
0.637139
0.805789
0.800509
0.655797
0.821562
0.812158
0.809708
0.815562
0.732138
0.763591
0.83252
0.784338
0.816986
0.82933
0.726548
0.808007
0.834374
0.744539
0.806408
0.824873
0.788045
0.816235
0.843109
0.808488
0.83008
0.784181
0.808687
0.803975
0.828125
0.807989
0.802183
0.652962
0.829063
0.800565
0.810487
0.83587
0.744406
0.838165
0.828045
0.653447
0.812044
0.8072
0.808497
0.827662
0.832817
0.834418
0.808674
0.818617
0.828773
0.818144
0.805469
0.827432
0.810095
0.765898
0.753308
0.793497
0.828726
0.825599
0.787594
0.771162
0.819202
0.830335
0.81511
0.829343
0.743056
0.646448
0.757762
0.830211
0.812726
0.829337
0.850153
0.804367
0.754675
0.710917
0.806142
0.810512
0.735471
0.829112
0.729538
0.844242
0.748407
0.826724
0.896953
0.820571
0.805622
0.791061
0.815787
0.730427
0.819039
0.822127
0.799801
0.818335
0.78821
0.805408
0.814588
0.7956
0.805121
0.85783
0.787752
0.804672
0.672811
0.80757
0.714196
0.807012
0.800601
0.796844
0.795188
0.738646
0.815014
0.800177
0.851588
0.828803
0.829257
0.829406
0.897148
0.767805
0.807651
0.762101
0.804449
0.803837
0.808692
0.747128
0.805812
0.811644
0.713063
0.821267
0.764677
0.690468
0.85334
0.854024
0.769192
0.816729
0.802345
0.786116
0.762859
0.788242
0.794989
0.752096
0.806244
0.809031
0.757495
0.82913
0.808055
0.66507
0.830682
0.827736
0.82475
0.806464
0.652947
0.755958
0.811338
0.86447
0.670406
0.751838
0.814998
0.820824
0.807567
0.719728
0.755271
0.813625
0.828811
0.828911
0.845184
0.756418
0.774489
0.879084
0.811376
0.827928
0.802949
0.718944
0.706811
0.647511
0.7068
0.692119
0.782873
0.813688
0.807847
0.827792
0.818129
0.816265
0.865295
0.757696
0.834236
0.828769
0.829701
0.829702
0.82875
0.828903
0.827247
0.831258
0.727465
0.813055