# vtk DataFile Version 1.0
unstructured grid
ascii
DATASET UNSTRUCTURED_GRID
points 14760 float
-1 0 0
-1 1 0
2 0 0
2 1 0
0 0 0
1 0 0
-1 1 0.1
-1 0 0.1
0 0 0.1
1 0 0.1
2 0 0.1
2 1 0.1
-0.99 0 0
-0.98 0 0
-0.97 0 0
-0.96 0 0
-0.95 0 0
-0.94 0 0
-0.93 0 0
-0.92 0 0
-0.91 0 0
-0.9 0 0
-0.89 0 0
-0.88 0 0
-0.87 0 0
-0.86 0 0
-0.85 0 0
-0.84 0 0
-0.83 0 0
-0.82 0 0
-0.81 0 0
-0.8 0 0
-0.79 0 0
-0.78 0 0
-0.77 0 0
-0.76 0 0
-0.75 0 0
-0.74 0 0
-0.73 0 0
-0.72 0 0
-0.71 0 0
-0.7 0 0
-0.69 0 0
-0.68 0 0
-0.67 0 0
-0.66 0 0
-0.65 0 0
-0.64 0 0
-0.63 0 0
-0.62 0 0
-0.61 0 0
-0.6 0 0
-0.59 0 0
-0.58 0 0
-0.57 0 0
-0.56 0 0
-0.55 0 0
-0.54 0 0
-0.53 0 0
-0.52 0 0
-0.51 0 0
-0.5 0 0
-0.49 0 0
-0.48 0 0
-0.47 0 0
-0.46 0 0
-0.45 0 0
-0.44 0 0
-0.43 0 0
-0.42 0 0
-0.41 0 0
-0.4 0 0
-0.39 0 0
-0.38 0 0
-0.37 0 0
-0.36 0 0
-0.35 0 0
-0.34 0 0
-0.33 0 0
-0.32 0 0
-0.31 0 0
-0.3 0 0
-0.29 0 0
-0.28 0 0
-0.27 0 0
-0.26 0 0
-0.25 0 0
-0.24 0 0
-0.23 0 0
-0.22 0 0
-0.21 0 0
-0.2 0 0
-0.19 0 0
-0.18 0 0
-0.17 0 0
-0.16 0 0
-0.15 0 0
-0.14 0 0
-0.13 0 0
-0.12 0 0
-0.11 0 0
-0.1 0 0
-0.09 0 0
-0.08 0 0
-0.07 0 0
-0.06 0 0
-0.05 0 0
-0.04 0 0
-0.03 0 0
-0.02 0 0
-0.01 0 0
1.01 0 0
1.02 0 0
1.03 0 0
1.04 0 0
1.05 0 0
1.06 0 0
1.07 0 0
1.08 0 0
1.09 0 0
1.1 0 0
1.11 0 0
1.12 0 0
1.13 0 0
1.14 0 0
1.15 0 0
1.16 0 0
1.17 0 0
1.18 0 0
1.19 0 0
1.2 0 0
1.21 0 0
1.22 0 0
1.23 0 0
1.24 0 0
1.25 0 0
1.26 0 0
1.27 0 0
1.28 0 0
1.29 0 0
1.3 0 0
1.31 0 0
1.32 0 0
1.33 0 0
1.34 0 0
1.35 0 0
1.36 0 0
1.37 0 0
1.38 0 0
1.39 0 0
1.4 0 0
1.41 0 0
1.42 0 0
1.43 0 0
1.44 0 0
1.45 0 0
1.46 0 0
1.47 0 0
1.48 0 0
1.49 0 0
1.5 0 0
1.51 0 0
1.52 0 0
1.53 0 0
1.54 0 0
1.55 0 0
1.56 0 0
1.57 0 0
1.58 0 0
1.59 0 0
1.6 0 0
1.61 0 0
1.62 0 0
1.63 0 0
1.64 0 0
1.65 0 0
1.66 0 0
1.67 0 0
1.68 0 0
1.69 0 0
1.7 0 0
1.71 0 0
1.72 0 0
1.73 0 0
1.74 0 0
1.75 0 0
1.76 0 0
1.77 0 0
1.78 0 0
1.79 0 0
1.8 0 0
1.81 0 0
1.82 0 0
1.83 0 0
1.84 0 0
1.85 0 0
1.86 0 0
1.87 0 0
1.88 0 0
1.89 0 0
1.9 0 0
1.91 0 0
1.92 0 0
1.93 0 0
1.94 0 0
1.95 0 0
1.96 0 0
1.97 0 0
1.98 0 0
1.99 0 0
2 0.0100088 0
2 0.0204183 0
2 0.0312446 0
2 0.0425043 0
2 0.0542147 0
2 0.066394 0
2 0.079061 0
2 0.092235 0
2 0.105936 0
2 0.120186 0
2 0.135007 0
2 0.150421 0
2 0.166452 0
2 0.183124 0
2 0.200465 0
2 0.218499 0
2 0.237256 0
2 0.256763 0
2 0.277051 0
2 0.298152 0
2 0.320097 0
2 0.342921 0
2 0.366659 0
2 0.391347 0
2 0.417024 0
2 0.443728 0
2 0.471502 0
2 0.500387 0
2 0.530429 0
2 0.561674 0
2 0.594169 0
2 0.627966 0
2 0.663115 0
2 0.699672 0
2 0.737692 0
2 0.777235 0
2 0.818361 0
2 0.861133 0
2 0.905617 0
2 0.951882 0
1.95 1 0
1.9 1 0
1.85 1 0
1.8 1 0
1.75 1 0
1.7 1 0
1.65 1 0
1.6 1 0
1.55 1 0
1.5 1 0
1.45 1 0
1.4 1 0
1.35 1 0
1.3 1 0
1.25 1 0
1.2 1 0
1.15 1 0
1.1 1 0
1.05 1 0
1 1 0
0.95 1 0
0.9 1 0
0.85 1 0
0.8 1 0
0.75 1 0
0.7 1 0
0.65 1 0
0.6 1 0
0.55 1 0
0.5 1 0
0.45 1 0
0.4 1 0
0.35 1 0
0.3 1 0
0.25 1 0
0.2 1 0
0.15 1 0
0.1 1 0
0.05 1 0
3.69793e-12 1 0
-0.05 1 0
-0.1 1 0
-0.15 1 0
-0.2 1 0
-0.25 1 0
-0.3 1 0
-0.35 1 0
-0.4 1 0
-0.45 1 0
-0.5 1 0
-0.55 1 0
-0.6 1 0
-0.65 1 0
-0.7 1 0
-0.75 1 0
-0.8 1 0
-0.85 1 0
-0.9 1 0
-0.95 1 0
-1 0.951882 0
-1 0.905617 0
-1 0.861133 0
-1 0.818361 0
-1 0.777235 0
-1 0.737692 0
-1 0.699672 0
-1 0.663115 0
-1 0.627966 0
-1 0.594169 0
-1 0.561674 0
-1 0.530429 0
-1 0.500387 0
-1 0.471502 0
-1 0.443728 0
-1 0.417024 0
-1 0.391347 0
-1 0.366659 0
-1 0.342921 0
-1 0.320097 0
-1 0.298152 0
-1 0.277051 0
-1 0.256763 0
-1 0.237256 0
-1 0.218499 0
-1 0.200465 0
-1 0.183124 0
-1 0.166452 0
-1 0.150421 0
-1 0.135007 0
-1 0.120186 0
-1 0.105936 0
-1 0.092235 0
-1 0.079061 0
-1 0.066394 0
-1 0.0542147 0
-1 0.0425043 0
-1 0.0312446 0
-1 0.0204183 0
-1 0.0100088 0
0.00921362 0.00379763 0
0.0184561 0.00752451 0
0.0277268 0.0111804 0
0.0370253 0.0147652 0
0.0463511 0.0182786 0
0.0557034 0.0217203 0
0.0650819 0.0250903 0
0.074486 0.0283883 0
0.083915 0.0316141 0
0.0933685 0.0347675 0
0.102846 0.0378484 0
0.112347 0.0408565 0
0.12187 0.0437917 0
0.131416 0.0466538 0
0.140983 0.0494427 0
0.150572 0.0521581 0
0.160181 0.0547999 0
0.16981 0.0573681 0
0.179458 0.0598623 0
0.189125 0.0622825 0
0.198811 0.0646285 0
0.208514 0.0669001 0
0.218234 0.0690974 0
0.227971 0.07122 0
0.237724 0.073268 0
0.247493 0.0752411 0
0.257276 0.0771393 0
0.267073 0.0789625 0
0.276884 0.0807105 0
0.286708 0.0823832 0
0.296545 0.0839806 0
0.306394 0.0855025 0
0.316254 0.0869488 0
0.326125 0.0883196 0
0.336006 0.0896146 0
0.345896 0.0908339 0
0.355796 0.0919773 0
0.365704 0.0930447 0
0.375621 0.0940362 0
0.385544 0.0949517 0
0.395474 0.095791 0
0.40541 0.0965542 0
0.415352 0.0972412 0
0.425299 0.097852 0
0.43525 0.0983865 0
0.445205 0.0988447 0
0.455164 0.0992266 0
0.465125 0.0995321 0
0.475088 0.0997613 0
0.485052 0.0999141 0
0.495017 0.0999904 0
0.504983 0.0999904 0
0.514948 0.0999141 0
0.524912 0.0997613 0
0.534875 0.0995321 0
0.544836 0.0992266 0
0.554795 0.0988447 0
0.56475 0.0983865 0
0.574701 0.097852 0
0.584648 0.0972412 0
0.59459 0.0965542 0
0.604526 0.095791 0
0.614456 0.0949517 0
0.624379 0.0940362 0
0.634296 0.0930447 0
0.644204 0.0919773 0
0.654104 0.0908339 0
0.663994 0.0896146 0
0.673875 0.0883196 0
0.683746 0.0869488 0
0.693606 0.0855025 0
0.703455 0.0839806 0
0.713292 0.0823832 0
0.723116 0.0807105 0
0.732927 0.0789625 0
0.742724 0.0771393 0
0.752508 0.0752411 0
0.762276 0.073268 0
0.772029 0.07122 0
0.781766 0.0690974 0
0.791486 0.0669001 0
0.801189 0.0646285 0
0.810875 0.0622825 0
0.820542 0.0598623 0
0.83019 0.0573681 0
0.839819 0.0547999 0
0.849428 0.0521581 0
0.859017 0.0494427 0
0.868584 0.0466538 0
0.87813 0.0437917 0
0.887653 0.0408565 0
0.897154 0.0378484 0
0.906631 0.0347675 0
0.916085 0.0316141 0
0.925514 0.0283883 0
0.934918 0.0250903 0
0.944297 0.0217203 0
0.953649 0.0182786 0
0.962975 0.0147652 0
0.972273 0.0111804 0
0.981544 0.00752451 0
0.990786 0.00379763 0
-1 0.951882 0.1
-1 0.905617 0.1
-1 0.861133 0.1
-1 0.818361 0.1
-1 0.777235 0.1
-1 0.737692 0.1
-1 0.699672 0.1
-1 0.663115 0.1
-1 0.627966 0.1
-1 0.594169 0.1
-1 0.561674 0.1
-1 0.530429 0.1
-1 0.500387 0.1
-1 0.471502 0.1
-1 0.443728 0.1
-1 0.417024 0.1
-1 0.391347 0.1
-1 0.366659 0.1
-1 0.342921 0.1
-1 0.320097 0.1
-1 0.298152 0.1
-1 0.277051 0.1
-1 0.256763 0.1
-1 0.237256 0.1
-1 0.218499 0.1
-1 0.200465 0.1
-1 0.183124 0.1
-1 0.166452 0.1
-1 0.150421 0.1
-1 0.135007 0.1
-1 0.120186 0.1
-1 0.105936 0.1
-1 0.092235 0.1
-1 0.079061 0.1
-1 0.066394 0.1
-1 0.0542147 0.1
-1 0.0425043 0.1
-1 0.0312446 0.1
-1 0.0204183 0.1
-1 0.0100088 0.1
-0.99 0 0.1
-0.98 0 0.1
-0.97 0 0.1
-0.96 0 0.1
-0.95 0 0.1
-0.94 0 0.1
-0.93 0 0.1
-0.92 0 0.1
-0.91 0 0.1
-0.9 0 0.1
-0.89 0 0.1
-0.88 0 0.1
-0.87 0 0.1
-0.86 0 0.1
-0.85 0 0.1
-0.84 0 0.1
-0.83 0 0.1
-0.82 0 0.1
-0.81 0 0.1
-0.8 0 0.1
-0.79 0 0.1
-0.78 0 0.1
-0.77 0 0.1
-0.76 0 0.1
-0.75 0 0.1
-0.74 0 0.1
-0.73 0 0.1
-0.72 0 0.1
-0.71 0 0.1
-0.7 0 0.1
-0.69 0 0.1
-0.68 0 0.1
-0.67 0 0.1
-0.66 0 0.1
-0.65 0 0.1
-0.64 0 0.1
-0.63 0 0.1
-0.62 0 0.1
-0.61 0 0.1
-0.6 0 0.1
-0.59 0 0.1
-0.58 0 0.1
-0.57 0 0.1
-0.56 0 0.1
-0.55 0 0.1
-0.54 0 0.1
-0.53 0 0.1
-0.52 0 0.1
-0.51 0 0.1
-0.5 0 0.1
-0.49 0 0.1
-0.48 0 0.1
-0.47 0 0.1
-0.46 0 0.1
-0.45 0 0.1
-0.44 0 0.1
-0.43 0 0.1
-0.42 0 0.1
-0.41 0 0.1
-0.4 0 0.1
-0.39 0 0.1
-0.38 0 0.1
-0.37 0 0.1
-0.36 0 0.1
-0.35 0 0.1
-0.34 0 0.1
-0.33 0 0.1
-0.32 0 0.1
-0.31 0 0.1
-0.3 0 0.1
-0.29 0 0.1
-0.28 0 0.1
-0.27 0 0.1
-0.26 0 0.1
-0.25 0 0.1
-0.24 0 0.1
-0.23 0 0.1
-0.22 0 0.1
-0.21 0 0.1
-0.2 0 0.1
-0.19 0 0.1
-0.18 0 0.1
-0.17 0 0.1
-0.16 0 0.1
-0.15 0 0.1
-0.14 0 0.1
-0.13 0 0.1
-0.12 0 0.1
-0.11 0 0.1
-0.1 0 0.1
-0.09 0 0.1
-0.08 0 0.1
-0.07 0 0.1
-0.06 0 0.1
-0.05 0 0.1
-0.04 0 0.1
-0.03 0 0.1
-0.02 0 0.1
-0.01 0 0.1
0.00921362 0.00379763 0.1
0.0184561 0.00752451 0.1
0.0277268 0.0111804 0.1
0.0370253 0.0147652 0.1
0.0463511 0.0182786 0.1
0.0557034 0.0217203 0.1
0.0650819 0.0250903 0.1
0.074486 0.0283883 0.1
0.083915 0.0316141 0.1
0.0933685 0.0347675 0.1
0.102846 0.0378484 0.1
0.112347 0.0408565 0.1
0.12187 0.0437917 0.1
0.131416 0.0466538 0.1
0.140983 0.0494427 0.1
0.150572 0.0521581 0.1
0.160181 0.0547999 0.1
0.16981 0.0573681 0.1
0.179458 0.0598623 0.1
0.189125 0.0622825 0.1
0.198811 0.0646285 0.1
0.208514 0.0669001 0.1
0.218234 0.0690974 0.1
0.227971 0.07122 0.1
0.237724 0.073268 0.1
0.247493 0.0752411 0.1
0.257276 0.0771393 0.1
0.267073 0.0789625 0.1
0.276884 0.0807105 0.1
0.286708 0.0823832 0.1
0.296545 0.0839806 0.1
0.306394 0.0855025 0.1
0.316254 0.0869488 0.1
0.326125 0.0883196 0.1
0.336006 0.0896146 0.1
0.345896 0.0908339 0.1
0.355796 0.0919773 0.1
0.365704 0.0930447 0.1
0.375621 0.0940362 0.1
0.385544 0.0949517 0.1
0.395474 0.095791 0.1
0.40541 0.0965542 0.1
0.415352 0.0972412 0.1
0.425299 0.097852 0.1
0.43525 0.0983865 0.1
0.445205 0.0988447 0.1
0.455164 0.0992266 0.1
0.465125 0.0995321 0.1
0.475088 0.0997613 0.1
0.485052 0.0999141 0.1
0.495017 0.0999904 0.1
0.504983 0.0999904 0.1
0.514948 0.0999141 0.1
0.524912 0.0997613 0.1
0.534875 0.0995321 0.1
0.544836 0.0992266 0.1
0.554795 0.0988447 0.1
0.56475 0.0983865 0.1
0.574701 0.097852 0.1
0.584648 0.0972412 0.1
0.59459 0.0965542 0.1
0.604526 0.095791 0.1
0.614456 0.0949517 0.1
0.624379 0.0940362 0.1
0.634296 0.0930447 0.1
0.644204 0.0919773 0.1
0.654104 0.0908339 0.1
0.663994 0.0896146 0.1
0.673875 0.0883196 0.1
0.683746 0.0869488 0.1
0.693606 0.0855025 0.1
0.703455 0.0839806 0.1
0.713292 0.0823832 0.1
0.723116 0.0807105 0.1
0.732927 0.0789625 0.1
0.742724 0.0771393 0.1
0.752508 0.0752411 0.1
0.762276 0.073268 0.1
0.772029 0.07122 0.1
0.781766 0.0690974 0.1
0.791486 0.0669001 0.1
0.801189 0.0646285 0.1
0.810875 0.0622825 0.1
0.820542 0.0598623 0.1
0.83019 0.0573681 0.1
0.839819 0.0547999 0.1
0.849428 0.0521581 0.1
0.859017 0.0494427 0.1
0.868584 0.0466538 0.1
0.87813 0.0437917 0.1
0.887653 0.0408565 0.1
0.897154 0.0378484 0.1
0.906631 0.0347675 0.1
0.916085 0.0316141 0.1
0.925514 0.0283883 0.1
0.934918 0.0250903 0.1
0.944297 0.0217203 0.1
0.953649 0.0182786 0.1
0.962975 0.0147652 0.1
0.972273 0.0111804 0.1
0.981544 0.00752451 0.1
0.990786 0.00379763 0.1
1.01 0 0.1
1.02 0 0.1
1.03 0 0.1
[...]
CELL_DATA 14313
SCALARS rho float
LOOKUP_TABLE default
0.784453
0.826201
0.807279
0.551763
0.771347
0.817126
0.817192
0.817168
0.812138
0.816731
0.817348
0.800111
0.800104
0.560918
0.81733
0.834369
0.810301
0.808958
0.814332
0.806754
0.815989
0.815369
0.817168
0.771119
0.816656
0.816235
0.746183
0.70264
0.825673
0.827
0.816953
0.795865
0.803135
0.816629
0.80561
0.814875
0.687882
0.81042
0.81624
0.803628
0.756646
0.815622
0.555746
0.709051
0.821033
0.8374
0.815331
0.780059
0.807205
0.855153
0.683642
0.659645
0.612427
0.814791
0.822723
0.785093
0.821019
0.816182
0.811908
0.816889
0.817175
0.821776
0.795841
0.840809
0.815582
0.817541
0.857038
0.786265
0.842657
0.817323
0.799579
0.833949
0.573908
0.839293
0.735993
0.810517
0.827632
0.750785
0.701482
0.816467
0.600438
0.827348
0.834848
0.804028
0.809126
0.822537
0.817097
0.805382
0.828444
0.808283
0.782559
0.566945
0.808752
0.801143
0.735979
0.804422
0.818532
0.813796
0.804311
0.581843
0.810099
0.81432
0.817182
0.816488
0.752619
0.810598
0.804042
0.704432
0.836704
0.814239
0.815067
0.827688
0.816001
0.82257
0.804834
0.830004
0.82287
0.838337
0.781494
0.801753
0.816183
0.813898
0.860614
0.730754
0.846897
0.7587
0.792909
0.805389
0.818568
0.84643
0.813955
0.816963
0.861878
0.817057
0.826229
0.785055
0.810646
0.793999
0.821073
0.820824
0.817192
0.819969
0.80358
0.8039
0.798178
0.841194
0.806806
0.76437
0.798238
0.820844
0.800607
0.80401
0.817171
0.715541
0.82396
0.804329
0.7274
0.824223
0.816758
0.813226
0.821786
0.810004
0.679668
0.761579
0.826083
0.827336
0.721261
0.816969
0.830642
0.818385
0.696229
0.817483
0.718157
0.791337
0.812732
0.829143
0.812125
0.8177
0.824085
0.748624
0.816449
0.814021
0.776679
0.772385
0.792396
0.81483
0.817329
0.798616
0.518324
0.790158
0.762718
0.749713
0.772577
0.72648
0.81686
0.81852
0.808732
0.803914
0.810079
0.820385
0.763958
0.804152
0.831098
0.818747
0.835739
0.803842
0.817835
0.815464
0.816729
0.836316
0.806661
0.814064
0.798692
0.705791
0.81799
0.824701
0.814261
0.809895
0.83672
0.804996
0.80374
0.820607
0.809988
0.856924
0.812431
0.804206
0.821376
0.803062
0.817167
0.761132
0.669593
0.81644
0.702525
0.829555
0.803023
0.73127
0.816119
0.817949
0.818461
0.829286
0.79347
0.701617
0.753478
0.621062
0.818808
0.728094
0.802868
0.808264
0.83974
0.818044
0.586939
0.804784
0.734888
0.839576
0.803717
0.701923
0.814283
0.829651
0.818518
0.575509
0.814447
0.803659
0.802449
0.809223
0.79128
0.777054
0.817017
0.816808
0.559298
0.818565
0.817776
0.775103
0.803341
0.817361
0.782923
0.820456
0.786972
0.717116
0.804316
0.806676
0.579883
0.556876
0.761617
0.811985
0.823647
0.791988
0.817041
0.818728
0.778719
0.807206
0.804054
0.820291
0.832081
0.796411
0.809323
0.814602
0.654353
0.820931
0.716059
0.800657
0.794764
0.780132
0.837782
0.810555
0.799823
0.686594
0.679163
0.806419
0.808432
0.821072
0.805115
0.80192
0.658528
0.818889
0.824031
0.819492
0.817364
0.816956
0.803007
0.793578
0.818233
0.641217
0.812322
0.817149
0.818384
0.816937
0.769292
0.824275
0.802691
0.818259
0.817073
0.754877
0.757739
0.803637
0.803692
0.68107
0.81716
0.814786
0.809834
0.816014
0.80519
0.801874
0.734211
0.717166
0.818367
0.752026
0.763294
0.822423
0.83972
0.818184
0.804816
0.809494
0.817072
0.804402
0.820611
0.786525
0.820551
0.813067
0.815382
0.797872
0.814734
0.795451
0.817027
0.598223
0.801722
0.802541
0.814951
0.815651
0.771239
0.802909
0.81707
0.81718
0.821475
0.772668
0.819791
0.811203
0.758371
0.763117
0.814062
0.809389
0.83182
0.827615
0.825104
0.80681
0.619661
0.782738
0.614633
0.804377
0.804311
0.804487
0.818153
0.875086
0.541963
0.610397
0.840346
0.873073
0.815845
0.6953
0.805128
0.728713
0.810256
0.818391
0.711642
0.658155
0.755655
0.817026
0.686962
0.874623
0.827267
0.802046
0.810073
0.634051
0.747471
0.784846
0.821093
0.807353
0.803246
0.8328
0.81716
0.713657
0.693592
0.802715
0.807466
0.814511
0.816811
0.810133
0.817184
0.741352
0.793
0.798564
0.80364
0.76805
0.821157
0.809244
0.817339
0.816824
0.760809
0.806394
0.804638
0.796705
0.817158
0.818781
0.81019
0.667104
0.789577
0.820228
0.814052
0.81585
0.808527
0.816878
0.807963
0.823878
0.824313
0.68997
0.856765
0.747777
0.823814
0.808085
0.746155
0.826435
0.801695
0.828273
0.561494
0.803126
0.688016
0.81723
0.810521
0.552759
0.802527
0.805571
0.799332
0.8036
0.804371
0.77571
0.817067
0.609144
0.807121
0.807259
0.802044
0.821558
0.768624
0.817213
0.814181
0.801282
0.819891
0.799721
0.803443
0.817159
0.641105
0.772782
0.739934
0.513979
0.827618
0.581674
0.803793
0.822174
0.858196
0.714804
0.74741
0.817153
0.807256
0.803437
0.797151
0.770495
0.815396
0.817182
0.800396
0.817479
0.818657
0.684113
0.816931
0.817529
0.807315
0.815359
0.61834
0.818735
0.824574
0.719953
0.790807
0.817517
0.80196
0.832339
0.833164
0.80473
0.742726
0.67218
0.81787
0.58225
0.801948
0.80357
0.775441
0.817358
0.755279
0.816329
0.807977
0.803618
0.510378
0.818164
0.830122
0.833147
0.817084
0.80398
0.80358
0.817019
0.759832
0.849133
0.840964
0.722387
0.801656
0.659889
0.780735
0.675076
0.819153
0.840777
0.802546
0.653285
0.770405
0.817838
0.827322
0.834662
0.815977
0.69345
0.55284
0.807307
0.819493
0.803835
0.818849
0.807495
0.774542
0.855213
0.818798
0.804601
0.820208
0.800184
0.744104
0.801537
0.814247
0.607708
0.694365
0.804357
0.816028
0.805568
0.585358
0.816156
0.612888
0.817177
0.770918
0.819636
0.819825
0.754701
0.809996
0.79549
0.805885
0.840217
0.841809
0.833092
0.805557
0.819818
0.592493
0.817145
0.858374
0.827025
0.831865
0.804885
0.823882
0.801618
0.84147
0.810162
0.815754
0.686642
0.653096
0.838077
0.817638
0.842275
0.724989
0.803773
0.767126
0.800361
0.811029
0.796223
0.810606
0.817488
0.825743
0.830705
0.832677
0.806418
0.750939
0.807516
0.739963
0.796942
0.824191
0.802796
0.816543
0.763028
0.806103
0.80705
0.848788
0.812922
0.803591
0.808588
0.836699
0.833486
0.803967
0.857903
0.799197
0.823236
0.682146
0.803508
0.801348
0.802353
0.83424
0.616679
0.807334
0.806357
0.668474
0.818546
0.831928
0.817969
0.803608
0.807461
0.803596
0.819648
0.802435
0.714672
0.530369
0.817687
0.809287
0.803574
0.806012
0.805111
0.804687
0.815279
0.80162
0.817912
0.593515
0.816971
0.810486
0.81673
0.844155
0.817878
0.836519
0.816644
0.80092
0.817331
0.687699
0.804689
0.855078
0.817348
0.794512
0.818191
0.64139
0.806952
0.615172
0.685031
0.687558
0.810612
0.819155
0.813627
0.519056
0.699609
0.803932
0.833335
0.751155
0.835309
0.805895
0.808444
0.800308
0.696752
0.757016
0.565734
0.803751
0.817059
0.806983
0.823145
0.675636
0.690593
0.858259
0.804028
0.818069
0.739676
0.817792
0.542229
0.823945
0.696858
0.817959
0.820797
0.802815
0.803733
0.828053
0.797468
0.804653
0.807347
0.63894
0.807945
0.666341
0.801993
0.801765
0.817914
0.816688
0.733538
0.818862
0.755582
0.803604
0.716719
0.807702
0.747032
0.677199
0.827428
0.81717
0.802713
0.732969
0.813963
0.6654
0.814924
0.803496
0.724435
0.828701
0.81989
0.658666
0.701145
0.828634
0.804068
0.732183
0.83587
0.837118
0.83845
0.817061
0.561375
0.754742
0.823029
0.82348
0.616978
0.646935
0.818232
0.817186
0.733203
0.781057
0.817246
0.810271
0.763292
0.816818
0.817763
0.803899
0.738518
0.803332
0.800463
0.81569
0.589698
0.806392
0.824894
0.584462
0.821408
0.85007
0.817342
0.682047
0.81699
0.816226
0.817026
0.801938
0.822098
0.804587
0.807731
0.805632
0.803588
0.817607
0.687594
0.813401
0.812016
0.707252
0.618999
0.788312
0.801882
0.817211
0.754324
0.641142
0.816412
0.787094
0.817238
0.824557
0.817721
0.827983
0.751944
0.614168
0.816847
0.841605
0.81734
0.697085
0.806651
0.732131
0.817362
0.81511
0.817272
0.820867
0.802486
0.817488
0.809557
0.758398
0.819603
0.817255
0.756336
0.793674
0.721005
0.613572
0.740902
0.785182
0.819219
0.81636
0.813527
0.814649
0.803584
0.798638
0.809051
0.695567
0.75388
0.816738
0.803965
0.805604
0.819796
0.620256
0.817773
0.804535
0.84527
0.812233
0.651662
0.795397
0.804646
0.844038
0.706092
0.578947
0.587963
0.642197
0.820863
0.80595
0.579337
0.613093
0.823224
0.817157
0.889923
0.80553
0.831319
0.817151
0.770404
0.81542
0.817092
0.817217
0.815303
0.817346
0.800936
0.816128
0.675961
0.819356
0.804056
0.813169
0.756459
0.820687
0.618044
0.8599
0.804468
0.82952
0.817383
0.808993
0.747304
0.826297
0.816056
0.839685
0.817075
0.816779
0.659419
0.829266
0.815471
0.817037
0.838324
0.825627
0.566559
0.799695
0.805565
0.814792
0.818344
0.804483
0.801997
0.819065
0.7693
0.807644
0.81959
0.864585
0.8337
0.609643
0.799284
0.758382
0.818108
0.76584
0.822626
0.805681
0.807426
0.817097
0.791802
0.808739
0.81681
0.823769
0.789321
0.691901
0.741791
0.714606
0.817908
0.840194
0.841225
0.741467
0.81277
0.754411
0.62317
0.817256
0.801731
0.817137
0.803975
0.648271
0.803457
0.779448
0.736608
0.815983
0.744865
0.810353
0.819806
0.861234
0.810996
0.80846
0.743793
0.817181
0.778852
0.841345
0.884501
0.800414
0.53623
0.802606
0.620978
0.77306
0.663688
0.800332
0.541228
0.818888
0.854713
0.806945
0.815913
0.822914
0.806593
0.803485
0.703934
0.826986
0.816757
0.804881
0.810222
0.794196
0.803996
0.809962
0.645865
0.820172
0.804689
0.849955
0.812104
0.805796
0.803979
0.816999
0.817129
0.811493
0.803901
0.790701
0.817173
0.797853
0.80489
0.817551
0.775769
0.579489
0.817263
0.821595
0.805443
0.721036
0.804885
0.81095
0.803741
0.712348
0.879058
0.817002
0.820004
0.817258
0.851548
0.781205
0.817173
0.790769
0.819255
0.825122
0.669672
0.817178
0.733371
0.820498
0.731008
0.803097
0.756899
0.804962
0.687718
0.813992
0.732571
0.564522
0.822452
0.668278
0.770045
0.820705
0.817162
0.779837
0.816235
0.731428
0.645033
0.828836
0.678144
0.82031
0.771589
0.802772
0.808906
0.817565
0.65875
0.805338
0.775495
0.814849
0.816165
0.833084
0.807148
0.695064
0.75892
0.664469
0.801712
0.806764
0.817251
0.818891
0.813187
0.816832
0.814645
0.670951
0.73569
0.68744
0.709767
0.818016
0.810865
0.835422
0.810652
0.818627
0.690867
0.880129
0.81902
0.828964
0.585546
0.825846
0.817141
0.842787
0.847196
0.828486
0.833163
0.823417
0.555623
0.806828
0.818227
0.707442
0.820223
0.80501
0.817155
0.809151
0.817071
0.816877
0.772003
0.714621
0.801242
0.802103
0.585863
0.818082
0.860506
0.819057
0.682516
0.825431
0.817416
0.822825
0.839543
0.679849
0.512835
0.80558
0.841798
0.806926
0.805747
0.818224
0.802797
0.813587
0.814283
0.801929
0.804893
0.805481
0.817144
0.80636
0.807477
0.80212
0.838519
0.833179
0.854873
0.817377
0.811336
0.818372
0.817426
0.817247
0.815669
0.819049
0.835693
0.809626
0.815715
0.630064
0.833039
0.69233
0.869351
0.804187
0.835011
0.802687
0.788226
0.789183
0.739609
0.824061
0.81231
0.815305
0.817647
0.778807
0.81219
0.594603
0.807143
0.817427
0.817363
0.797312
0.816997
0.618418
0.785891
0.569946
0.823613
0.800132
0.777531
0.805054
0.817719
0.817161
0.817137
0.735951
0.812308
0.817042
0.813253
0.804191
0.804689
0.748444
0.772092
0.81185
0.804379
0.71327
0.609116
0.512702
0.842894
0.806917
0.781606
0.783663
0.825792
0.803983
0.804471
0.821476
0.781894
0.75781
0.819836
0.810227
0.813729
0.83887
0.806228
0.816992
0.809254
0.509074
0.803938
0.817043
0.777066
0.822546
0.818228
0.828396
0.628196
0.703655
0.587661
0.8301
0.819096
0.748239
0.813204
0.683352
0.817609
0.812867
0.81718
0.80523
0.813207
0.587452
0.69509
0.809293
0.817615
0.795158
0.805025
0.833009
0.802242
0.804225
0.661329
0.811066
0.817243
0.805303
0.817091
0.803093
0.629308
0.818161
0.817167
0.584096
0.71417
0.796882
0.831236
0.710846
0.804871
0.795409
0.81717
0.757981
0.690858
0.815608
0.797386
0.802121
0.769079
0.558443
0.82313
0.680109
0.753755
0.72878
0.804482
0.80046
0.816672
0.672589
0.770962
0.804889
0.818874
0.60132
0.802506
0.82727
0.810605
0.558465
0.806609
0.785758
0.721926
0.720874
0.801518
0.822455
0.817426
0.812578
0.716073
0.743655
0.64877
0.834802
0.844415
0.820199
0.790112
0.866292
0.711011
0.817645
0.770537
0.793289
0.797182
0.817245
0.804699
0.816716
0.788477
0.760293
0.823023
0.799997
0.844121
0.723806
0.792699
0.80647
0.72752
0.805342
0.818397
0.58645
0.80287
0.802619
0.803131
0.824329
0.768358
0.801755
0.727501
0.81719
0.809865
0.730194
0.817182
0.819694
0.831307
0.806904
0.789862
0.800768
0.807109
0.722745
0.817192
0.804449
0.687254
0.808372
0.782934
0.833952
0.823077
0.822164
0.841484
0.852077
0.713594
0.817895
0.798181
0.789285
0.624725
0.819633
0.807474
0.817165
0.779998
0.854883
0.834741
0.784213
0.846624
0.782408
0.801373
0.775437
0.817146
0.726637
0.643123
0.845928
0.671885
0.794215
0.841332
0.817153
0.680156
0.810292
0.755515
0.804828
0.800151
0.785205
0.804902
0.804301
0.803893
0.802982
0.787801
0.816989
0.784415
0.819939
0.808855
0.72291
0.786672
0.81656
0.817183
0.806576
0.575389
0.827126
0.816605
0.816693
0.719074
0.806212
0.802483
0.804244
0.819629
0.746801
0.819689
0.803989
0.807282
0.760527
0.816474
0.813908
0.808198
0.772648
0.810682
0.816965
0.809045
0.818425
0.811632
0.806903
0.825909
0.80539
0.791563
0.8103
0.817129
0.819585
0.782921
0.708817
0.817884
0.813507
0.804462
0.748385
0.790722
0.66056
0.803617
0.555217
0.803572
0.818424
0.777162
0.836846
0.599967
0.813775
0.742496
0.81566
0.549334
0.806593
0.830908
0.81747
0.822113
0.741644
0.843056
0.572705
0.825798
0.702059
0.803021
0.68817
0.67624
0.817049
0.817239
0.747247
0.804702
0.822796
0.619442
0.824293
0.771561
0.835934
0.817263
0.81667
0.817445
0.80446
0.84039
0.812967
0.804677
0.683593
0.803546
0.845443
0.80356
0.805101
0.77102
0.807976
0.816972
0.817158
0.79993
0.738306
0.814495
0.819262
0.610896
0.80492
0.65189
0.819433
0.568381
0.817176
0.774178
0.690233
0.731233
0.784267
0.720473
0.846149
0.815327
0.799528
0.804723
0.708626
0.80342
0.792278
0.803096
0.817596
0.805115
0.728283
0.712461
0.803314
0.775624
0.534577
0.816194
0.68383
0.795866
0.693114
0.827398
0.814217
0.827936
0.812637
0.839762
0.811105
0.605669
0.831684
0.810864
0.804367
0.819248
0.817169
0.816926
0.815893
0.82788
0.820056
0.630486
0.805458
0.801403
0.817388
0.697413
0.803218
0.826204
0.75997
0.694282
0.810206
0.703726
0.736322
0.812612
0.817275
0.674968
0.843357
0.770974
0.806151
0.799681
0.815029
0.8464
0.80243
0.567156
0.818795
0.685311
0.679968
0.779033
0.763668
0.773044
0.817169
0.80376
0.819218
0.817385
0.59491
0.788873
0.83469
0.81715
0.602609
0.733459
0.654169
0.820288
0.815073
0.696136
0.80465
0.816836
0.802514
0.837502
0.623285
0.842489
0.739852
0.816581
0.817179
0.690065
0.816866
0.715234
0.794453
0.709894
0.814476
0.788405
0.64416
0.729187
0.722516
0.835167
0.814254
0.822653
0.825134
0.803586
0.809915
0.80564
0.820302
0.804394
0.703216
0.804915
0.611485
0.78052
0.808126
0.804804
0.817143
0.82719
0.803526
0.7286
0.686949
0.676253
0.794023
0.818976
0.748232
0.637642
0.756009
0.815568
0.802778
0.76378
0.805859
0.825144
0.756738
0.579442
0.701107
0.801334
0.817153
0.865601
0.817602
0.817012
0.853303
0.802525
0.803094
0.818424
0.817063
0.809024
0.724856
0.810204
0.705583
0.863653
0.78282
0.817717
0.64399
0.79984
0.543951
0.592409
0.635986
0.8119
0.803981
0.813132
0.763711
0.803893
0.55004
0.786361
0.806066
0.741704
0.818097
0.805164
0.819545
0.844699
0.687411
0.815468
0.802684
0.814643
0.818049
0.817349
0.817171
0.759092
0.800355
0.800322
0.803745
0.800551
0.814844
0.849016
0.821975
0.730692
0.80552
0.675249
0.817543
0.817237
0.599768
0.770769
0.770806
0.554993
0.788242
0.804291
0.879199
0.801788
0.81683
0.76056
0.796022
0.800322
0.811592
0.785083
0.557517
0.696143
0.686812
0.783657
0.817989
0.803762
0.823312
0.792128
0.805454
0.817299
0.801502
0.85376
0.720041
0.816991
0.783305
0.548537
0.664638
0.817387
0.804062
0.806494
0.573263
0.798122
0.804265
0.665519
0.817865
0.794336
0.810404
0.818602
0.67498
0.723252
0.72956
0.817
0.835234
0.642814
0.791737
0.709035
0.817766
0.829701
0.782135
0.777166
0.55954
0.815924
0.80284
0.727972
0.856348
0.806631
0.734417
0.744034
0.768315
0.816034
0.574309
0.798052
0.739215
0.801205
0.824798
0.713385
0.802601
0.815195
0.721001
0.814363
0.711712
0.819728
0.801463
0.759772
0.707843
0.812386
0.801113
0.817686
0.675935
0.806155
0.80877
0.816778
0.705299
0.817124
0.811171
0.833776
0.692641
0.81928
0.744915
0.816967
0.808515
0.84427
0.804233
0.822303
0.75249
0.81903
0.841012
0.834893
0.819107
0.849323
0.753502
0.852491
0.830138
0.806356
0.827686
0.807
0.653324
0.781651
0.818014
0.751954
0.70596
0.80203
0.806786
0.700577
0.800933
0.553233
0.85207
0.713335
0.711998
0.81774
0.777697
0.809614
0.800303
0.809592
0.804599
0.816596
0.838962
0.739622
0.775623
0.601523
0.815309
0.779164
0.813162
0.805868
0.581205
0.803277
0.802936
0.811824
0.801355
0.82033
0.809156
0.695941
0.826099
0.852516
0.690772
0.748595
0.817003
0.804665
0.723989
0.816721
0.759757
0.798396
0.80357
0.806674
0.839412
0.676334
0.721739
0.801603
0.709281
0.774829
0.834036
0.546992
0.699843
0.800485
0.804928
0.803637
0.742359
0.825373
0.810836
0.804122
0.809301
0.817644
0.701184
0.666466
0.810756
0.817993
0.801711
0.877328
0.804613
0.817178
0.800009
0.81377
0.815017
0.809588
0.667118
0.816015
0.820238
0.804111
0.805626
0.802188
0.625399
0.813554
0.815157
0.817181
0.867977
0.818291
0.80285
0.634841
0.838577
0.710913
0.829173
0.808356
0.815278
0.828112
0.814363
0.816798
0.740027
0.56513
0.640088
0.817003
0.813373
0.554159
0.797262
0.818356
0.8358
0.528159
0.810973
0.817523
0.804414
0.810465
0.561306
0.817435
0.809434
0.572649
0.817047
0.819103
0.556446
0.811673
0.817045
0.777837
0.808583
0.81344
0.814862
0.801498
0.828608
0.549285
0.833023
0.81713
0.804735
0.747546
0.788987
0.816372
0.810935
0.805657
0.819133
0.801548
0.679103
0.810259
0.688623
0.817332
0.666929
0.751979
0.798138
0.723416
0.803848
0.589389
0.851446
0.817162
0.816704
0.802477
0.803685
0.803416
0.815048
0.818417
0.676518
0.728865
0.735275
0.818734
0.732759
0.683871
0.820046
0.786835
0.83032
0.815732
0.810786
0.73712
0.560303
0.80017
0.793576
0.545941
0.817978
0.817447
0.73956
0.807217
0.771888
0.62456
0.813721
0.816134
0.791901
0.618541
0.803495
0.785398
0.829176
0.817436
0.815735
0.81312
0.817339
0.70717
0.802703
0.819532
0.711488
0.527833
0.741774
0.799956
0.738459
0.817453
0.801544
0.806792
0.784988
0.868564
0.803735
0.802758
0.828384
0.860851
0.805318
0.818885
0.79802
0.819619
0.791211
0.748336
0.813291
0.804926
0.81973
0.803751
0.794406
0.844857
0.76889
0.817286
0.776484
0.805624
0.649294
0.529456
0.80221
0.803577
0.814694
0.799395
0.802319
0.81731
0.775364
0.806875
0.817262
0.785216
0.819761
0.778212
0.606195
0.80617
0.762119
0.779259
0.755432
0.7651
0.795676
0.790506
0.824513
0.789487
0.810525
0.803598
0.769195
0.819351
0.558084
0.736955
0.814939
0.817812
0.816211
0.805777
0.816872
0.812915
0.806935
0.824317
0.810779
0.785402
0.820107
0.804204
0.794042
0.797549
0.806143
0.596914
0.80426
0.794013
0.589501
0.815495
0.80839
0.806899
0.811908
0.709699
0.754629
0.824302
0.776193
0.812736
0.819966
0.716169
0.805295
0.826983
0.726245
0.801021
0.813875
0.781009
0.807948
0.840027
0.803434
0.820893
0.77566
0.806103
0.802502
0.817309
0.80499
0.800862
0.602254
0.819097
0.790595
0.807544
0.828495
0.708971
0.831249
0.822214
0.529082
0.808713
0.80513
0.805022
0.816605
0.826645
0.826962
0.805781
0.809487
0.818266
0.814709
0.803976
0.816752
0.806998
0.752842
0.72192
0.78432
0.817895
0.815888
0.779016
0.76135
0.815238
0.826956
0.811803
0.817038
0.710296
0.523494
0.748731
0.821081
0.80927
0.819909
0.845876
0.802495
0.726215
0.668474
0.803112
0.807258
0.70499
0.817294
0.688307
0.838906
0.734171
0.816752
0.895802
0.816871
0.803359
0.781348
0.812457
0.694644
0.815597
0.812156
0.793429
0.809192
0.780638
0.803208
0.811115
0.784693
0.803972
0.853706
0.77919
0.802735
0.6419
0.805056
0.699109
0.80477
0.795863
0.790056
0.786747
0.726536
0.805736
0.79147
0.846476
0.817647
0.817175
0.816742
0.896043
0.752155
0.803865
0.740365
0.803481
0.801604
0.806056
0.724579
0.803484
0.806932
0.660513
0.812206
0.752819
0.649424
0.848448
0.849231
0.755098
0.812195
0.796437
0.775824
0.740275
0.779064
0.788388
0.740398
0.804526
0.806256
0.73026
0.819183
0.805758
0.577436
0.817236
0.824118
0.816471
0.804184
0.619558
0.726892
0.80746
0.860693
0.670573
0.731582
0.808796
0.817341
0.799519
0.708631
0.724388
0.810104
0.817613
0.818906
0.839365
0.745498
0.759833
0.87673
0.808371
0.814486
0.796888
0.666311
0.649491
0.599212
0.668914
0.614885
0.769327
0.804377
0.805271
0.816644
0.811613
0.812623
0.861633
0.728781
0.826773
0.818069
0.820619
0.820295
0.818013
0.817448
0.816
0.817349
0.686875
0.805346