# vtk DataFile Version 1.0
unstructured grid
ascii
DATASET UNSTRUCTURED_GRID
points 14760 float
-1 0 0
-1 1 0
2 0 0
2 1 0
0 0 0
1 0 0
-1 1 0.1
-1 0 0.1
0 0 0.1
1 0 0.1
2 0 0.1
2 1 0.1
-0.99 0 0
-0.98 0 0
-0.97 0 0
-0.96 0 0
-0.95 0 0
-0.94 0 0
-0.93 0 0
-0.92 0 0
-0.91 0 0
-0.9 0 0
-0.89 0 0
-0.88 0 0
-0.87 0 0
-0.86 0 0
-0.85 0 0
-0.84 0 0
-0.83 0 0
-0.82 0 0
-0.81 0 0
-0.8 0 0
-0.79 0 0
-0.78 0 0
-0.77 0 0
-0.76 0 0
-0.75 0 0
-0.74 0 0
-0.73 0 0
-0.72 0 0
-0.71 0 0
-0.7 0 0
-0.69 0 0
-0.68 0 0
-0.67 0 0
-0.66 0 0
-0.65 0 0
-0.64 0 0
-0.63 0 0
-0.62 0 0
-0.61 0 0
-0.6 0 0
-0.59 0 0
-0.58 0 0
-0.57 0 0
-0.56 0 0
-0.55 0 0
-0.54 0 0
-0.53 0 0
-0.52 0 0
-0.51 0 0
-0.5 0 0
-0.49 0 0
-0.48 0 0
-0.47 0 0
-0.46 0 0
-0.45 0 0
-0.44 0 0
-0.43 0 0
-0.42 0 0
-0.41 0 0
-0.4 0 0
-0.39 0 0
-0.38 0 0
-0.37 0 0
-0.36 0 0
-0.35 0 0
-0.34 0 0
-0.33 0 0
-0.32 0 0
-0.31 0 0
-0.3 0 0
-0.29 0 0
-0.28 0 0
-0.27 0 0
-0.26 0 0
-0.25 0 0
-0.24 0 0
-0.23 0 0
-0.22 0 0
-0.21 0 0
-0.2 0 0
-0.19 0 0
-0.18 0 0
-0.17 0 0
-0.16 0 0
-0.15 0 0
-0.14 0 0
-0.13 0 0
-0.12 0 0
-0.11 0 0
-0.1 0 0
-0.09 0 0
-0.08 0 0
-0.07 0 0
-0.06 0 0
-0.05 0 0
-0.04 0 0
-0.03 0 0
-0.02 0 0
-0.01 0 0
1.01 0 0
1.02 0 0
1.03 0 0
1.04 0 0
1.05 0 0
1.06 0 0
1.07 0 0
1.08 0 0
1.09 0 0
1.1 0 0
1.11 0 0
1.12 0 0
1.13 0 0
1.14 0 0
1.15 0 0
1.16 0 0
1.17 0 0
1.18 0 0
1.19 0 0
1.2 0 0
1.21 0 0
1.22 0 0
1.23 0 0
1.24 0 0
1.25 0 0
1.26 0 0
1.27 0 0
1.28 0 0
1.29 0 0
1.3 0 0
1.31 0 0
1.32 0 0
1.33 0 0
1.34 0 0
1.35 0 0
1.36 0 0
1.37 0 0
1.38 0 0
1.39 0 0
1.4 0 0
1.41 0 0
1.42 0 0
1.43 0 0
1.44 0 0
1.45 0 0
1.46 0 0
1.47 0 0
1.48 0 0
1.49 0 0
1.5 0 0
1.51 0 0
1.52 0 0
1.53 0 0
1.54 0 0
1.55 0 0
1.56 0 0
1.57 0 0
1.58 0 0
1.59 0 0
1.6 0 0
1.61 0 0
1.62 0 0
1.63 0 0
1.64 0 0
1.65 0 0
1.66 0 0
1.67 0 0
1.68 0 0
1.69 0 0
1.7 0 0
1.71 0 0
1.72 0 0
1.73 0 0
1.74 0 0
1.75 0 0
1.76 0 0
1.77 0 0
1.78 0 0
1.79 0 0
1.8 0 0
1.81 0 0
1.82 0 0
1.83 0 0
1.84 0 0
1.85 0 0
1.86 0 0
1.87 0 0
1.88 0 0
1.89 0 0
1.9 0 0
1.91 0 0
1.92 0 0
1.93 0 0
1.94 0 0
1.95 0 0
1.96 0 0
1.97 0 0
1.98 0 0
1.99 0 0
2 0.0100088 0
2 0.0204183 0
2 0.0312446 0
2 0.0425043 0
2 0.0542147 0
2 0.066394 0
2 0.079061 0
2 0.092235 0
2 0.105936 0
2 0.120186 0
2 0.135007 0
2 0.150421 0
2 0.166452 0
2 0.183124 0
2 0.200465 0
2 0.218499 0
2 0.237256 0
2 0.256763 0
2 0.277051 0
2 0.298152 0
2 0.320097 0
2 0.342921 0
2 0.366659 0
2 0.391347 0
2 0.417024 0
2 0.443728 0
2 0.471502 0
2 0.500387 0
2 0.530429 0
2 0.561674 0
2 0.594169 0
2 0.627966 0
2 0.663115 0
2 0.699672 0
2 0.737692 0
2 0.777235 0
2 0.818361 0
2 0.861133 0
2 0.905617 0
2 0.951882 0
1.95 1 0
1.9 1 0
1.85 1 0
1.8 1 0
1.75 1 0
1.7 1 0
1.65 1 0
1.6 1 0
1.55 1 0
1.5 1 0
1.45 1 0
1.4 1 0
1.35 1 0
1.3 1 0
1.25 1 0
1.2 1 0
1.15 1 0
1.1 1 0
1.05 1 0
1 1 0
0.95 1 0
0.9 1 0
0.85 1 0
0.8 1 0
0.75 1 0
0.7 1 0
0.65 1 0
0.6 1 0
0.55 1 0
0.5 1 0
0.45 1 0
0.4 1 0
0.35 1 0
0.3 1 0
0.25 1 0
0.2 1 0
0.15 1 0
0.1 1 0
0.05 1 0
3.69793e-12 1 0
-0.05 1 0
-0.1 1 0
-0.15 1 0
-0.2 1 0
-0.25 1 0
-0.3 1 0
-0.35 1 0
-0.4 1 0
-0.45 1 0
-0.5 1 0
-0.55 1 0
-0.6 1 0
-0.65 1 0
-0.7 1 0
-0.75 1 0
-0.8 1 0
-0.85 1 0
-0.9 1 0
-0.95 1 0
-1 0.951882 0
-1 0.905617 0
-1 0.861133 0
-1 0.818361 0
-1 0.777235 0
-1 0.737692 0
-1 0.699672 0
-1 0.663115 0
-1 0.627966 0
-1 0.594169 0
-1 0.561674 0
-1 0.530429 0
-1 0.500387 0
-1 0.471502 0
-1 0.443728 0
-1 0.417024 0
-1 0.391347 0
-1 0.366659 0
-1 0.342921 0
-1 0.320097 0
-1 0.298152 0
-1 0.277051 0
-1 0.256763 0
-1 0.237256 0
-1 0.218499 0
-1 0.200465 0
-1 0.183124 0
-1 0.166452 0
-1 0.150421 0
-1 0.135007 0
-1 0.120186 0
-1 0.105936 0
-1 0.092235 0
-1 0.079061 0
-1 0.066394 0
-1 0.0542147 0
-1 0.0425043 0
-1 0.0312446 0
-1 0.0204183 0
-1 0.0100088 0
0.00921362 0.00379763 0
0.0184561 0.00752451 0
0.0277268 0.0111804 0
0.0370253 0.0147652 0
0.0463511 0.0182786 0
0.0557034 0.0217203 0
0.0650819 0.0250903 0
0.074486 0.0283883 0
0.083915 0.0316141 0
0.0933685 0.0347675 0
0.102846 0.0378484 0
0.112347 0.0408565 0
0.12187 0.0437917 0
0.131416 0.0466538 0
0.140983 0.0494427 0
0.150572 0.0521581 0
0.160181 0.0547999 0
0.16981 0.0573681 0
0.179458 0.0598623 0
0.189125 0.0622825 0
0.198811 0.0646285 0
0.208514 0.0669001 0
0.218234 0.0690974 0
0.227971 0.07122 0
0.237724 0.073268 0
0.247493 0.0752411 0
0.257276 0.0771393 0
0.267073 0.0789625 0
0.276884 0.0807105 0
0.286708 0.0823832 0
0.296545 0.0839806 0
0.306394 0.0855025 0
0.316254 0.0869488 0
0.326125 0.0883196 0
0.336006 0.0896146 0
0.345896 0.0908339 0
0.355796 0.0919773 0
0.365704 0.0930447 0
0.375621 0.0940362 0
0.385544 0.0949517 0
0.395474 0.095791 0
0.40541 0.0965542 0
0.415352 0.0972412 0
0.425299 0.097852 0
0.43525 0.0983865 0
0.445205 0.0988447 0
0.455164 0.0992266 0
0.465125 0.0995321 0
0.475088 0.0997613 0
0.485052 0.0999141 0
0.495017 0.0999904 0
0.504983 0.0999904 0
0.514948 0.0999141 0
0.524912 0.0997613 0
0.534875 0.0995321 0
0.544836 0.0992266 0
0.554795 0.0988447 0
0.56475 0.0983865 0
0.574701 0.097852 0
0.584648 0.0972412 0
0.59459 0.0965542 0
0.604526 0.095791 0
0.614456 0.0949517 0
0.624379 0.0940362 0
0.634296 0.0930447 0
0.644204 0.0919773 0
0.654104 0.0908339 0
0.663994 0.0896146 0
0.673875 0.0883196 0
0.683746 0.0869488 0
0.693606 0.0855025 0
0.703455 0.0839806 0
0.713292 0.0823832 0
0.723116 0.0807105 0
0.732927 0.0789625 0
0.742724 0.0771393 0
0.752508 0.0752411 0
0.762276 0.073268 0
0.772029 0.07122 0
0.781766 0.0690974 0
0.791486 0.0669001 0
0.801189 0.0646285 0
0.810875 0.0622825 0
0.820542 0.0598623 0
0.83019 0.0573681 0
0.839819 0.0547999 0
0.849428 0.0521581 0
0.859017 0.0494427 0
0.868584 0.0466538 0
0.87813 0.0437917 0
0.887653 0.0408565 0
0.897154 0.0378484 0
0.906631 0.0347675 0
0.916085 0.0316141 0
0.925514 0.0283883 0
0.934918 0.0250903 0
0.944297 0.0217203 0
0.953649 0.0182786 0
0.962975 0.0147652 0
0.972273 0.0111804 0
0.981544 0.00752451 0
0.990786 0.00379763 0
-1 0.951882 0.1
-1 0.905617 0.1
-1 0.861133 0.1
-1 0.818361 0.1
-1 0.777235 0.1
-1 0.737692 0.1
-1 0.699672 0.1
-1 0.663115 0.1
-1 0.627966 0.1
-1 0.594169 0.1
-1 0.561674 0.1
-1 0.530429 0.1
-1 0.500387 0.1
-1 0.471502 0.1
-1 0.443728 0.1
-1 0.417024 0.1
-1 0.391347 0.1
-1 0.366659 0.1
-1 0.342921 0.1
-1 0.320097 0.1
-1 0.298152 0.1
-1 0.277051 0.1
-1 0.256763 0.1
-1 0.237256 0.1
-1 0.218499 0.1
-1 0.200465 0.1
-1 0.183124 0.1
-1 0.166452 0.1
-1 0.150421 0.1
-1 0.135007 0.1
-1 0.120186 0.1
-1 0.105936 0.1
-1 0.092235 0.1
-1 0.079061 0.1
-1 0.066394 0.1
-1 0.0542147 0.1
-1 0.0425043 0.1
-1 0.0312446 0.1
-1 0.0204183 0.1
-1 0.0100088 0.1
-0.99 0 0.1
-0.98 0 0.1
-0.97 0 0.1
-0.96 0 0.1
-0.95 0 0.1
-0.94 0 0.1
-0.93 0 0.1
-0.92 0 0.1
-0.91 0 0.1
-0.9 0 0.1
-0.89 0 0.1
-0.88 0 0.1
-0.87 0 0.1
-0.86 0 0.1
-0.85 0 0.1
-0.84 0 0.1
-0.83 0 0.1
-0.82 0 0.1
-0.81 0 0.1
-0.8 0 0.1
-0.79 0 0.1
-0.78 0 0.1
-0.77 0 0.1
-0.76 0 0.1
-0.75 0 0.1
-0.74 0 0.1
-0.73 0 0.1
-0.72 0 0.1
-0.71 0 0.1
-0.7 0 0.1
-0.69 0 0.1
-0.68 0 0.1
-0.67 0 0.1
-0.66 0 0.1
-0.65 0 0.1
-0.64 0 0.1
-0.63 0 0.1
-0.62 0 0.1
-0.61 0 0.1
-0.6 0 0.1
-0.59 0 0.1
-0.58 0 0.1
-0.57 0 0.1
-0.56 0 0.1
-0.55 0 0.1
-0.54 0 0.1
-0.53 0 0.1
-0.52 0 0.1
-0.51 0 0.1
-0.5 0 0.1
-0.49 0 0.1
-0.48 0 0.1
-0.47 0 0.1
-0.46 0 0.1
-0.45 0 0.1
-0.44 0 0.1
-0.43 0 0.1
-0.42 0 0.1
-0.41 0 0.1
-0.4 0 0.1
-0.39 0 0.1
-0.38 0 0.1
-0.37 0 0.1
-0.36 0 0.1
-0.35 0 0.1
-0.34 0 0.1
-0.33 0 0.1
-0.32 0 0.1
-0.31 0 0.1
-0.3 0 0.1
-0.29 0 0.1
-0.28 0 0.1
-0.27 0 0.1
-0.26 0 0.1
-0.25 0 0.1
-0.24 0 0.1
-0.23 0 0.1
-0.22 0 0.1
-0.21 0 0.1
-0.2 0 0.1
-0.19 0 0.1
-0.18 0 0.1
-0.17 0 0.1
-0.16 0 0.1
-0.15 0 0.1
-0.14 0 0.1
-0.13 0 0.1
-0.12 0 0.1
-0.11 0 0.1
-0.1 0 0.1
-0.09 0 0.1
-0.08 0 0.1
-0.07 0 0.1
-0.06 0 0.1
-0.05 0 0.1
-0.04 0 0.1
-0.03 0 0.1
-0.02 0 0.1
-0.01 0 0.1
0.00921362 0.00379763 0.1
0.0184561 0.00752451 0.1
0.0277268 0.0111804 0.1
0.0370253 0.0147652 0.1
0.0463511 0.0182786 0.1
0.0557034 0.0217203 0.1
0.0650819 0.0250903 0.1
0.074486 0.0283883 0.1
0.083915 0.0316141 0.1
0.0933685 0.0347675 0.1
0.102846 0.0378484 0.1
0.112347 0.0408565 0.1
0.12187 0.0437917 0.1
0.131416 0.0466538 0.1
0.140983 0.0494427 0.1
0.150572 0.0521581 0.1
0.160181 0.0547999 0.1
0.16981 0.0573681 0.1
0.179458 0.0598623 0.1
0.189125 0.0622825 0.1
0.198811 0.0646285 0.1
0.208514 0.0669001 0.1
0.218234 0.0690974 0.1
0.227971 0.07122 0.1
0.237724 0.073268 0.1
0.247493 0.0752411 0.1
0.257276 0.0771393 0.1
0.267073 0.0789625 0.1
0.276884 0.0807105 0.1
0.286708 0.0823832 0.1
0.296545 0.0839806 0.1
0.306394 0.0855025 0.1
0.316254 0.0869488 0.1
0.326125 0.0883196 0.1
0.336006 0.0896146 0.1
0.345896 0.0908339 0.1
0.355796 0.0919773 0.1
0.365704 0.0930447 0.1
0.375621 0.0940362 0.1
0.385544 0.0949517 0.1
0.395474 0.095791 0.1
0.40541 0.0965542 0.1
0.415352 0.0972412 0.1
0.425299 0.097852 0.1
0.43525 0.0983865 0.1
0.445205 0.0988447 0.1
0.455164 0.0992266 0.1
0.465125 0.0995321 0.1
0.475088 0.0997613 0.1
0.485052 0.0999141 0.1
0.495017 0.0999904 0.1
0.504983 0.0999904 0.1
0.514948 0.0999141 0.1
0.524912 0.0997613 0.1
0.534875 0.0995321 0.1
0.544836 0.0992266 0.1
0.554795 0.0988447 0.1
0.56475 0.0983865 0.1
0.574701 0.097852 0.1
0.584648 0.0972412 0.1
0.59459 0.0965542 0.1
0.604526 0.095791 0.1
0.614456 0.0949517 0.1
0.624379 0.0940362 0.1
0.634296 0.0930447 0.1
0.644204 0.0919773 0.1
0.654104 0.0908339 0.1
0.663994 0.0896146 0.1
0.673875 0.0883196 0.1
0.683746 0.0869488 0.1
0.693606 0.0855025 0.1
0.703455 0.0839806 0.1
0.713292 0.0823832 0.1
0.723116 0.0807105 0.1
0.732927 0.0789625 0.1
0.742724 0.0771393 0.1
0.752508 0.0752411 0.1
0.762276 0.073268 0.1
0.772029 0.07122 0.1
0.781766 0.0690974 0.1
0.791486 0.0669001 0.1
0.801189 0.0646285 0.1
0.810875 0.0622825 0.1
0.820542 0.0598623 0.1
0.83019 0.0573681 0.1
0.839819 0.0547999 0.1
0.849428 0.0521581 0.1
0.859017 0.0494427 0.1
0.868584 0.0466538 0.1
0.87813 0.0437917 0.1
0.887653 0.0408565 0.1
0.897154 0.0378484 0.1
0.906631 0.0347675 0.1
0.916085 0.0316141 0.1
0.925514 0.0283883 0.1
0.934918 0.0250903 0.1
0.944297 0.0217203 0.1
0.953649 0.0182786 0.1
0.962975 0.0147652 0.1
0.972273 0.0111804 0.1
0.981544 0.00752451 0.1
0.990786 0.00379763 0.1
1.01 0 0.1
1.02 0 0.1
1.03 0 0.1
[...]
CELL_DATA 14313
SCALARS rho float
LOOKUP_TABLE default
0.783614
0.825568
0.806694
0.546879
0.769975
0.814637
0.815112
0.815026
0.811639
0.816142
0.814867
0.799543
0.799361
0.540844
0.815408
0.833653
0.809732
0.808411
0.812571
0.806161
0.81353
0.814891
0.815058
0.769737
0.814644
0.81564
0.745068
0.704194
0.825052
0.826209
0.814646
0.795245
0.802149
0.814616
0.805256
0.813148
0.685405
0.809855
0.81421
0.803256
0.755473
0.813188
0.550942
0.706954
0.819808
0.837071
0.813425
0.778987
0.806453
0.854363
0.681131
0.657591
0.604562
0.813061
0.82171
0.784139
0.819794
0.815689
0.811411
0.814907
0.814724
0.820571
0.795223
0.84051
0.813148
0.815781
0.856228
0.785316
0.842114
0.8154
0.798998
0.833224
0.510699
0.838761
0.733297
0.80927
0.826788
0.749704
0.699908
0.814136
0.597581
0.826558
0.834506
0.803823
0.807894
0.821404
0.814615
0.80504
0.82804
0.807722
0.781522
0.546427
0.808214
0.800315
0.733271
0.804127
0.816999
0.811615
0.803963
0.512938
0.809171
0.812263
0.815086
0.815935
0.75141
0.810085
0.803616
0.702913
0.836093
0.812484
0.814558
0.826797
0.814471
0.821436
0.804562
0.829226
0.821858
0.837791
0.780426
0.80097
0.814166
0.811684
0.860476
0.728032
0.846088
0.757239
0.791981
0.805043
0.817017
0.845636
0.812015
0.814672
0.861755
0.814903
0.825252
0.784101
0.809311
0.793256
0.819845
0.819536
0.815112
0.818871
0.803483
0.803661
0.79748
0.840623
0.806417
0.762935
0.797535
0.819561
0.799742
0.80382
0.81506
0.71361
0.823111
0.804024
0.726092
0.823157
0.81467
0.812692
0.820586
0.809501
0.670809
0.760023
0.8251
0.826514
0.718987
0.815148
0.829847
0.817508
0.693937
0.816985
0.716588
0.790387
0.811294
0.828303
0.810562
0.817149
0.823012
0.746243
0.814105
0.812083
0.775799
0.771734
0.791607
0.813534
0.815397
0.797921
0.510629
0.78938
0.760881
0.747353
0.771528
0.722475
0.81488
0.81719
0.80819
0.803722
0.808552
0.819059
0.762865
0.803766
0.830312
0.817219
0.835109
0.803588
0.81734
0.814954
0.814627
0.835959
0.805872
0.813216
0.797981
0.704272
0.81644
0.823487
0.812208
0.809062
0.836134
0.804368
0.803407
0.820101
0.808464
0.8566
0.811624
0.803858
0.820134
0.80292
0.815026
0.760025
0.659924
0.815906
0.700955
0.828727
0.80287
0.728549
0.814431
0.816407
0.817139
0.828455
0.792706
0.70354
0.751871
0.612283
0.817353
0.726794
0.801893
0.807805
0.839235
0.817179
0.582894
0.804503
0.732746
0.838963
0.803016
0.699759
0.813415
0.828871
0.816976
0.569178
0.813941
0.802965
0.801333
0.808236
0.790512
0.776178
0.816512
0.816303
0.547352
0.817014
0.816186
0.773918
0.802759
0.814857
0.781928
0.819382
0.78585
0.71481
0.803688
0.80629
0.575636
0.55227
0.759736
0.810418
0.82255
0.791192
0.814516
0.817195
0.777637
0.806737
0.803846
0.818956
0.831297
0.795502
0.808842
0.813693
0.647214
0.820471
0.711243
0.79979
0.794115
0.779178
0.837214
0.810066
0.799067
0.683495
0.675784
0.805661
0.807609
0.820553
0.804682
0.800979
0.656462
0.817453
0.823398
0.81898
0.814873
0.815322
0.802024
0.792887
0.816607
0.619648
0.810512
0.81493
0.816821
0.815118
0.768179
0.823449
0.802397
0.816641
0.815488
0.754163
0.755858
0.803522
0.803592
0.696401
0.815088
0.813923
0.809004
0.814304
0.80462
0.801418
0.732094
0.715592
0.816795
0.750961
0.761441
0.821236
0.839111
0.816605
0.804064
0.809023
0.814936
0.803943
0.819306
0.785403
0.81924
0.812555
0.813364
0.797157
0.812967
0.794533
0.814633
0.595363
0.801185
0.801979
0.814042
0.815135
0.770227
0.802323
0.814898
0.815084
0.820242
0.771601
0.819239
0.810402
0.756795
0.762384
0.813556
0.808161
0.831027
0.826697
0.824491
0.806059
0.61107
0.78171
0.61
0.8039
0.803738
0.803242
0.816652
0.874997
0.536594
0.604786
0.839843
0.872973
0.814283
0.693691
0.804241
0.724914
0.809128
0.817586
0.710214
0.655855
0.754375
0.815382
0.693387
0.874532
0.826349
0.800935
0.809568
0.509323
0.745412
0.784006
0.819829
0.806549
0.802515
0.832045
0.815003
0.711308
0.690994
0.802423
0.806959
0.812116
0.814396
0.80958
0.814733
0.739707
0.792226
0.797949
0.803305
0.766942
0.819899
0.808677
0.815433
0.814425
0.759273
0.806022
0.804374
0.795709
0.814881
0.817792
0.809169
0.664031
0.788716
0.819435
0.813536
0.814562
0.808065
0.815187
0.806888
0.823076
0.823463
0.68821
0.856441
0.74668
0.822726
0.80715
0.745667
0.826016
0.801287
0.827399
0.557008
0.802149
0.685329
0.8148
0.810012
0.540605
0.801734
0.80522
0.798735
0.802966
0.803127
0.77476
0.814654
0.603623
0.806619
0.806817
0.80123
0.820461
0.7676
0.814792
0.812043
0.800399
0.818523
0.798954
0.803274
0.815017
0.638871
0.771812
0.738237
0.505518
0.826702
0.577056
0.803249
0.820999
0.857887
0.711581
0.745349
0.814877
0.806816
0.802745
0.79616
0.769237
0.813491
0.815069
0.799183
0.815653
0.81794
0.698197
0.814967
0.815769
0.80685
0.812926
0.613784
0.817455
0.823585
0.715768
0.789976
0.815702
0.801505
0.831206
0.832778
0.804407
0.742221
0.515156
0.816291
0.578436
0.801112
0.803486
0.774764
0.814859
0.753504
0.814051
0.807425
0.803525
0.501696
0.816653
0.829308
0.83239
0.816516
0.803786
0.803455
0.815014
0.759137
0.848733
0.840074
0.718516
0.800879
0.657823
0.779659
0.672745
0.818169
0.839564
0.801587
0.648439
0.769145
0.816147
0.826414
0.834156
0.815403
0.686896
0.547679
0.806504
0.818185
0.803131
0.817976
0.806758
0.773368
0.85443
0.817507
0.804338
0.818982
0.799637
0.743565
0.800605
0.813383
0.603983
0.692731
0.803862
0.813581
0.805247
0.581875
0.814195
0.610199
0.81507
0.769616
0.81884
0.818562
0.75383
0.808859
0.794659
0.805532
0.839412
0.840623
0.83273
0.805183
0.818443
0.588367
0.815084
0.858065
0.826607
0.831108
0.804605
0.822859
0.801048
0.841155
0.809655
0.81525
0.682484
0.646041
0.837434
0.815877
0.841982
0.722451
0.803063
0.765716
0.799589
0.810506
0.795398
0.809386
0.815635
0.824745
0.829943
0.831907
0.805942
0.750323
0.806428
0.736651
0.795798
0.823412
0.802302
0.815978
0.761309
0.805613
0.806251
0.848387
0.811489
0.803502
0.807805
0.836026
0.832957
0.803798
0.857589
0.798001
0.822174
0.6761
0.80339
0.800826
0.801397
0.83351
0.614053
0.806861
0.805977
0.665388
0.816987
0.831167
0.816309
0.803529
0.806951
0.803082
0.81835
0.801472
0.715248
0.524716
0.815913
0.808023
0.803076
0.805517
0.80448
0.804207
0.813335
0.800688
0.816207
0.590058
0.815294
0.809991
0.81458
0.843763
0.816195
0.835939
0.814226
0.800089
0.815388
0.686043
0.804226
0.85398
0.815416
0.793859
0.816613
0.638996
0.806435
0.597664
0.678436
0.683372
0.810125
0.817809
0.813115
0.511367
0.698016
0.80375
0.832592
0.750049
0.834446
0.80554
0.807386
0.799209
0.698482
0.755018
0.559491
0.803453
0.814542
0.806186
0.822577
0.67381
0.688691
0.857448
0.803327
0.816471
0.736349
0.816053
0.536891
0.822917
0.69928
0.816305
0.819681
0.802523
0.803275
0.827145
0.796802
0.804155
0.806238
0.636491
0.807407
0.662276
0.801155
0.800829
0.816214
0.816196
0.732225
0.81764
0.755016
0.803454
0.716992
0.806893
0.746129
0.675402
0.82652
0.815073
0.801744
0.731097
0.813157
0.663214
0.813366
0.803324
0.724483
0.827815
0.81862
0.652122
0.699564
0.827745
0.80388
0.730318
0.835308
0.836454
0.837813
0.814603
0.556849
0.753681
0.822583
0.822427
0.571378
0.64474
0.817435
0.81512
0.729691
0.77999
0.814859
0.809282
0.761437
0.814817
0.816015
0.803748
0.735425
0.802817
0.79938
0.814401
0.585516
0.806019
0.823865
0.581007
0.820312
0.848919
0.814867
0.680337
0.814571
0.814249
0.814654
0.801541
0.820916
0.80403
0.807243
0.805258
0.80349
0.815974
0.678176
0.812192
0.811266
0.70289
0.613872
0.787417
0.800941
0.814875
0.753475
0.61641
0.814177
0.786108
0.814865
0.823561
0.815996
0.827071
0.750892
0.606098
0.814383
0.841052
0.814864
0.699183
0.805716
0.730708
0.815648
0.813534
0.81478
0.819609
0.801923
0.815634
0.809076
0.757617
0.818445
0.815261
0.755048
0.79293
0.718166
0.591536
0.738452
0.784191
0.818039
0.814084
0.812657
0.813053
0.803482
0.797726
0.808591
0.697948
0.753195
0.814386
0.803768
0.805277
0.819266
0.615036
0.81606
0.804218
0.844911
0.810429
0.646867
0.794667
0.804352
0.843757
0.701727
0.573168
0.584249
0.639974
0.819766
0.805346
0.572915
0.603491
0.822104
0.814926
0.890013
0.805205
0.830919
0.81509
0.769686
0.813436
0.815185
0.814872
0.813286
0.814868
0.800212
0.8146
0.666564
0.818025
0.803865
0.811948
0.755908
0.819415
0.615742
0.859029
0.804214
0.828807
0.814877
0.808538
0.746833
0.825169
0.814405
0.839127
0.814634
0.815035
0.6538
0.82856
0.813008
0.815023
0.837981
0.824624
0.562187
0.798928
0.804753
0.81366
0.817826
0.804228
0.80155
0.817587
0.767779
0.806838
0.818189
0.864476
0.832957
0.601865
0.798381
0.756767
0.816484
0.764253
0.82153
0.805347
0.806939
0.814941
0.791102
0.807809
0.816306
0.823138
0.78852
0.68526
0.739642
0.709778
0.816487
0.839088
0.840412
0.739326
0.81129
0.753714
0.618792
0.814853
0.801163
0.814655
0.80381
0.642807
0.802894
0.778308
0.736013
0.813586
0.744208
0.809514
0.818649
0.860963
0.810475
0.80789
0.742665
0.815141
0.778034
0.840881
0.884545
0.79956
0.531011
0.801822
0.616635
0.77168
0.661654
0.799786
0.515226
0.817384
0.853565
0.806466
0.813466
0.82183
0.805534
0.803366
0.701768
0.825847
0.814627
0.804518
0.808971
0.793455
0.803819
0.809009
0.640382
0.818826
0.803925
0.848788
0.810491
0.805193
0.803275
0.815413
0.815532
0.810003
0.80374
0.789851
0.814906
0.797194
0.804
0.815783
0.774674
0.575257
0.815282
0.820371
0.80483
0.721038
0.803853
0.809928
0.803618
0.708386
0.878049
0.814485
0.818887
0.814855
0.850772
0.780379
0.814877
0.789929
0.818056
0.824102
0.66766
0.814903
0.731961
0.819952
0.727282
0.802114
0.754905
0.804251
0.691581
0.811894
0.732381
0.495877
0.821878
0.666261
0.769342
0.819459
0.815005
0.778938
0.81399
0.727716
0.642834
0.828037
0.688892
0.818984
0.770417
0.802476
0.808443
0.815784
0.656674
0.804972
0.774861
0.812422
0.814527
0.831989
0.806663
0.692796
0.757924
0.660426
0.800777
0.805698
0.814791
0.81765
0.812674
0.814369
0.812209
0.668623
0.734381
0.672213
0.705989
0.816349
0.810028
0.83472
0.810157
0.817089
0.695155
0.879085
0.817533
0.828106
0.580889
0.824888
0.814902
0.842245
0.846864
0.828063
0.832345
0.822308
0.55049
0.80632
0.817101
0.708764
0.818988
0.803977
0.814862
0.808673
0.815168
0.815154
0.770684
0.715351
0.800407
0.801661
0.581134
0.816453
0.86023
0.817639
0.675612
0.824601
0.815633
0.821682
0.838393
0.6909
0.503225
0.805251
0.841332
0.806524
0.805166
0.81663
0.802235
0.813081
0.812187
0.801431
0.804618
0.805096
0.815099
0.80599
0.806908
0.801173
0.837979
0.832458
0.854525
0.815462
0.809842
0.816846
0.815538
0.81486
0.813645
0.81781
0.835353
0.80915
0.813717
0.620366
0.83231
0.69623
0.869209
0.803967
0.834663
0.801687
0.787368
0.788229
0.739079
0.823228
0.811784
0.814199
0.815881
0.777657
0.810416
0.591114
0.806644
0.815545
0.815631
0.796614
0.814771
0.61604
0.784937
0.565947
0.822736
0.799336
0.776709
0.804162
0.816104
0.815075
0.815091
0.735634
0.810732
0.81469
0.812375
0.803976
0.804261
0.747455
0.77078
0.811041
0.804053
0.708382
0.605363
0.504647
0.842468
0.806521
0.780789
0.782667
0.825337
0.803811
0.804237
0.820242
0.780835
0.757049
0.818455
0.80939
0.81292
0.838551
0.805634
0.81455
0.808795
0.499805
0.803751
0.81467
0.77615
0.821502
0.816628
0.827522
0.618644
0.705097
0.58272
0.829714
0.817844
0.746834
0.812682
0.681321
0.81648
0.812142
0.814714
0.804596
0.812672
0.583883
0.692487
0.808333
0.815815
0.794487
0.803754
0.832553
0.801289
0.803846
0.655671
0.810011
0.814777
0.804939
0.814936
0.802903
0.625292
0.81704
0.815039
0.580139
0.709252
0.795736
0.830417
0.707076
0.804444
0.794666
0.814875
0.757063
0.689033
0.813224
0.796735
0.801392
0.767916
0.552399
0.822228
0.678076
0.751652
0.728728
0.804247
0.79968
0.814255
0.668773
0.769644
0.804443
0.817364
0.598416
0.801544
0.826827
0.809477
0.551914
0.806132
0.784808
0.717565
0.716463
0.800992
0.82129
0.815554
0.811092
0.71128
0.742477
0.646442
0.834086
0.84415
0.819062
0.789285
0.866203
0.707011
0.815858
0.769122
0.792172
0.796478
0.814786
0.804345
0.814363
0.787775
0.758491
0.821891
0.799208
0.843633
0.722454
0.792048
0.806017
0.726235
0.804711
0.816871
0.582905
0.802417
0.801623
0.80295
0.823273
0.766852
0.801091
0.72605
0.814889
0.809382
0.728727
0.814888
0.818447
0.830508
0.806332
0.789137
0.799995
0.806591
0.722831
0.815104
0.80355
0.684338
0.807832
0.781893
0.833454
0.822546
0.821107
0.840909
0.851282
0.709517
0.816194
0.797506
0.788485
0.622412
0.818865
0.806118
0.814939
0.778946
0.854649
0.834298
0.783232
0.845483
0.781432
0.80099
0.774152
0.814927
0.725171
0.640787
0.845564
0.668535
0.793554
0.841035
0.81508
0.677412
0.809803
0.754471
0.804522
0.799614
0.784136
0.804536
0.803419
0.803378
0.802469
0.786929
0.814746
0.783614
0.818568
0.808299
0.720078
0.78592
0.816022
0.815104
0.80607
0.571516
0.826497
0.815207
0.814671
0.714523
0.805614
0.802144
0.803422
0.818224
0.746184
0.818299
0.802944
0.806578
0.759076
0.814217
0.813407
0.807481
0.771285
0.809844
0.815403
0.808579
0.817715
0.810573
0.806506
0.824951
0.805007
0.790829
0.808739
0.814905
0.819058
0.781757
0.707215
0.81623
0.812983
0.803437
0.746317
0.789937
0.6585
0.803535
0.550158
0.803435
0.816841
0.776336
0.836247
0.554715
0.812011
0.741307
0.813277
0.544165
0.805909
0.830082
0.815795
0.820925
0.739195
0.842511
0.566243
0.825228
0.702738
0.802097
0.692356
0.674258
0.81514
0.81485
0.745705
0.803677
0.822161
0.617067
0.823712
0.770869
0.835243
0.814862
0.815887
0.815662
0.804145
0.839621
0.812224
0.804231
0.639372
0.803403
0.844975
0.80318
0.80383
0.769697
0.8072
0.814728
0.814892
0.799128
0.737121
0.812897
0.81784
0.608321
0.804633
0.618623
0.818004
0.557446
0.814793
0.773141
0.687908
0.731058
0.783607
0.718343
0.844984
0.814728
0.798857
0.804447
0.707025
0.802992
0.791541
0.802935
0.816878
0.804072
0.72818
0.708509
0.802582
0.774364
0.529323
0.813948
0.677817
0.795126
0.695754
0.826774
0.812123
0.827028
0.812032
0.839196
0.809997
0.596721
0.831084
0.809759
0.803577
0.817795
0.814785
0.815133
0.815387
0.827046
0.818698
0.626456
0.805141
0.801017
0.815481
0.695797
0.802774
0.825379
0.75895
0.692532
0.809497
0.699353
0.734963
0.811814
0.815319
0.672977
0.842927
0.769513
0.805789
0.798919
0.812621
0.845955
0.801826
0.556608
0.817286
0.691083
0.696416
0.77839
0.762178
0.772079
0.814931
0.803646
0.818378
0.814877
0.591871
0.788177
0.833934
0.814856
0.598798
0.729816
0.648157
0.818953
0.813092
0.694522
0.80439
0.81481
0.801666
0.83669
0.617696
0.841934
0.739412
0.814589
0.815125
0.684041
0.815072
0.715717
0.793772
0.710889
0.813674
0.787282
0.640871
0.727711
0.719707
0.834688
0.812115
0.821499
0.824109
0.803502
0.809365
0.804829
0.819548
0.803865
0.698601
0.804301
0.608872
0.779482
0.807675
0.804092
0.814904
0.82626
0.803427
0.725061
0.69228
0.67348
0.792934
0.818254
0.747737
0.619916
0.754733
0.813104
0.802325
0.762771
0.805167
0.824703
0.75573
0.575833
0.701965
0.800668
0.814907
0.86541
0.816724
0.814593
0.853045
0.801745
0.802529
0.816839
0.814945
0.807756
0.722796
0.809735
0.70266
0.863413
0.781671
0.815954
0.623539
0.799043
0.538972
0.58934
0.620288
0.810388
0.803819
0.811694
0.762217
0.803735
0.544087
0.785186
0.80518
0.739752
0.816691
0.804193
0.818168
0.844303
0.69175
0.8143
0.802367
0.812365
0.81755
0.81546
0.815039
0.757723
0.799576
0.799664
0.803484
0.799833
0.813214
0.848232
0.820776
0.728719
0.805191
0.662361
0.815747
0.814864
0.595384
0.769328
0.769372
0.548664
0.787114
0.803965
0.879163
0.800892
0.815459
0.759102
0.795333
0.799522
0.81084
0.784149
0.552246
0.698943
0.684853
0.782639
0.816862
0.803497
0.822822
0.791345
0.804262
0.815393
0.800612
0.853446
0.715538
0.814659
0.782282
0.542643
0.617207
0.815498
0.803861
0.806001
0.568907
0.797585
0.804048
0.663498
0.816212
0.793252
0.809306
0.81718
0.648253
0.722651
0.726649
0.81507
0.834419
0.638718
0.790951
0.710104
0.816094
0.82903
0.781078
0.776068
0.550825
0.8141
0.802607
0.726673
0.855492
0.806246
0.730824
0.742814
0.766732
0.81364
0.570609
0.797436
0.73828
0.800765
0.823964
0.714151
0.801691
0.814026
0.71964
0.81384
0.709993
0.818335
0.800625
0.759171
0.702697
0.811217
0.80059
0.815913
0.673947
0.805787
0.807347
0.814414
0.703531
0.8149
0.81033
0.833304
0.694067
0.817859
0.743705
0.814707
0.807686
0.843755
0.804011
0.821127
0.751061
0.817572
0.840428
0.834356
0.81837
0.84852
0.752758
0.85139
0.82901
0.805612
0.827269
0.806505
0.651213
0.780679
0.816397
0.750097
0.702858
0.801084
0.805993
0.696558
0.800036
0.548067
0.851351
0.708373
0.710268
0.816068
0.776496
0.808895
0.799699
0.808911
0.804245
0.814655
0.838147
0.736568
0.77467
0.597173
0.812878
0.778215
0.81263
0.80551
0.577405
0.803172
0.802718
0.810077
0.800685
0.819029
0.808693
0.69867
0.825156
0.851472
0.688833
0.747189
0.814887
0.803638
0.720796
0.815952
0.757861
0.797709
0.803373
0.806101
0.83881
0.673989
0.721302
0.801195
0.707138
0.773837
0.833537
0.541931
0.697307
0.800034
0.804649
0.803539
0.741572
0.824421
0.809371
0.803931
0.808775
0.815858
0.699602
0.661206
0.81026
0.81631
0.801102
0.876365
0.804056
0.81507
0.799536
0.812371
0.813801
0.809107
0.662813
0.815505
0.818902
0.803773
0.804584
0.801467
0.622753
0.812136
0.813176
0.815114
0.866788
0.816829
0.802249
0.514792
0.838064
0.705779
0.828328
0.807576
0.814712
0.82698
0.811959
0.814754
0.737631
0.560418
0.554021
0.814998
0.811561
0.547304
0.796547
0.816894
0.835228
0.519408
0.810436
0.815913
0.803797
0.809937
0.548731
0.815671
0.808904
0.568352
0.81493
0.817654
0.550464
0.810813
0.815241
0.777068
0.807864
0.812906
0.812397
0.800883
0.827793
0.544033
0.832268
0.816627
0.804407
0.746014
0.788253
0.814135
0.81036
0.804671
0.818098
0.801124
0.672627
0.808699
0.692484
0.814855
0.664723
0.749989
0.797601
0.721894
0.80371
0.586139
0.851092
0.814962
0.81491
0.801633
0.803395
0.803295
0.81456
0.81683
0.674532
0.725462
0.732407
0.817212
0.72926
0.671664
0.819314
0.786006
0.829653
0.814168
0.81025
0.735773
0.55148
0.799536
0.79259
0.516634
0.816342
0.815602
0.738388
0.806737
0.770956
0.618868
0.812357
0.815573
0.791027
0.615656
0.802951
0.784425
0.828308
0.815576
0.813276
0.812598
0.81545
0.70862
0.802043
0.818115
0.706917
0.499951
0.739448
0.799419
0.735942
0.815607
0.800654
0.806233
0.784017
0.868407
0.803656
0.802246
0.827639
0.860574
0.805005
0.817855
0.796913
0.818256
0.790369
0.74668
0.812781
0.804644
0.818502
0.803493
0.793389
0.84435
0.767713
0.815363
0.775636
0.805041
0.647171
0.522547
0.801651
0.802983
0.812363
0.798826
0.801656
0.814822
0.774313
0.806186
0.814861
0.784414
0.818925
0.777533
0.601938
0.805652
0.761275
0.778112
0.753636
0.764221
0.794939
0.78972
0.824035
0.788653
0.810021
0.803482
0.768076
0.817911
0.552725
0.734915
0.813137
0.816392
0.814123
0.804708
0.815309
0.812338
0.806401
0.823281
0.810287
0.784433
0.81888
0.803503
0.793042
0.796847
0.80568
0.593289
0.804026
0.793241
0.584473
0.814947
0.807867
0.806495
0.811397
0.707542
0.754074
0.823247
0.775423
0.8122
0.818651
0.716697
0.804902
0.826098
0.724461
0.800353
0.812106
0.780184
0.806987
0.839287
0.802795
0.81962
0.774803
0.805734
0.801936
0.815611
0.804185
0.800142
0.597824
0.817629
0.789494
0.807119
0.827609
0.703874
0.83045
0.821677
0.520412
0.807989
0.804831
0.804052
0.814837
0.826016
0.826064
0.805364
0.808295
0.816655
0.81419
0.803748
0.815089
0.806305
0.751389
0.718107
0.783404
0.816196
0.814491
0.778164
0.760344
0.814721
0.826329
0.811296
0.814937
0.705006
0.515385
0.747995
0.81982
0.808487
0.818577
0.845546
0.801818
0.723136
0.664131
0.80218
0.806494
0.701899
0.815326
0.683306
0.838396
0.732734
0.815283
0.895929
0.816368
0.802669
0.780371
0.811928
0.690817
0.815059
0.810695
0.792637
0.807998
0.77992
0.802522
0.810621
0.783509
0.803799
0.853384
0.778234
0.802419
0.559008
0.804488
0.697507
0.804443
0.795238
0.789344
0.785918
0.725243
0.804548
0.790591
0.845989
0.815859
0.815134
0.814546
0.896177
0.750152
0.80334
0.737343
0.803314
0.800773
0.805538
0.722373
0.80279
0.806338
0.653937
0.811008
0.751613
0.613368
0.847998
0.848798
0.753692
0.81168
0.795699
0.774787
0.738008
0.777926
0.787294
0.739178
0.804269
0.805676
0.727359
0.817721
0.805427
0.570442
0.814847
0.823341
0.815438
0.803846
0.616641
0.723658
0.806926
0.860421
0.586926
0.729603
0.808233
0.816822
0.798696
0.709381
0.720549
0.809607
0.815813
0.817428
0.83876
0.744802
0.757934
0.876679
0.807831
0.812091
0.796168
0.657772
0.634892
0.594833
0.665261
0.605005
0.767946
0.803199
0.804695
0.81485
0.810999
0.812116
0.86138
0.72486
0.825875
0.816406
0.819373
0.818969
0.816339
0.815578
0.814176
0.81485