# vtk DataFile Version 1.0
unstructured grid
ascii
DATASET UNSTRUCTURED_GRID
points 14760 float
-1 0 0
-1 1 0
2 0 0
2 1 0
0 0 0
1 0 0
-1 1 0.1
-1 0 0.1
0 0 0.1
1 0 0.1
2 0 0.1
2 1 0.1
-0.99 0 0
-0.98 0 0
-0.97 0 0
-0.96 0 0
-0.95 0 0
-0.94 0 0
-0.93 0 0
-0.92 0 0
-0.91 0 0
-0.9 0 0
-0.89 0 0
-0.88 0 0
-0.87 0 0
-0.86 0 0
-0.85 0 0
-0.84 0 0
-0.83 0 0
-0.82 0 0
-0.81 0 0
-0.8 0 0
-0.79 0 0
-0.78 0 0
-0.77 0 0
-0.76 0 0
-0.75 0 0
-0.74 0 0
-0.73 0 0
-0.72 0 0
-0.71 0 0
-0.7 0 0
-0.69 0 0
-0.68 0 0
-0.67 0 0
-0.66 0 0
-0.65 0 0
-0.64 0 0
-0.63 0 0
-0.62 0 0
-0.61 0 0
-0.6 0 0
-0.59 0 0
-0.58 0 0
-0.57 0 0
-0.56 0 0
-0.55 0 0
-0.54 0 0
-0.53 0 0
-0.52 0 0
-0.51 0 0
-0.5 0 0
-0.49 0 0
-0.48 0 0
-0.47 0 0
-0.46 0 0
-0.45 0 0
-0.44 0 0
-0.43 0 0
-0.42 0 0
-0.41 0 0
-0.4 0 0
-0.39 0 0
-0.38 0 0
-0.37 0 0
-0.36 0 0
-0.35 0 0
-0.34 0 0
-0.33 0 0
-0.32 0 0
-0.31 0 0
-0.3 0 0
-0.29 0 0
-0.28 0 0
-0.27 0 0
-0.26 0 0
-0.25 0 0
-0.24 0 0
-0.23 0 0
-0.22 0 0
-0.21 0 0
-0.2 0 0
-0.19 0 0
-0.18 0 0
-0.17 0 0
-0.16 0 0
-0.15 0 0
-0.14 0 0
-0.13 0 0
-0.12 0 0
-0.11 0 0
-0.1 0 0
-0.09 0 0
-0.08 0 0
-0.07 0 0
-0.06 0 0
-0.05 0 0
-0.04 0 0
-0.03 0 0
-0.02 0 0
-0.01 0 0
1.01 0 0
1.02 0 0
1.03 0 0
1.04 0 0
1.05 0 0
1.06 0 0
1.07 0 0
1.08 0 0
1.09 0 0
1.1 0 0
1.11 0 0
1.12 0 0
1.13 0 0
1.14 0 0
1.15 0 0
1.16 0 0
1.17 0 0
1.18 0 0
1.19 0 0
1.2 0 0
1.21 0 0
1.22 0 0
1.23 0 0
1.24 0 0
1.25 0 0
1.26 0 0
1.27 0 0
1.28 0 0
1.29 0 0
1.3 0 0
1.31 0 0
1.32 0 0
1.33 0 0
1.34 0 0
1.35 0 0
1.36 0 0
1.37 0 0
1.38 0 0
1.39 0 0
1.4 0 0
1.41 0 0
1.42 0 0
1.43 0 0
1.44 0 0
1.45 0 0
1.46 0 0
1.47 0 0
1.48 0 0
1.49 0 0
1.5 0 0
1.51 0 0
1.52 0 0
1.53 0 0
1.54 0 0
1.55 0 0
1.56 0 0
1.57 0 0
1.58 0 0
1.59 0 0
1.6 0 0
1.61 0 0
1.62 0 0
1.63 0 0
1.64 0 0
1.65 0 0
1.66 0 0
1.67 0 0
1.68 0 0
1.69 0 0
1.7 0 0
1.71 0 0
1.72 0 0
1.73 0 0
1.74 0 0
1.75 0 0
1.76 0 0
1.77 0 0
1.78 0 0
1.79 0 0
1.8 0 0
1.81 0 0
1.82 0 0
1.83 0 0
1.84 0 0
1.85 0 0
1.86 0 0
1.87 0 0
1.88 0 0
1.89 0 0
1.9 0 0
1.91 0 0
1.92 0 0
1.93 0 0
1.94 0 0
1.95 0 0
1.96 0 0
1.97 0 0
1.98 0 0
1.99 0 0
2 0.0100088 0
2 0.0204183 0
2 0.0312446 0
2 0.0425043 0
2 0.0542147 0
2 0.066394 0
2 0.079061 0
2 0.092235 0
2 0.105936 0
2 0.120186 0
2 0.135007 0
2 0.150421 0
2 0.166452 0
2 0.183124 0
2 0.200465 0
2 0.218499 0
2 0.237256 0
2 0.256763 0
2 0.277051 0
2 0.298152 0
2 0.320097 0
2 0.342921 0
2 0.366659 0
2 0.391347 0
2 0.417024 0
2 0.443728 0
2 0.471502 0
2 0.500387 0
2 0.530429 0
2 0.561674 0
2 0.594169 0
2 0.627966 0
2 0.663115 0
2 0.699672 0
2 0.737692 0
2 0.777235 0
2 0.818361 0
2 0.861133 0
2 0.905617 0
2 0.951882 0
1.95 1 0
1.9 1 0
1.85 1 0
1.8 1 0
1.75 1 0
1.7 1 0
1.65 1 0
1.6 1 0
1.55 1 0
1.5 1 0
1.45 1 0
1.4 1 0
1.35 1 0
1.3 1 0
1.25 1 0
1.2 1 0
1.15 1 0
1.1 1 0
1.05 1 0
1 1 0
0.95 1 0
0.9 1 0
0.85 1 0
0.8 1 0
0.75 1 0
0.7 1 0
0.65 1 0
0.6 1 0
0.55 1 0
0.5 1 0
0.45 1 0
0.4 1 0
0.35 1 0
0.3 1 0
0.25 1 0
0.2 1 0
0.15 1 0
0.1 1 0
0.05 1 0
3.69793e-12 1 0
-0.05 1 0
-0.1 1 0
-0.15 1 0
-0.2 1 0
-0.25 1 0
-0.3 1 0
-0.35 1 0
-0.4 1 0
-0.45 1 0
-0.5 1 0
-0.55 1 0
-0.6 1 0
-0.65 1 0
-0.7 1 0
-0.75 1 0
-0.8 1 0
-0.85 1 0
-0.9 1 0
-0.95 1 0
-1 0.951882 0
-1 0.905617 0
-1 0.861133 0
-1 0.818361 0
-1 0.777235 0
-1 0.737692 0
-1 0.699672 0
-1 0.663115 0
-1 0.627966 0
-1 0.594169 0
-1 0.561674 0
-1 0.530429 0
-1 0.500387 0
-1 0.471502 0
-1 0.443728 0
-1 0.417024 0
-1 0.391347 0
-1 0.366659 0
-1 0.342921 0
-1 0.320097 0
-1 0.298152 0
-1 0.277051 0
-1 0.256763 0
-1 0.237256 0
-1 0.218499 0
-1 0.200465 0
-1 0.183124 0
-1 0.166452 0
-1 0.150421 0
-1 0.135007 0
-1 0.120186 0
-1 0.105936 0
-1 0.092235 0
-1 0.079061 0
-1 0.066394 0
-1 0.0542147 0
-1 0.0425043 0
-1 0.0312446 0
-1 0.0204183 0
-1 0.0100088 0
0.00921362 0.00379763 0
0.0184561 0.00752451 0
0.0277268 0.0111804 0
0.0370253 0.0147652 0
0.0463511 0.0182786 0
0.0557034 0.0217203 0
0.0650819 0.0250903 0
0.074486 0.0283883 0
0.083915 0.0316141 0
0.0933685 0.0347675 0
0.102846 0.0378484 0
0.112347 0.0408565 0
0.12187 0.0437917 0
0.131416 0.0466538 0
0.140983 0.0494427 0
0.150572 0.0521581 0
0.160181 0.0547999 0
0.16981 0.0573681 0
0.179458 0.0598623 0
0.189125 0.0622825 0
0.198811 0.0646285 0
0.208514 0.0669001 0
0.218234 0.0690974 0
0.227971 0.07122 0
0.237724 0.073268 0
0.247493 0.0752411 0
0.257276 0.0771393 0
0.267073 0.0789625 0
0.276884 0.0807105 0
0.286708 0.0823832 0
0.296545 0.0839806 0
0.306394 0.0855025 0
0.316254 0.0869488 0
0.326125 0.0883196 0
0.336006 0.0896146 0
0.345896 0.0908339 0
0.355796 0.0919773 0
0.365704 0.0930447 0
0.375621 0.0940362 0
0.385544 0.0949517 0
0.395474 0.095791 0
0.40541 0.0965542 0
0.415352 0.0972412 0
0.425299 0.097852 0
0.43525 0.0983865 0
0.445205 0.0988447 0
0.455164 0.0992266 0
0.465125 0.0995321 0
0.475088 0.0997613 0
0.485052 0.0999141 0
0.495017 0.0999904 0
0.504983 0.0999904 0
0.514948 0.0999141 0
0.524912 0.0997613 0
0.534875 0.0995321 0
0.544836 0.0992266 0
0.554795 0.0988447 0
0.56475 0.0983865 0
0.574701 0.097852 0
0.584648 0.0972412 0
0.59459 0.0965542 0
0.604526 0.095791 0
0.614456 0.0949517 0
0.624379 0.0940362 0
0.634296 0.0930447 0
0.644204 0.0919773 0
0.654104 0.0908339 0
0.663994 0.0896146 0
0.673875 0.0883196 0
0.683746 0.0869488 0
0.693606 0.0855025 0
0.703455 0.0839806 0
0.713292 0.0823832 0
0.723116 0.0807105 0
0.732927 0.0789625 0
0.742724 0.0771393 0
0.752508 0.0752411 0
0.762276 0.073268 0
0.772029 0.07122 0
0.781766 0.0690974 0
0.791486 0.0669001 0
0.801189 0.0646285 0
0.810875 0.0622825 0
0.820542 0.0598623 0
0.83019 0.0573681 0
0.839819 0.0547999 0
0.849428 0.0521581 0
0.859017 0.0494427 0
0.868584 0.0466538 0
0.87813 0.0437917 0
0.887653 0.0408565 0
0.897154 0.0378484 0
0.906631 0.0347675 0
0.916085 0.0316141 0
0.925514 0.0283883 0
0.934918 0.0250903 0
0.944297 0.0217203 0
0.953649 0.0182786 0
0.962975 0.0147652 0
0.972273 0.0111804 0
0.981544 0.00752451 0
0.990786 0.00379763 0
-1 0.951882 0.1
-1 0.905617 0.1
-1 0.861133 0.1
-1 0.818361 0.1
-1 0.777235 0.1
-1 0.737692 0.1
-1 0.699672 0.1
-1 0.663115 0.1
-1 0.627966 0.1
-1 0.594169 0.1
-1 0.561674 0.1
-1 0.530429 0.1
-1 0.500387 0.1
-1 0.471502 0.1
-1 0.443728 0.1
-1 0.417024 0.1
-1 0.391347 0.1
-1 0.366659 0.1
-1 0.342921 0.1
-1 0.320097 0.1
-1 0.298152 0.1
-1 0.277051 0.1
-1 0.256763 0.1
-1 0.237256 0.1
-1 0.218499 0.1
-1 0.200465 0.1
-1 0.183124 0.1
-1 0.166452 0.1
-1 0.150421 0.1
-1 0.135007 0.1
-1 0.120186 0.1
-1 0.105936 0.1
-1 0.092235 0.1
-1 0.079061 0.1
-1 0.066394 0.1
-1 0.0542147 0.1
-1 0.0425043 0.1
-1 0.0312446 0.1
-1 0.0204183 0.1
-1 0.0100088 0.1
-0.99 0 0.1
-0.98 0 0.1
-0.97 0 0.1
-0.96 0 0.1
-0.95 0 0.1
-0.94 0 0.1
-0.93 0 0.1
-0.92 0 0.1
-0.91 0 0.1
-0.9 0 0.1
-0.89 0 0.1
-0.88 0 0.1
-0.87 0 0.1
-0.86 0 0.1
-0.85 0 0.1
-0.84 0 0.1
-0.83 0 0.1
-0.82 0 0.1
-0.81 0 0.1
-0.8 0 0.1
-0.79 0 0.1
-0.78 0 0.1
-0.77 0 0.1
-0.76 0 0.1
-0.75 0 0.1
-0.74 0 0.1
-0.73 0 0.1
-0.72 0 0.1
-0.71 0 0.1
-0.7 0 0.1
-0.69 0 0.1
-0.68 0 0.1
-0.67 0 0.1
-0.66 0 0.1
-0.65 0 0.1
-0.64 0 0.1
-0.63 0 0.1
-0.62 0 0.1
-0.61 0 0.1
-0.6 0 0.1
-0.59 0 0.1
-0.58 0 0.1
-0.57 0 0.1
-0.56 0 0.1
-0.55 0 0.1
-0.54 0 0.1
-0.53 0 0.1
-0.52 0 0.1
-0.51 0 0.1
-0.5 0 0.1
-0.49 0 0.1
-0.48 0 0.1
-0.47 0 0.1
-0.46 0 0.1
-0.45 0 0.1
-0.44 0 0.1
-0.43 0 0.1
-0.42 0 0.1
-0.41 0 0.1
-0.4 0 0.1
-0.39 0 0.1
-0.38 0 0.1
-0.37 0 0.1
-0.36 0 0.1
-0.35 0 0.1
-0.34 0 0.1
-0.33 0 0.1
-0.32 0 0.1
-0.31 0 0.1
-0.3 0 0.1
-0.29 0 0.1
-0.28 0 0.1
-0.27 0 0.1
-0.26 0 0.1
-0.25 0 0.1
-0.24 0 0.1
-0.23 0 0.1
-0.22 0 0.1
-0.21 0 0.1
-0.2 0 0.1
-0.19 0 0.1
-0.18 0 0.1
-0.17 0 0.1
-0.16 0 0.1
-0.15 0 0.1
-0.14 0 0.1
-0.13 0 0.1
-0.12 0 0.1
-0.11 0 0.1
-0.1 0 0.1
-0.09 0 0.1
-0.08 0 0.1
-0.07 0 0.1
-0.06 0 0.1
-0.05 0 0.1
-0.04 0 0.1
-0.03 0 0.1
-0.02 0 0.1
-0.01 0 0.1
0.00921362 0.00379763 0.1
0.0184561 0.00752451 0.1
0.0277268 0.0111804 0.1
0.0370253 0.0147652 0.1
0.0463511 0.0182786 0.1
0.0557034 0.0217203 0.1
0.0650819 0.0250903 0.1
0.074486 0.0283883 0.1
0.083915 0.0316141 0.1
0.0933685 0.0347675 0.1
0.102846 0.0378484 0.1
0.112347 0.0408565 0.1
0.12187 0.0437917 0.1
0.131416 0.0466538 0.1
0.140983 0.0494427 0.1
0.150572 0.0521581 0.1
0.160181 0.0547999 0.1
0.16981 0.0573681 0.1
0.179458 0.0598623 0.1
0.189125 0.0622825 0.1
0.198811 0.0646285 0.1
0.208514 0.0669001 0.1
0.218234 0.0690974 0.1
0.227971 0.07122 0.1
0.237724 0.073268 0.1
0.247493 0.0752411 0.1
0.257276 0.0771393 0.1
0.267073 0.0789625 0.1
0.276884 0.0807105 0.1
0.286708 0.0823832 0.1
0.296545 0.0839806 0.1
0.306394 0.0855025 0.1
0.316254 0.0869488 0.1
0.326125 0.0883196 0.1
0.336006 0.0896146 0.1
0.345896 0.0908339 0.1
0.355796 0.0919773 0.1
0.365704 0.0930447 0.1
0.375621 0.0940362 0.1
0.385544 0.0949517 0.1
0.395474 0.095791 0.1
0.40541 0.0965542 0.1
0.415352 0.0972412 0.1
0.425299 0.097852 0.1
0.43525 0.0983865 0.1
0.445205 0.0988447 0.1
0.455164 0.0992266 0.1
0.465125 0.0995321 0.1
0.475088 0.0997613 0.1
0.485052 0.0999141 0.1
0.495017 0.0999904 0.1
0.504983 0.0999904 0.1
0.514948 0.0999141 0.1
0.524912 0.0997613 0.1
0.534875 0.0995321 0.1
0.544836 0.0992266 0.1
0.554795 0.0988447 0.1
0.56475 0.0983865 0.1
0.574701 0.097852 0.1
0.584648 0.0972412 0.1
0.59459 0.0965542 0.1
0.604526 0.095791 0.1
0.614456 0.0949517 0.1
0.624379 0.0940362 0.1
0.634296 0.0930447 0.1
0.644204 0.0919773 0.1
0.654104 0.0908339 0.1
0.663994 0.0896146 0.1
0.673875 0.0883196 0.1
0.683746 0.0869488 0.1
0.693606 0.0855025 0.1
0.703455 0.0839806 0.1
0.713292 0.0823832 0.1
0.723116 0.0807105 0.1
0.732927 0.0789625 0.1
0.742724 0.0771393 0.1
0.752508 0.0752411 0.1
0.762276 0.073268 0.1
0.772029 0.07122 0.1
0.781766 0.0690974 0.1
0.791486 0.0669001 0.1
0.801189 0.0646285 0.1
0.810875 0.0622825 0.1
0.820542 0.0598623 0.1
0.83019 0.0573681 0.1
0.839819 0.0547999 0.1
0.849428 0.0521581 0.1
0.859017 0.0494427 0.1
0.868584 0.0466538 0.1
0.87813 0.0437917 0.1
0.887653 0.0408565 0.1
0.897154 0.0378484 0.1
0.906631 0.0347675 0.1
0.916085 0.0316141 0.1
0.925514 0.0283883 0.1
0.934918 0.0250903 0.1
0.944297 0.0217203 0.1
0.953649 0.0182786 0.1
0.962975 0.0147652 0.1
0.972273 0.0111804 0.1
0.981544 0.00752451 0.1
0.990786 0.00379763 0.1
1.01 0 0.1
1.02 0 0.1
1.03 0 0.1
[...]
CELL_DATA 14313
SCALARS rho float
LOOKUP_TABLE default
0.781783
0.824555
0.806079
0.539402
0.767039
0.812466
0.81307
0.812965
0.811163
0.815385
0.8127
0.799029
0.797614
0.521139
0.813413
0.832228
0.809016
0.807877
0.810607
0.805538
0.811365
0.814169
0.813007
0.766784
0.81262
0.814888
0.742934
0.708911
0.824063
0.824703
0.812534
0.794653
0.800069
0.812591
0.80483
0.811197
0.680863
0.809148
0.81218
0.802613
0.75312
0.811029
0.54358
0.702992
0.818056
0.835951
0.811427
0.777765
0.80481
0.851959
0.676565
0.654106
0.59222
0.811109
0.82006
0.782987
0.818042
0.814935
0.810949
0.812893
0.812566
0.818831
0.79463
0.839429
0.810989
0.813834
0.853731
0.784209
0.840843
0.813405
0.798467
0.831793
0.490782
0.837488
0.72748
0.807414
0.825276
0.747609
0.697126
0.812014
0.593025
0.825054
0.83337
0.803567
0.806026
0.819699
0.812446
0.804615
0.826828
0.807166
0.780238
0.526411
0.807541
0.7985
0.727425
0.803904
0.815126
0.809529
0.803427
0.492325
0.807444
0.810216
0.813039
0.814534
0.74901
0.8095
0.802911
0.700219
0.834752
0.810521
0.814025
0.825236
0.812584
0.81973
0.804268
0.827744
0.820209
0.836505
0.779084
0.799342
0.812138
0.809589
0.859595
0.722268
0.844188
0.75416
0.79003
0.804615
0.815139
0.843706
0.81
0.812565
0.86089
0.812839
0.823638
0.782951
0.80729
0.792467
0.818092
0.817759
0.81307
0.817163
0.803411
0.803489
0.796751
0.839325
0.806066
0.76119
0.795904
0.817786
0.797773
0.803609
0.813009
0.70991
0.821552
0.803794
0.723678
0.821489
0.812624
0.812077
0.818848
0.808919
0.652362
0.758051
0.823483
0.825041
0.715251
0.813181
0.828356
0.816057
0.689692
0.816407
0.713668
0.788393
0.809407
0.826758
0.808634
0.815754
0.82134
0.742608
0.81198
0.810068
0.773936
0.771793
0.790745
0.811386
0.813399
0.7972
0.499176
0.787641
0.758248
0.74377
0.770517
0.715332
0.812866
0.815384
0.807502
0.803476
0.806611
0.817265
0.760638
0.803139
0.828829
0.815348
0.833749
0.803405
0.81675
0.814402
0.812577
0.834816
0.804573
0.811576
0.796342
0.701578
0.814559
0.821188
0.810162
0.807747
0.834811
0.80334
0.802844
0.819441
0.806523
0.855547
0.809991
0.80332
0.818378
0.802603
0.812965
0.75778
0.641082
0.815275
0.698175
0.827212
0.802525
0.722782
0.812498
0.814528
0.815335
0.826926
0.791918
0.708948
0.748508
0.598404
0.815506
0.724389
0.799847
0.807285
0.837985
0.815716
0.576609
0.804165
0.729632
0.837629
0.801772
0.695702
0.811766
0.827387
0.8151
0.559331
0.813425
0.801717
0.799397
0.806465
0.788793
0.774319
0.815911
0.815721
0.532519
0.815135
0.814291
0.772539
0.802209
0.812682
0.780818
0.817689
0.783584
0.710275
0.803017
0.80594
0.569078
0.545181
0.757022
0.808487
0.820866
0.790322
0.812333
0.815323
0.776415
0.806153
0.803588
0.817158
0.829819
0.793609
0.808429
0.812183
0.634732
0.819186
0.702225
0.797824
0.793471
0.777895
0.835908
0.809525
0.79724
0.67775
0.669633
0.804006
0.806275
0.819868
0.804338
0.798946
0.652971
0.815613
0.822428
0.818332
0.812703
0.81341
0.799986
0.791314
0.814704
0.579739
0.808521
0.812846
0.814937
0.813151
0.765867
0.821907
0.801779
0.81474
0.813591
0.754086
0.753221
0.803433
0.803511
0.623571
0.813048
0.812542
0.807697
0.812364
0.803711
0.801061
0.729041
0.71267
0.814909
0.748883
0.758756
0.818985
0.83778
0.814715
0.802775
0.80862
0.812877
0.803571
0.81752
0.783124
0.817453
0.811984
0.811334
0.795509
0.811004
0.792617
0.812494
0.590827
0.800072
0.8009
0.812553
0.813779
0.768121
0.801773
0.812828
0.813037
0.818489
0.770542
0.818525
0.808761
0.753406
0.762022
0.813044
0.806296
0.829543
0.825122
0.823519
0.804855
0.597511
0.77954
0.602287
0.803506
0.803119
0.801294
0.814787
0.874194
0.528151
0.595728
0.838597
0.872158
0.812385
0.690864
0.802635
0.718235
0.807312
0.816307
0.707646
0.65188
0.751776
0.813468
0.48379
0.873725
0.824772
0.798992
0.808989
0.482629
0.740872
0.782176
0.818062
0.805242
0.801164
0.830589
0.812937
0.706727
0.686152
0.801814
0.806304
0.809965
0.812249
0.80898
0.812576
0.736392
0.791419
0.797365
0.802736
0.764638
0.818135
0.808069
0.813443
0.812283
0.755971
0.805708
0.804151
0.793738
0.812779
0.816125
0.807396
0.658602
0.787743
0.817882
0.813004
0.81275
0.807546
0.813258
0.804741
0.821544
0.821907
0.645129
0.855387
0.744565
0.821046
0.805393
0.746608
0.82478
0.800991
0.825851
0.550129
0.800047
0.680382
0.81265
0.809432
0.52527
0.800554
0.804795
0.798178
0.802291
0.801179
0.772752
0.812509
0.594706
0.805959
0.80629
0.799856
0.818765
0.76548
0.812645
0.809971
0.798471
0.816711
0.7971
0.802975
0.812956
0.635111
0.769785
0.734808
0.493157
0.825127
0.569921
0.802764
0.819274
0.856848
0.70528
0.740813
0.812776
0.806296
0.801498
0.794201
0.766589
0.811493
0.813017
0.797443
0.813686
0.816857
0.47943
0.812958
0.813822
0.806462
0.810767
0.606176
0.815668
0.821957
0.708058
0.789051
0.813739
0.801149
0.828795
0.831598
0.804161
0.742507
0.476914
0.8144
0.572536
0.799372
0.803366
0.774693
0.812686
0.751132
0.811946
0.806784
0.803401
0.488979
0.814784
0.827803
0.830934
0.815103
0.80356
0.803285
0.812994
0.758824
0.847596
0.83776
0.711508
0.799245
0.654302
0.778401
0.66859
0.816505
0.836772
0.799517
0.639965
0.766485
0.814221
0.824842
0.832886
0.813978
0.674203
0.539643
0.805194
0.816393
0.801898
0.816481
0.80513
0.772015
0.852102
0.815716
0.804117
0.817225
0.799156
0.744062
0.798565
0.811998
0.598059
0.689873
0.803446
0.81142
0.804923
0.576456
0.812184
0.605901
0.81302
0.768042
0.81728
0.816787
0.753594
0.807036
0.792846
0.805245
0.837651
0.837876
0.831572
0.804882
0.816628
0.581329
0.813047
0.857026
0.825372
0.829647
0.804309
0.82121
0.799871
0.840068
0.808985
0.814596
0.674671
0.633741
0.836074
0.81393
0.840915
0.717239
0.801801
0.763987
0.797815
0.809811
0.793596
0.807542
0.813661
0.823118
0.828474
0.830441
0.805542
0.750317
0.804589
0.731048
0.793734
0.821897
0.80136
0.815283
0.758944
0.805195
0.804947
0.847249
0.809605
0.803433
0.806576
0.83464
0.831663
0.803641
0.856547
0.796295
0.820504
0.664766
0.803225
0.800381
0.799387
0.832076
0.609858
0.806462
0.80566
0.659922
0.815105
0.829704
0.814394
0.803419
0.806284
0.802642
0.816562
0.79946
0.719412
0.515814
0.813963
0.806145
0.802191
0.804791
0.803451
0.803809
0.811325
0.798657
0.814278
0.584647
0.813369
0.809551
0.812516
0.84262
0.814272
0.834676
0.812077
0.798251
0.813387
0.683154
0.803849
0.851074
0.813418
0.793209
0.814723
0.634941
0.805727
0.572182
0.665918
0.675493
0.809694
0.816001
0.812601
0.499962
0.695198
0.803543
0.831146
0.747889
0.832225
0.805254
0.80531
0.797239
0.699257
0.752132
0.549712
0.802961
0.812362
0.804878
0.821198
0.670675
0.64883
0.855003
0.802104
0.814575
0.730716
0.814113
0.528481
0.821266
0.70523
0.814392
0.817971
0.801927
0.802474
0.825577
0.795251
0.803736
0.804387
0.632373
0.806786
0.655032
0.799412
0.798797
0.814286
0.815542
0.729747
0.815875
0.755565
0.80324
0.720422
0.805581
0.745735
0.6723
0.824949
0.813026
0.799687
0.727335
0.811928
0.659388
0.811463
0.803036
0.727252
0.826263
0.816844
0.640544
0.696758
0.82619
0.803714
0.726583
0.834094
0.835074
0.836458
0.812442
0.549949
0.751585
0.821315
0.820761
0.527359
0.640979
0.816173
0.813081
0.723676
0.778754
0.812722
0.807526
0.758748
0.812797
0.814073
0.803616
0.730304
0.802375
0.797423
0.812587
0.578675
0.805679
0.822219
0.575629
0.818615
0.846102
0.812702
0.677375
0.812423
0.812233
0.812522
0.801256
0.819187
0.803434
0.806822
0.804956
0.803358
0.814065
0.494937
0.810383
0.810168
0.694319
0.605347
0.786394
0.798911
0.812755
0.75331
0.573992
0.812085
0.78403
0.812732
0.82193
0.81406
0.825501
0.748843
0.593443
0.81222
0.839591
0.812698
0.707007
0.803937
0.727999
0.813713
0.811627
0.812609
0.817842
0.801411
0.81366
0.808537
0.757549
0.81671
0.813245
0.752433
0.792134
0.712364
0.564358
0.734701
0.782093
0.816292
0.811979
0.811274
0.811137
0.803345
0.795856
0.808196
0.705194
0.753343
0.812259
0.80352
0.804947
0.818585
0.606366
0.814128
0.803975
0.843799
0.808438
0.638491
0.793913
0.803963
0.842705
0.693165
0.56413
0.578474
0.636212
0.818065
0.804701
0.562874
0.588875
0.820408
0.812838
0.889402
0.804908
0.829721
0.813054
0.769484
0.811416
0.813193
0.812748
0.811255
0.812703
0.798622
0.812714
0.647106
0.816224
0.80369
0.810132
0.756472
0.817644
0.611909
0.856457
0.804001
0.827365
0.812702
0.808135
0.747763
0.82285
0.812482
0.837714
0.81248
0.81309
0.643848
0.82712
0.810839
0.813
0.836857
0.822995
0.555497
0.797063
0.803379
0.811478
0.81718
0.804012
0.800625
0.815734
0.765705
0.805535
0.816364
0.863633
0.831512
0.589773
0.796526
0.75471
0.814581
0.762131
0.81984
0.804975
0.806522
0.812876
0.789518
0.806061
0.815671
0.822178
0.78761
0.672417
0.735014
0.700655
0.814646
0.836606
0.83862
0.734722
0.80939
0.753866
0.611521
0.812711
0.799995
0.812486
0.803637
0.633334
0.802378
0.776911
0.736542
0.811441
0.744522
0.808184
0.816916
0.859964
0.809834
0.807279
0.740515
0.813111
0.776297
0.839669
0.883878
0.797596
0.522658
0.800289
0.609458
0.769824
0.658175
0.799306
0.498222
0.815522
0.85056
0.80606
0.811304
0.820147
0.803387
0.803282
0.697694
0.82353
0.812569
0.804241
0.807111
0.79267
0.803628
0.807266
0.6309
0.817024
0.802601
0.845927
0.80855
0.804565
0.802045
0.813516
0.813632
0.808087
0.803586
0.787993
0.812807
0.795652
0.802384
0.813833
0.772364
0.568718
0.813269
0.818622
0.804181
0.72381
0.801722
0.808165
0.803516
0.700494
0.874158
0.812305
0.817172
0.812714
0.848629
0.778605
0.812769
0.788083
0.816304
0.822461
0.664131
0.812802
0.729263
0.819244
0.720287
0.80004
0.752035
0.803056
0.649559
0.809834
0.734271
0.479887
0.820491
0.662729
0.769123
0.817696
0.812939
0.777017
0.811894
0.72078
0.639075
0.826535
0.706739
0.817189
0.767973
0.801866
0.808055
0.813831
0.653141
0.804497
0.774838
0.810262
0.812609
0.829661
0.806247
0.688601
0.75595
0.653234
0.798743
0.803557
0.812631
0.815878
0.812104
0.812206
0.810045
0.664494
0.731907
0.500768
0.698476
0.814431
0.808695
0.833309
0.809609
0.815215
0.706858
0.875069
0.815677
0.82657
0.573445
0.823282
0.812811
0.840974
0.845781
0.826831
0.830743
0.820617
0.542482
0.805873
0.815369
0.714538
0.817227
0.801856
0.812754
0.808136
0.813178
0.813215
0.767887
0.719815
0.798596
0.800747
0.573638
0.814547
0.859227
0.815805
0.662561
0.823141
0.813679
0.819973
0.83584
0.701569
0.489687
0.80495
0.840121
0.806179
0.804269
0.814737
0.801723
0.812582
0.810128
0.800416
0.804343
0.804785
0.813068
0.805666
0.806342
0.799148
0.836579
0.831025
0.853446
0.81347
0.807924
0.814974
0.813553
0.812724
0.811614
0.816039
0.83422
0.808737
0.811694
0.604667
0.830873
0.707254
0.868347
0.803714
0.83352
0.799583
0.786375
0.786212
0.739793
0.821801
0.811139
0.812086
0.813933
0.776245
0.808434
0.585657
0.80621
0.813562
0.813692
0.795896
0.812685
0.612075
0.783817
0.55982
0.821161
0.797489
0.774965
0.802546
0.814201
0.813032
0.813059
0.737228
0.808801
0.812563
0.810982
0.803736
0.803924
0.747073
0.768
0.809818
0.803807
0.699134
0.599397
0.492657
0.841293
0.806179
0.779024
0.781539
0.824523
0.803635
0.804033
0.818489
0.779595
0.756997
0.816638
0.808068
0.811692
0.837447
0.805021
0.812395
0.808388
0.48662
0.803526
0.812538
0.774206
0.819836
0.814732
0.825974
0.603282
0.709612
0.574962
0.828525
0.816069
0.744017
0.812035
0.67768
0.814298
0.811086
0.812552
0.803564
0.812053
0.578321
0.687621
0.806578
0.813857
0.793879
0.801809
0.831314
0.799271
0.803241
0.645619
0.808234
0.812614
0.804462
0.812872
0.802782
0.618655
0.81484
0.812983
0.574002
0.700005
0.79367
0.828863
0.699567
0.804107
0.793877
0.812767
0.756666
0.68578
0.811082
0.796095
0.799927
0.766707
0.542967
0.820635
0.674442
0.748587
0.730864
0.804041
0.797913
0.812106
0.661878
0.768041
0.804086
0.8155
0.593792
0.799482
0.826022
0.807663
0.541686
0.805727
0.783734
0.70961
0.708381
0.80054
0.819569
0.813573
0.80919
0.702301
0.740217
0.642466
0.832662
0.843112
0.817341
0.788422
0.865382
0.699057
0.813904
0.767291
0.790562
0.795748
0.812627
0.804074
0.812235
0.78724
0.755992
0.820189
0.797345
0.84241
0.719973
0.79154
0.805641
0.723863
0.803689
0.814999
0.577378
0.80206
0.799522
0.802834
0.821611
0.764857
0.800384
0.723324
0.81278
0.808965
0.725924
0.81278
0.816678
0.829018
0.805765
0.787516
0.798268
0.805884
0.725722
0.81306
0.801825
0.678954
0.807142
0.780645
0.832187
0.821197
0.819432
0.83961
0.849156
0.701423
0.814267
0.795925
0.787574
0.618527
0.817323
0.804188
0.812853
0.776725
0.853675
0.833079
0.782132
0.842753
0.780103
0.800725
0.77246
0.812843
0.722409
0.636819
0.844452
0.662536
0.792983
0.83996
0.81304
0.672443
0.809374
0.752421
0.804126
0.799149
0.781914
0.804251
0.80172
0.802935
0.802032
0.785912
0.812654
0.781862
0.816756
0.807665
0.71425
0.784265
0.815376
0.813062
0.805629
0.565559
0.825471
0.813365
0.812644
0.70605
0.804971
0.801427
0.801945
0.816398
0.746322
0.816478
0.801068
0.804978
0.756016
0.812119
0.812908
0.806399
0.769525
0.808517
0.813512
0.808177
0.8162
0.808802
0.806176
0.823345
0.804701
0.789166
0.806791
0.81282
0.81839
0.779365
0.704307
0.814317
0.812371
0.801328
0.743367
0.789065
0.655006
0.803427
0.54225
0.803242
0.814952
0.775315
0.834914
0.520234
0.810043
0.739034
0.811135
0.53626
0.804844
0.828543
0.813872
0.819193
0.735436
0.841239
0.556154
0.823864
0.704002
0.800192
0.486743
0.670784
0.813148
0.812714
0.742562
0.801559
0.821206
0.613079
0.82233
0.770843
0.833841
0.812721
0.814681
0.813709
0.803907
0.837682
0.811141
0.803874
0.480487
0.803192
0.843773
0.802512
0.801885
0.768072
0.805981
0.812636
0.812794
0.797214
0.734893
0.81098
0.816006
0.6041
0.804295
0.549104
0.816169
0.542847
0.812657
0.770957
0.683644
0.732997
0.783206
0.714152
0.842247
0.813974
0.79728
0.804106
0.704106
0.802664
0.789874
0.802592
0.815353
0.802215
0.730471
0.700672
0.80123
0.772763
0.521048
0.811852
0.666512
0.794343
0.703683
0.825379
0.810065
0.825459
0.810561
0.837718
0.807823
0.583213
0.829729
0.807578
0.802175
0.815951
0.812649
0.813174
0.81477
0.825519
0.816891
0.619792
0.804851
0.800748
0.813491
0.692938
0.802426
0.823925
0.756906
0.689402
0.807915
0.690793
0.732364
0.810602
0.813314
0.669471
0.841751
0.767534
0.805492
0.797066
0.810469
0.844774
0.801244
0.542125
0.815421
0.704997
0.62457
0.778218
0.758976
0.770054
0.812842
0.80355
0.816791
0.812701
0.58706
0.787654
0.832078
0.812749
0.592759
0.723476
0.637671
0.817156
0.811071
0.691685
0.804095
0.812783
0.799968
0.834991
0.608461
0.840652
0.740131
0.812571
0.81309
0.67258
0.813112
0.719786
0.792209
0.715118
0.812447
0.78504
0.63534
0.724904
0.713934
0.833442
0.810044
0.819785
0.822467
0.803385
0.808719
0.803452
0.81802
0.803402
0.689648
0.803642
0.6046
0.777285
0.807301
0.802886
0.812814
0.824675
0.803354
0.718897
0.706674
0.668501
0.79084
0.817172
0.748681
0.587872
0.752156
0.810935
0.801969
0.760725
0.804087
0.823443
0.753743
0.570235
0.70353
0.799245
0.812814
0.864495
0.815272
0.812445
0.852044
0.800212
0.802012
0.814949
0.812892
0.805874
0.718705
0.809297
0.696981
0.862449
0.779292
0.814006
0.58434
0.79712
0.531162
0.584492
0.592164
0.808471
0.803679
0.80981
0.759001
0.8036
0.534647
0.782842
0.803596
0.735649
0.814857
0.802281
0.816351
0.843158
0.602338
0.812527
0.802155
0.810253
0.816943
0.813474
0.812982
0.754883
0.797783
0.798997
0.803297
0.798211
0.81129
0.846199
0.81904
0.724749
0.804819
0.622049
0.81379
0.812732
0.588371
0.767419
0.76748
0.538782
0.784864
0.803721
0.878417
0.798986
0.813627
0.756016
0.794631
0.797671
0.809731
0.783013
0.544048
0.708025
0.681335
0.781414
0.815128
0.803065
0.822079
0.790489
0.802351
0.813402
0.798701
0.852396
0.707172
0.81254
0.781044
0.533311
0.525871
0.813512
0.80363
0.805578
0.562142
0.797128
0.803823
0.660035
0.814298
0.791169
0.807123
0.815343
0.552152
0.723731
0.720503
0.813071
0.832771
0.631746
0.790087
0.715472
0.814174
0.827616
0.77981
0.773756
0.538192
0.812127
0.80246
0.724276
0.853021
0.805924
0.724615
0.740464
0.764531
0.811497
0.564888
0.796873
0.738044
0.800434
0.822526
0.71852
0.799813
0.812251
0.717161
0.81321
0.706801
0.816513
0.798839
0.759532
0.692877
0.809412
0.800143
0.813963
0.670483
0.805477
0.805417
0.812283
0.700298
0.812814
0.809003
0.832056
0.674809
0.816026
0.741364
0.812609
0.806342
0.84251
0.803772
0.819402
0.749512
0.815725
0.83912
0.833205
0.816842
0.846491
0.752424
0.848598
0.826626
0.804409
0.82604
0.805851
0.647565
0.778609
0.814496
0.747581
0.696795
0.799055
0.804691
0.685408
0.798042
0.540022
0.849339
0.699004
0.707057
0.814148
0.774935
0.807301
0.799114
0.807352
0.803977
0.812652
0.836424
0.731557
0.772661
0.59006
0.810719
0.777298
0.811247
0.805214
0.571534
0.802983
0.80258
0.808098
0.799266
0.817244
0.808289
0.707332
0.823559
0.84882
0.685336
0.744362
0.812834
0.801507
0.714193
0.814803
0.755163
0.797004
0.803041
0.805542
0.837483
0.669803
0.722378
0.800899
0.703062
0.77292
0.832491
0.534019
0.692515
0.799694
0.804383
0.80341
0.741705
0.822816
0.807455
0.803733
0.808287
0.813903
0.696816
0.651743
0.80982
0.814388
0.799841
0.87264
0.803139
0.813019
0.799167
0.810504
0.811763
0.808568
0.655084
0.814935
0.817104
0.803523
0.802457
0.80002
0.618406
0.810262
0.811156
0.813076
0.863216
0.814977
0.801669
0.484408
0.836779
0.695878
0.826802
0.80635
0.814027
0.82464
0.809804
0.812721
0.732403
0.553163
0.49603
0.812977
0.809577
0.536732
0.795795
0.815042
0.833808
0.507053
0.809805
0.81401
0.802757
0.80931
0.533576
0.813722
0.808407
0.56168
0.812876
0.81581
0.541118
0.809414
0.81328
0.776303
0.806777
0.811521
0.810224
0.799602
0.826281
0.535874
0.83084
0.816008
0.804153
0.742909
0.786613
0.812043
0.809646
0.802768
0.816412
0.800809
0.660561
0.806753
0.659413
0.812689
0.660862
0.747178
0.797144
0.719034
0.803585
0.581039
0.85
0.812884
0.81295
0.799919
0.802907
0.803211
0.813871
0.814939
0.671027
0.719588
0.727714
0.815343
0.723256
0.603296
0.817798
0.784188
0.828245
0.812269
0.809594
0.733182
0.538889
0.798915
0.790579
0.499745
0.814433
0.81363
0.736176
0.806137
0.769017
0.60947
0.810501
0.814891
0.789137
0.610993
0.802465
0.783307
0.826768
0.8136
0.81111
0.812069
0.813465
0.713912
0.800479
0.816285
0.697879
0.484094
0.734352
0.798953
0.732027
0.813635
0.798745
0.805698
0.782907
0.867529
0.80358
0.801811
0.826168
0.85957
0.804718
0.816169
0.794893
0.816445
0.789443
0.744648
0.812127
0.804364
0.81674
0.803312
0.791362
0.843112
0.766475
0.813368
0.773845
0.804127
0.64351
0.512025
0.801147
0.802363
0.810233
0.798313
0.800086
0.812652
0.773238
0.80512
0.81272
0.78266
0.817343
0.777245
0.595116
0.805194
0.760978
0.776647
0.751213
0.763788
0.794161
0.788843
0.823299
0.787783
0.80957
0.803398
0.765745
0.816072
0.544401
0.730674
0.811166
0.814552
0.812076
0.802849
0.813418
0.810897
0.805911
0.821628
0.809839
0.783298
0.817122
0.802286
0.791025
0.796119
0.805295
0.587611
0.803737
0.792426
0.576548
0.813546
0.807391
0.80616
0.810918
0.703436
0.754635
0.821585
0.775014
0.811587
0.816859
0.720675
0.804587
0.824538
0.720985
0.799648
0.810136
0.779047
0.805213
0.837703
0.80212
0.817849
0.773002
0.805438
0.800839
0.813682
0.802767
0.798547
0.590603
0.81578
0.787319
0.806758
0.826056
0.694142
0.82896
0.820318
0.508286
0.806894
0.804553
0.802136
0.812883
0.824613
0.824496
0.805023
0.806444
0.814756
0.813593
0.803579
0.813167
0.805234
0.749768
0.710492
0.781429
0.814268
0.812644
0.776343
0.758324
0.814122
0.825315
0.810732
0.812889
0.694856
0.503645
0.747798
0.818055
0.80729
0.816779
0.844461
0.800502
0.716711
0.656327
0.800305
0.805278
0.695869
0.813317
0.673852
0.83714
0.729969
0.813419
0.895365
0.815801
0.80142
0.77829
0.811324
0.683502
0.814422
0.808795
0.791779
0.806144
0.779528
0.801266
0.810179
0.781118
0.803634
0.852327
0.777291
0.802206
0.497268
0.80358
0.694663
0.804185
0.794638
0.788756
0.784097
0.722861
0.802641
0.78869
0.844773
0.813904
0.813103
0.812467
0.89562
0.747307
0.802882
0.73239
0.803198
0.799015
0.804796
0.717954
0.801538
0.805702
0.642265
0.809189
0.74922
0.545468
0.846816
0.847632
0.750806
0.81099
0.794915
0.772606
0.733108
0.776443
0.785789
0.73685
0.803968
0.804796
0.721224
0.815873
0.805098
0.55958
0.81271
0.822056
0.81373
0.803592
0.611928
0.716941
0.806433
0.859422
0.488113
0.725608
0.806823
0.81619
0.79692
0.712614
0.712975
0.809168
0.813855
0.815574
0.837433
0.745077
0.755222
0.875916
0.807129
0.809941
0.795407
0.642039
0.605941
0.587832
0.658744
0.589891
0.765002
0.801273
0.803786
0.81289
0.809515
0.811635
0.860399
0.71765
0.824306
0.81449
0.81761
0.817175
0.81442
0.813598
0.812203
0.812678
0.662472
0.802835