# vtk DataFile Version 1.0
unstructured grid
ascii
DATASET UNSTRUCTURED_GRID
points 14760 float
-1 0 0
-1 1 0
2 0 0
2 1 0
0 0 0
1 0 0
-1 1 0.1
-1 0 0.1
0 0 0.1
1 0 0.1
2 0 0.1
2 1 0.1
-0.99 0 0
-0.98 0 0
-0.97 0 0
-0.96 0 0
-0.95 0 0
-0.94 0 0
-0.93 0 0
-0.92 0 0
-0.91 0 0
-0.9 0 0
-0.89 0 0
-0.88 0 0
-0.87 0 0
-0.86 0 0
-0.85 0 0
-0.84 0 0
-0.83 0 0
-0.82 0 0
-0.81 0 0
-0.8 0 0
-0.79 0 0
-0.78 0 0
-0.77 0 0
-0.76 0 0
-0.75 0 0
-0.74 0 0
-0.73 0 0
-0.72 0 0
-0.71 0 0
-0.7 0 0
-0.69 0 0
-0.68 0 0
-0.67 0 0
-0.66 0 0
-0.65 0 0
-0.64 0 0
-0.63 0 0
-0.62 0 0
-0.61 0 0
-0.6 0 0
-0.59 0 0
-0.58 0 0
-0.57 0 0
-0.56 0 0
-0.55 0 0
-0.54 0 0
-0.53 0 0
-0.52 0 0
-0.51 0 0
-0.5 0 0
-0.49 0 0
-0.48 0 0
-0.47 0 0
-0.46 0 0
-0.45 0 0
-0.44 0 0
-0.43 0 0
-0.42 0 0
-0.41 0 0
-0.4 0 0
-0.39 0 0
-0.38 0 0
-0.37 0 0
-0.36 0 0
-0.35 0 0
-0.34 0 0
-0.33 0 0
-0.32 0 0
-0.31 0 0
-0.3 0 0
-0.29 0 0
-0.28 0 0
-0.27 0 0
-0.26 0 0
-0.25 0 0
-0.24 0 0
-0.23 0 0
-0.22 0 0
-0.21 0 0
-0.2 0 0
-0.19 0 0
-0.18 0 0
-0.17 0 0
-0.16 0 0
-0.15 0 0
-0.14 0 0
-0.13 0 0
-0.12 0 0
-0.11 0 0
-0.1 0 0
-0.09 0 0
-0.08 0 0
-0.07 0 0
-0.06 0 0
-0.05 0 0
-0.04 0 0
-0.03 0 0
-0.02 0 0
-0.01 0 0
1.01 0 0
1.02 0 0
1.03 0 0
1.04 0 0
1.05 0 0
1.06 0 0
1.07 0 0
1.08 0 0
1.09 0 0
1.1 0 0
1.11 0 0
1.12 0 0
1.13 0 0
1.14 0 0
1.15 0 0
1.16 0 0
1.17 0 0
1.18 0 0
1.19 0 0
1.2 0 0
1.21 0 0
1.22 0 0
1.23 0 0
1.24 0 0
1.25 0 0
1.26 0 0
1.27 0 0
1.28 0 0
1.29 0 0
1.3 0 0
1.31 0 0
1.32 0 0
1.33 0 0
1.34 0 0
1.35 0 0
1.36 0 0
1.37 0 0
1.38 0 0
1.39 0 0
1.4 0 0
1.41 0 0
1.42 0 0
1.43 0 0
1.44 0 0
1.45 0 0
1.46 0 0
1.47 0 0
1.48 0 0
1.49 0 0
1.5 0 0
1.51 0 0
1.52 0 0
1.53 0 0
1.54 0 0
1.55 0 0
1.56 0 0
1.57 0 0
1.58 0 0
1.59 0 0
1.6 0 0
1.61 0 0
1.62 0 0
1.63 0 0
1.64 0 0
1.65 0 0
1.66 0 0
1.67 0 0
1.68 0 0
1.69 0 0
1.7 0 0
1.71 0 0
1.72 0 0
1.73 0 0
1.74 0 0
1.75 0 0
1.76 0 0
1.77 0 0
1.78 0 0
1.79 0 0
1.8 0 0
1.81 0 0
1.82 0 0
1.83 0 0
1.84 0 0
1.85 0 0
1.86 0 0
1.87 0 0
1.88 0 0
1.89 0 0
1.9 0 0
1.91 0 0
1.92 0 0
1.93 0 0
1.94 0 0
1.95 0 0
1.96 0 0
1.97 0 0
1.98 0 0
1.99 0 0
2 0.0100088 0
2 0.0204183 0
2 0.0312446 0
2 0.0425043 0
2 0.0542147 0
2 0.066394 0
2 0.079061 0
2 0.092235 0
2 0.105936 0
2 0.120186 0
2 0.135007 0
2 0.150421 0
2 0.166452 0
2 0.183124 0
2 0.200465 0
2 0.218499 0
2 0.237256 0
2 0.256763 0
2 0.277051 0
2 0.298152 0
2 0.320097 0
2 0.342921 0
2 0.366659 0
2 0.391347 0
2 0.417024 0
2 0.443728 0
2 0.471502 0
2 0.500387 0
2 0.530429 0
2 0.561674 0
2 0.594169 0
2 0.627966 0
2 0.663115 0
2 0.699672 0
2 0.737692 0
2 0.777235 0
2 0.818361 0
2 0.861133 0
2 0.905617 0
2 0.951882 0
1.95 1 0
1.9 1 0
1.85 1 0
1.8 1 0
1.75 1 0
1.7 1 0
1.65 1 0
1.6 1 0
1.55 1 0
1.5 1 0
1.45 1 0
1.4 1 0
1.35 1 0
1.3 1 0
1.25 1 0
1.2 1 0
1.15 1 0
1.1 1 0
1.05 1 0
1 1 0
0.95 1 0
0.9 1 0
0.85 1 0
0.8 1 0
0.75 1 0
0.7 1 0
0.65 1 0
0.6 1 0
0.55 1 0
0.5 1 0
0.45 1 0
0.4 1 0
0.35 1 0
0.3 1 0
0.25 1 0
0.2 1 0
0.15 1 0
0.1 1 0
0.05 1 0
3.69793e-12 1 0
-0.05 1 0
-0.1 1 0
-0.15 1 0
-0.2 1 0
-0.25 1 0
-0.3 1 0
-0.35 1 0
-0.4 1 0
-0.45 1 0
-0.5 1 0
-0.55 1 0
-0.6 1 0
-0.65 1 0
-0.7 1 0
-0.75 1 0
-0.8 1 0
-0.85 1 0
-0.9 1 0
-0.95 1 0
-1 0.951882 0
-1 0.905617 0
-1 0.861133 0
-1 0.818361 0
-1 0.777235 0
-1 0.737692 0
-1 0.699672 0
-1 0.663115 0
-1 0.627966 0
-1 0.594169 0
-1 0.561674 0
-1 0.530429 0
-1 0.500387 0
-1 0.471502 0
-1 0.443728 0
-1 0.417024 0
-1 0.391347 0
-1 0.366659 0
-1 0.342921 0
-1 0.320097 0
-1 0.298152 0
-1 0.277051 0
-1 0.256763 0
-1 0.237256 0
-1 0.218499 0
-1 0.200465 0
-1 0.183124 0
-1 0.166452 0
-1 0.150421 0
-1 0.135007 0
-1 0.120186 0
-1 0.105936 0
-1 0.092235 0
-1 0.079061 0
-1 0.066394 0
-1 0.0542147 0
-1 0.0425043 0
-1 0.0312446 0
-1 0.0204183 0
-1 0.0100088 0
0.00921362 0.00379763 0
0.0184561 0.00752451 0
0.0277268 0.0111804 0
0.0370253 0.0147652 0
0.0463511 0.0182786 0
0.0557034 0.0217203 0
0.0650819 0.0250903 0
0.074486 0.0283883 0
0.083915 0.0316141 0
0.0933685 0.0347675 0
0.102846 0.0378484 0
0.112347 0.0408565 0
0.12187 0.0437917 0
0.131416 0.0466538 0
0.140983 0.0494427 0
0.150572 0.0521581 0
0.160181 0.0547999 0
0.16981 0.0573681 0
0.179458 0.0598623 0
0.189125 0.0622825 0
0.198811 0.0646285 0
0.208514 0.0669001 0
0.218234 0.0690974 0
0.227971 0.07122 0
0.237724 0.073268 0
0.247493 0.0752411 0
0.257276 0.0771393 0
0.267073 0.0789625 0
0.276884 0.0807105 0
0.286708 0.0823832 0
0.296545 0.0839806 0
0.306394 0.0855025 0
0.316254 0.0869488 0
0.326125 0.0883196 0
0.336006 0.0896146 0
0.345896 0.0908339 0
0.355796 0.0919773 0
0.365704 0.0930447 0
0.375621 0.0940362 0
0.385544 0.0949517 0
0.395474 0.095791 0
0.40541 0.0965542 0
0.415352 0.0972412 0
0.425299 0.097852 0
0.43525 0.0983865 0
0.445205 0.0988447 0
0.455164 0.0992266 0
0.465125 0.0995321 0
0.475088 0.0997613 0
0.485052 0.0999141 0
0.495017 0.0999904 0
0.504983 0.0999904 0
0.514948 0.0999141 0
0.524912 0.0997613 0
0.534875 0.0995321 0
0.544836 0.0992266 0
0.554795 0.0988447 0
0.56475 0.0983865 0
0.574701 0.097852 0
0.584648 0.0972412 0
0.59459 0.0965542 0
0.604526 0.095791 0
0.614456 0.0949517 0
0.624379 0.0940362 0
0.634296 0.0930447 0
0.644204 0.0919773 0
0.654104 0.0908339 0
0.663994 0.0896146 0
0.673875 0.0883196 0
0.683746 0.0869488 0
0.693606 0.0855025 0
0.703455 0.0839806 0
0.713292 0.0823832 0
0.723116 0.0807105 0
0.732927 0.0789625 0
0.742724 0.0771393 0
0.752508 0.0752411 0
0.762276 0.073268 0
0.772029 0.07122 0
0.781766 0.0690974 0
0.791486 0.0669001 0
0.801189 0.0646285 0
0.810875 0.0622825 0
0.820542 0.0598623 0
0.83019 0.0573681 0
0.839819 0.0547999 0
0.849428 0.0521581 0
0.859017 0.0494427 0
0.868584 0.0466538 0
0.87813 0.0437917 0
0.887653 0.0408565 0
0.897154 0.0378484 0
0.906631 0.0347675 0
0.916085 0.0316141 0
0.925514 0.0283883 0
0.934918 0.0250903 0
0.944297 0.0217203 0
0.953649 0.0182786 0
0.962975 0.0147652 0
0.972273 0.0111804 0
0.981544 0.00752451 0
0.990786 0.00379763 0
-1 0.951882 0.1
-1 0.905617 0.1
-1 0.861133 0.1
-1 0.818361 0.1
-1 0.777235 0.1
-1 0.737692 0.1
-1 0.699672 0.1
-1 0.663115 0.1
-1 0.627966 0.1
-1 0.594169 0.1
-1 0.561674 0.1
-1 0.530429 0.1
-1 0.500387 0.1
-1 0.471502 0.1
-1 0.443728 0.1
-1 0.417024 0.1
-1 0.391347 0.1
-1 0.366659 0.1
-1 0.342921 0.1
-1 0.320097 0.1
-1 0.298152 0.1
-1 0.277051 0.1
-1 0.256763 0.1
-1 0.237256 0.1
-1 0.218499 0.1
-1 0.200465 0.1
-1 0.183124 0.1
-1 0.166452 0.1
-1 0.150421 0.1
-1 0.135007 0.1
-1 0.120186 0.1
-1 0.105936 0.1
-1 0.092235 0.1
-1 0.079061 0.1
-1 0.066394 0.1
-1 0.0542147 0.1
-1 0.0425043 0.1
-1 0.0312446 0.1
-1 0.0204183 0.1
-1 0.0100088 0.1
-0.99 0 0.1
-0.98 0 0.1
-0.97 0 0.1
-0.96 0 0.1
-0.95 0 0.1
-0.94 0 0.1
-0.93 0 0.1
-0.92 0 0.1
-0.91 0 0.1
-0.9 0 0.1
-0.89 0 0.1
-0.88 0 0.1
-0.87 0 0.1
-0.86 0 0.1
-0.85 0 0.1
-0.84 0 0.1
-0.83 0 0.1
-0.82 0 0.1
-0.81 0 0.1
-0.8 0 0.1
-0.79 0 0.1
-0.78 0 0.1
-0.77 0 0.1
-0.76 0 0.1
-0.75 0 0.1
-0.74 0 0.1
-0.73 0 0.1
-0.72 0 0.1
-0.71 0 0.1
-0.7 0 0.1
-0.69 0 0.1
-0.68 0 0.1
-0.67 0 0.1
-0.66 0 0.1
-0.65 0 0.1
-0.64 0 0.1
-0.63 0 0.1
-0.62 0 0.1
-0.61 0 0.1
-0.6 0 0.1
-0.59 0 0.1
-0.58 0 0.1
-0.57 0 0.1
-0.56 0 0.1
-0.55 0 0.1
-0.54 0 0.1
-0.53 0 0.1
-0.52 0 0.1
-0.51 0 0.1
-0.5 0 0.1
-0.49 0 0.1
-0.48 0 0.1
-0.47 0 0.1
-0.46 0 0.1
-0.45 0 0.1
-0.44 0 0.1
-0.43 0 0.1
-0.42 0 0.1
-0.41 0 0.1
-0.4 0 0.1
-0.39 0 0.1
-0.38 0 0.1
-0.37 0 0.1
-0.36 0 0.1
-0.35 0 0.1
-0.34 0 0.1
-0.33 0 0.1
-0.32 0 0.1
-0.31 0 0.1
-0.3 0 0.1
-0.29 0 0.1
-0.28 0 0.1
-0.27 0 0.1
-0.26 0 0.1
-0.25 0 0.1
-0.24 0 0.1
-0.23 0 0.1
-0.22 0 0.1
-0.21 0 0.1
-0.2 0 0.1
-0.19 0 0.1
-0.18 0 0.1
-0.17 0 0.1
-0.16 0 0.1
-0.15 0 0.1
-0.14 0 0.1
-0.13 0 0.1
-0.12 0 0.1
-0.11 0 0.1
-0.1 0 0.1
-0.09 0 0.1
-0.08 0 0.1
-0.07 0 0.1
-0.06 0 0.1
-0.05 0 0.1
-0.04 0 0.1
-0.03 0 0.1
-0.02 0 0.1
-0.01 0 0.1
0.00921362 0.00379763 0.1
0.0184561 0.00752451 0.1
0.0277268 0.0111804 0.1
0.0370253 0.0147652 0.1
0.0463511 0.0182786 0.1
0.0557034 0.0217203 0.1
0.0650819 0.0250903 0.1
0.074486 0.0283883 0.1
0.083915 0.0316141 0.1
0.0933685 0.0347675 0.1
0.102846 0.0378484 0.1
0.112347 0.0408565 0.1
0.12187 0.0437917 0.1
0.131416 0.0466538 0.1
0.140983 0.0494427 0.1
0.150572 0.0521581 0.1
0.160181 0.0547999 0.1
0.16981 0.0573681 0.1
0.179458 0.0598623 0.1
0.189125 0.0622825 0.1
0.198811 0.0646285 0.1
0.208514 0.0669001 0.1
0.218234 0.0690974 0.1
0.227971 0.07122 0.1
0.237724 0.073268 0.1
0.247493 0.0752411 0.1
0.257276 0.0771393 0.1
0.267073 0.0789625 0.1
0.276884 0.0807105 0.1
0.286708 0.0823832 0.1
0.296545 0.0839806 0.1
0.306394 0.0855025 0.1
0.316254 0.0869488 0.1
0.326125 0.0883196 0.1
0.336006 0.0896146 0.1
0.345896 0.0908339 0.1
0.355796 0.0919773 0.1
0.365704 0.0930447 0.1
0.375621 0.0940362 0.1
0.385544 0.0949517 0.1
0.395474 0.095791 0.1
0.40541 0.0965542 0.1
0.415352 0.0972412 0.1
0.425299 0.097852 0.1
0.43525 0.0983865 0.1
0.445205 0.0988447 0.1
0.455164 0.0992266 0.1
0.465125 0.0995321 0.1
0.475088 0.0997613 0.1
0.485052 0.0999141 0.1
0.495017 0.0999904 0.1
0.504983 0.0999904 0.1
0.514948 0.0999141 0.1
0.524912 0.0997613 0.1
0.534875 0.0995321 0.1
0.544836 0.0992266 0.1
0.554795 0.0988447 0.1
0.56475 0.0983865 0.1
0.574701 0.097852 0.1
0.584648 0.0972412 0.1
0.59459 0.0965542 0.1
0.604526 0.095791 0.1
0.614456 0.0949517 0.1
0.624379 0.0940362 0.1
0.634296 0.0930447 0.1
0.644204 0.0919773 0.1
0.654104 0.0908339 0.1
0.663994 0.0896146 0.1
0.673875 0.0883196 0.1
0.683746 0.0869488 0.1
0.693606 0.0855025 0.1
0.703455 0.0839806 0.1
0.713292 0.0823832 0.1
0.723116 0.0807105 0.1
0.732927 0.0789625 0.1
0.742724 0.0771393 0.1
0.752508 0.0752411 0.1
0.762276 0.073268 0.1
0.772029 0.07122 0.1
0.781766 0.0690974 0.1
0.791486 0.0669001 0.1
0.801189 0.0646285 0.1
0.810875 0.0622825 0.1
0.820542 0.0598623 0.1
0.83019 0.0573681 0.1
0.839819 0.0547999 0.1
0.849428 0.0521581 0.1
0.859017 0.0494427 0.1
0.868584 0.0466538 0.1
0.87813 0.0437917 0.1
0.887653 0.0408565 0.1
0.897154 0.0378484 0.1
0.906631 0.0347675 0.1
0.916085 0.0316141 0.1
0.925514 0.0283883 0.1
0.934918 0.0250903 0.1
0.944297 0.0217203 0.1
0.953649 0.0182786 0.1
0.962975 0.0147652 0.1
0.972273 0.0111804 0.1
0.981544 0.00752451 0.1
0.990786 0.00379763 0.1
1.01 0 0.1
1.02 0 0.1
1.03 0 0.1
[...]
CELL_DATA 14313
SCALARS rho float
LOOKUP_TABLE default
0.781534
0.824339
0.80595
0.538342
0.766616
0.812062
0.812709
0.812598
0.811056
0.815224
0.812297
0.798922
0.797261
0.518904
0.813069
0.832031
0.808862
0.807762
0.810278
0.805407
0.810964
0.814011
0.812643
0.766358
0.812267
0.814727
0.742635
0.70922
0.823854
0.824492
0.812149
0.794534
0.799726
0.812238
0.804732
0.810872
0.680209
0.808997
0.811825
0.802471
0.75279
0.810631
0.542535
0.702422
0.817788
0.835813
0.811084
0.777527
0.804586
0.851384
0.67591
0.6536
0.590478
0.810784
0.819819
0.782768
0.817774
0.814772
0.810846
0.812543
0.812166
0.818566
0.794511
0.839297
0.810591
0.813507
0.853138
0.783996
0.840674
0.813061
0.798357
0.831594
0.488668
0.83732
0.726572
0.807133
0.824871
0.747317
0.696727
0.811627
0.592372
0.824843
0.83323
0.803509
0.805745
0.819442
0.812043
0.804517
0.826675
0.807048
0.779996
0.52417
0.807395
0.798147
0.726511
0.803854
0.814823
0.809157
0.803309
0.490253
0.807199
0.809857
0.812677
0.81435
0.748673
0.809368
0.802754
0.699834
0.834571
0.810193
0.813908
0.825012
0.81228
0.819474
0.804201
0.827536
0.819968
0.836334
0.778832
0.79899
0.811784
0.809213
0.859495
0.721381
0.843703
0.753718
0.789759
0.804516
0.814834
0.843217
0.809653
0.812183
0.860793
0.812471
0.823402
0.782733
0.807079
0.792312
0.817824
0.817484
0.812709
0.816909
0.803395
0.80345
0.796604
0.839151
0.805986
0.760855
0.795686
0.817511
0.797429
0.803562
0.812646
0.709378
0.821331
0.803743
0.723336
0.821241
0.812262
0.811938
0.818583
0.808789
0.648937
0.757675
0.823247
0.824649
0.714432
0.812848
0.828147
0.815672
0.689081
0.816281
0.713252
0.788116
0.809109
0.826346
0.808323
0.815572
0.821092
0.741938
0.811591
0.809721
0.773681
0.771789
0.790576
0.81116
0.813054
0.797054
0.497594
0.787405
0.757766
0.743111
0.770311
0.714026
0.812516
0.815103
0.807354
0.803421
0.806302
0.816985
0.760328
0.803001
0.828621
0.815045
0.833565
0.803363
0.816622
0.814281
0.812214
0.834674
0.804237
0.811347
0.796122
0.701193
0.814254
0.820857
0.809803
0.807405
0.834634
0.803087
0.80272
0.819293
0.806213
0.855416
0.809765
0.803202
0.818108
0.802531
0.812599
0.757467
0.637863
0.815133
0.697777
0.826997
0.802447
0.721893
0.812178
0.814224
0.815055
0.826517
0.791757
0.709592
0.748022
0.596444
0.815212
0.724049
0.799506
0.807166
0.837821
0.815332
0.575715
0.804087
0.72901
0.837449
0.801453
0.695118
0.811534
0.827179
0.814796
0.55794
0.813311
0.801398
0.799115
0.806212
0.788561
0.774065
0.815782
0.815595
0.53065
0.81483
0.813981
0.772272
0.802094
0.812277
0.780602
0.817438
0.783262
0.709613
0.802878
0.805861
0.568144
0.544168
0.756526
0.808175
0.820615
0.790152
0.811925
0.81502
0.776177
0.806024
0.80353
0.816878
0.829611
0.793347
0.808338
0.811793
0.632847
0.819022
0.700572
0.797481
0.793343
0.777658
0.835733
0.8094
0.796884
0.676912
0.668736
0.80378
0.80593
0.819715
0.804262
0.798605
0.652463
0.815321
0.822221
0.818185
0.812299
0.813095
0.799646
0.791104
0.814391
0.574032
0.808185
0.812471
0.814631
0.812818
0.765544
0.82169
0.801638
0.814428
0.813282
0.753921
0.75273
0.803413
0.803494
0.566279
0.812688
0.812178
0.807357
0.812041
0.803499
0.800983
0.728428
0.712254
0.814602
0.748594
0.758266
0.818656
0.837601
0.814407
0.802442
0.80853
0.812511
0.80349
0.817243
0.782801
0.817175
0.811853
0.810979
0.795288
0.810674
0.792351
0.8121
0.590175
0.799795
0.800629
0.812167
0.813603
0.76783
0.801658
0.812458
0.812675
0.81822
0.770329
0.81837
0.808535
0.752914
0.761799
0.81293
0.806016
0.829334
0.824894
0.823313
0.804544
0.595597
0.779237
0.601165
0.80342
0.802986
0.801003
0.814488
0.874105
0.526958
0.594431
0.838434
0.872067
0.812077
0.690458
0.802254
0.717006
0.807044
0.815971
0.707281
0.65131
0.75141
0.813152
0.478825
0.873637
0.824545
0.798711
0.808858
0.480466
0.740189
0.781927
0.81779
0.804903
0.800827
0.830386
0.812569
0.70606
0.685451
0.801677
0.806162
0.80957
0.811853
0.808854
0.812176
0.735917
0.791255
0.797246
0.802611
0.764317
0.817864
0.807941
0.8131
0.811889
0.755492
0.805637
0.804102
0.793461
0.812398
0.815883
0.80714
0.657823
0.787554
0.817666
0.812888
0.812471
0.807427
0.812937
0.804406
0.82133
0.821687
0.62835
0.855256
0.74427
0.820796
0.805144
0.746765
0.824624
0.800925
0.825629
0.549154
0.799702
0.679667
0.812253
0.809301
0.52333
0.800177
0.804696
0.798063
0.802152
0.800887
0.772475
0.812113
0.593429
0.805817
0.80617
0.79946
0.818513
0.765186
0.812248
0.809604
0.798122
0.816427
0.796751
0.802907
0.812589
0.634563
0.769506
0.734315
0.491473
0.8249
0.568928
0.802661
0.819012
0.85672
0.703928
0.740132
0.812395
0.806177
0.801179
0.793925
0.766213
0.81115
0.812653
0.797227
0.813352
0.816599
0.474636
0.81261
0.813495
0.806376
0.810368
0.605072
0.815392
0.82172
0.706587
0.78887
0.813407
0.801071
0.828423
0.831449
0.804106
0.742423
0.474729
0.814091
0.571694
0.799012
0.803343
0.774666
0.812282
0.750682
0.811565
0.806647
0.803376
0.487253
0.814483
0.827591
0.830731
0.814917
0.803511
0.803248
0.812641
0.75861
0.847452
0.837215
0.710165
0.798892
0.65379
0.778159
0.667995
0.816264
0.836379
0.799172
0.638717
0.766107
0.813901
0.824616
0.83272
0.813791
0.671955
0.538493
0.804855
0.816115
0.801581
0.816089
0.804909
0.771753
0.85154
0.81544
0.804068
0.816956
0.799055
0.74399
0.798225
0.811634
0.597213
0.689463
0.803356
0.81102
0.80485
0.575681
0.811835
0.605285
0.812657
0.767741
0.817063
0.816514
0.753518
0.806767
0.792598
0.80518
0.837196
0.837458
0.831427
0.804815
0.816343
0.580287
0.812689
0.856898
0.825216
0.829443
0.804241
0.820968
0.799578
0.839934
0.808836
0.814457
0.673487
0.63189
0.835888
0.813603
0.840785
0.71646
0.801479
0.763656
0.797466
0.809659
0.793349
0.807265
0.813324
0.82288
0.828269
0.830236
0.805454
0.750166
0.804321
0.73005
0.793436
0.821686
0.801128
0.815132
0.758505
0.805104
0.80461
0.847104
0.809308
0.803418
0.806259
0.83445
0.831493
0.803607
0.856418
0.796071
0.820257
0.662934
0.80319
0.800287
0.799049
0.831877
0.609258
0.806374
0.805588
0.659137
0.8148
0.8295
0.814078
0.803398
0.80614
0.802547
0.816285
0.799121
0.720029
0.514539
0.813634
0.805861
0.80198
0.804634
0.803197
0.803723
0.810977
0.798315
0.813957
0.583874
0.81305
0.809453
0.812148
0.842476
0.813953
0.834412
0.811681
0.797902
0.813041
0.682739
0.803767
0.850575
0.813073
0.79308
0.814415
0.634362
0.805576
0.568796
0.663817
0.674297
0.809598
0.815719
0.812489
0.49839
0.694794
0.803499
0.830945
0.747588
0.831704
0.80519
0.804957
0.796955
0.69684
0.7516
0.548335
0.802852
0.811955
0.80454
0.821016
0.670223
0.633704
0.854416
0.801789
0.814265
0.729713
0.813789
0.527291
0.821023
0.703878
0.814076
0.817716
0.801793
0.802288
0.825351
0.795044
0.803645
0.804116
0.631783
0.806653
0.653969
0.799052
0.798455
0.813966
0.815403
0.729398
0.815606
0.755647
0.803192
0.720907
0.805241
0.745769
0.671853
0.824723
0.812664
0.799344
0.726792
0.811609
0.65884
0.811155
0.80297
0.727855
0.82604
0.81657
0.638786
0.696357
0.825967
0.803678
0.726044
0.833845
0.834886
0.836274
0.812042
0.548961
0.751294
0.821153
0.820515
0.523599
0.640441
0.815841
0.812723
0.722573
0.778515
0.81233
0.807274
0.758258
0.812445
0.813747
0.803588
0.729366
0.80228
0.797141
0.812308
0.577684
0.805602
0.821976
0.57486
0.818362
0.845658
0.8123
0.676949
0.812027
0.811883
0.812131
0.801192
0.818925
0.803305
0.806729
0.804888
0.803332
0.813751
0.488468
0.810111
0.809894
0.69293
0.604115
0.786196
0.798569
0.812368
0.753246
0.568231
0.811708
0.783741
0.812341
0.821692
0.813737
0.825275
0.748557
0.591659
0.811819
0.83929
0.812296
0.708334
0.803686
0.727615
0.813391
0.811318
0.812205
0.817571
0.801304
0.813323
0.808413
0.757507
0.816449
0.812893
0.752064
0.791978
0.711484
0.560931
0.733993
0.781801
0.816028
0.811598
0.81091
0.810825
0.803318
0.795595
0.808108
0.706381
0.753337
0.81187
0.803464
0.804872
0.818433
0.605114
0.813806
0.80392
0.84366
0.808103
0.637259
0.793758
0.803873
0.842577
0.691783
0.562854
0.577649
0.635664
0.817811
0.804567
0.561455
0.586877
0.820153
0.812462
0.889346
0.804841
0.829569
0.812695
0.769422
0.811065
0.812851
0.81236
0.810901
0.8123
0.798276
0.81241
0.643542
0.815943
0.803652
0.809858
0.756551
0.81737
0.611363
0.855863
0.803954
0.827166
0.812296
0.808045
0.747904
0.822494
0.812166
0.837425
0.812081
0.812764
0.642354
0.826922
0.810437
0.812647
0.836717
0.822756
0.554539
0.796711
0.803028
0.811142
0.817034
0.803964
0.800398
0.815437
0.765322
0.805198
0.816076
0.863539
0.831311
0.588073
0.796268
0.754316
0.814268
0.761735
0.819588
0.804889
0.80643
0.812508
0.789305
0.805813
0.815536
0.821973
0.787436
0.670151
0.734321
0.699042
0.814354
0.836181
0.838157
0.734033
0.809088
0.753862
0.610469
0.812317
0.799703
0.812083
0.8036
0.631928
0.80227
0.776646
0.73658
0.811047
0.744537
0.807838
0.816655
0.859843
0.809698
0.807151
0.740214
0.812755
0.776061
0.839512
0.883813
0.797253
0.52145
0.799937
0.608421
0.76948
0.65767
0.799206
0.496173
0.815222
0.850098
0.805971
0.810904
0.819896
0.803052
0.803263
0.697107
0.823174
0.812204
0.804179
0.80683
0.792514
0.803587
0.807017
0.629497
0.816743
0.802263
0.845497
0.808233
0.804434
0.801728
0.813206
0.813321
0.807783
0.803553
0.787739
0.812428
0.795447
0.802004
0.813505
0.772041
0.567787
0.812919
0.818355
0.804046
0.724167
0.801388
0.80791
0.803494
0.699227
0.873522
0.811898
0.816915
0.812319
0.848101
0.778364
0.812386
0.787831
0.816038
0.82222
0.663622
0.812421
0.728882
0.81909
0.71908
0.799696
0.751505
0.802747
0.608806
0.809471
0.734697
0.477868
0.820308
0.662221
0.769056
0.817426
0.812571
0.776754
0.811516
0.719582
0.638537
0.826324
0.701561
0.81691
0.76763
0.801729
0.807968
0.813501
0.652627
0.804389
0.774815
0.809864
0.812294
0.829257
0.806156
0.687997
0.755677
0.65218
0.798401
0.803224
0.81223
0.815607
0.811972
0.811805
0.809645
0.663905
0.731558
0.492044
0.697295
0.814114
0.808349
0.833115
0.809483
0.814911
0.708754
0.874456
0.81538
0.826351
0.572334
0.823049
0.812434
0.840805
0.845647
0.826675
0.830319
0.820364
0.541348
0.805776
0.815111
0.715384
0.816958
0.801521
0.812372
0.808013
0.812836
0.812891
0.767486
0.720583
0.798244
0.800521
0.572542
0.814234
0.859105
0.815515
0.660373
0.822751
0.813349
0.819716
0.835447
0.693082
0.487862
0.804882
0.839964
0.806101
0.804062
0.814427
0.801616
0.812471
0.809765
0.800163
0.804281
0.804716
0.812711
0.805593
0.806222
0.798806
0.836295
0.830827
0.853311
0.813127
0.807619
0.814672
0.813213
0.812331
0.811259
0.815768
0.83408
0.808645
0.811342
0.602417
0.830673
0.709118
0.868249
0.803657
0.833378
0.799256
0.786185
0.785932
0.739875
0.821419
0.811003
0.811728
0.813606
0.775977
0.808102
0.584877
0.806115
0.813222
0.813368
0.795751
0.812309
0.611509
0.783602
0.558946
0.820937
0.797146
0.774728
0.802166
0.813889
0.812671
0.812703
0.737585
0.808489
0.812174
0.810615
0.803683
0.80385
0.747127
0.767602
0.809501
0.803752
0.697502
0.598545
0.491014
0.841142
0.806103
0.778784
0.781319
0.824348
0.803597
0.803988
0.81822
0.779357
0.756956
0.816352
0.807724
0.811372
0.837312
0.804892
0.811996
0.808296
0.484842
0.803476
0.812146
0.77394
0.81959
0.814422
0.825753
0.601089
0.709905
0.573851
0.828376
0.815797
0.743618
0.811898
0.677158
0.813949
0.810825
0.81215
0.80331
0.811914
0.577525
0.686916
0.806328
0.813526
0.793749
0.801516
0.831155
0.79893
0.80311
0.644105
0.807975
0.812212
0.804353
0.812503
0.802754
0.617701
0.814488
0.812618
0.573125
0.698335
0.793371
0.82845
0.698385
0.804032
0.793719
0.812384
0.756564
0.685313
0.810689
0.795965
0.799584
0.766466
0.541639
0.820407
0.673921
0.74802
0.731126
0.803995
0.797568
0.81171
0.660865
0.767735
0.804007
0.8152
0.593129
0.79914
0.825848
0.807395
0.540249
0.805638
0.783524
0.708155
0.7069
0.800444
0.819309
0.813235
0.808887
0.70068
0.7399
0.641895
0.832465
0.842986
0.817082
0.788247
0.865292
0.697782
0.813574
0.766948
0.790337
0.795601
0.812226
0.804014
0.811846
0.787123
0.755528
0.819933
0.796997
0.84225
0.719622
0.791427
0.805557
0.723528
0.803437
0.814697
0.576588
0.801982
0.799195
0.802807
0.821365
0.764485
0.800238
0.722937
0.812397
0.808872
0.725527
0.812398
0.816407
0.828808
0.805645
0.787298
0.797918
0.805732
0.726179
0.812699
0.801448
0.678172
0.806993
0.780407
0.832021
0.82102
0.819185
0.839436
0.848629
0.700104
0.813946
0.795714
0.7874
0.617972
0.817109
0.803891
0.812477
0.776415
0.853559
0.832922
0.781917
0.842325
0.779871
0.800665
0.772146
0.812468
0.722017
0.63625
0.844312
0.661667
0.79286
0.839829
0.81268
0.671726
0.809279
0.752136
0.804034
0.799051
0.781601
0.804187
0.801346
0.802841
0.801939
0.785718
0.812277
0.781625
0.816471
0.807532
0.713363
0.784042
0.815231
0.812702
0.805533
0.56471
0.825252
0.813075
0.81229
0.70454
0.804837
0.801258
0.80159
0.816109
0.746211
0.816191
0.800798
0.804763
0.755577
0.81174
0.812796
0.806129
0.769195
0.808171
0.813206
0.808087
0.815994
0.808544
0.806102
0.823112
0.804632
0.788943
0.806478
0.812444
0.818241
0.779025
0.703892
0.814001
0.812242
0.800991
0.742809
0.788897
0.654498
0.803406
0.541127
0.8032
0.814644
0.77503
0.834734
0.517293
0.809713
0.738715
0.810742
0.535139
0.804579
0.828132
0.813554
0.81893
0.734729
0.84107
0.554719
0.823684
0.703263
0.799829
0.4807
0.670282
0.812805
0.812321
0.742112
0.801222
0.821003
0.61251
0.822146
0.770858
0.833648
0.812326
0.814369
0.813379
0.803853
0.837179
0.810874
0.803796
0.477927
0.803146
0.843616
0.802362
0.801593
0.767763
0.805667
0.812258
0.812414
0.796865
0.73458
0.810667
0.815716
0.603497
0.804217
0.5414
0.815878
0.540974
0.812265
0.770653
0.683031
0.733266
0.78311
0.713545
0.841831
0.813813
0.79707
0.804028
0.703689
0.802592
0.78965
0.802514
0.815144
0.801948
0.730971
0.699076
0.800893
0.772462
0.519868
0.811474
0.664677
0.794186
0.70476
0.825192
0.809702
0.825233
0.810367
0.83741
0.807488
0.581371
0.829442
0.807244
0.801829
0.815657
0.812257
0.812843
0.814639
0.825303
0.816608
0.618833
0.804786
0.800688
0.813149
0.692529
0.80235
0.823537
0.756623
0.688953
0.807701
0.689424
0.731996
0.810289
0.812967
0.668966
0.8416
0.767168
0.805426
0.796717
0.810073
0.844621
0.801123
0.540247
0.815121
0.70694
0.569743
0.778164
0.758512
0.769775
0.812465
0.803529
0.816567
0.812295
0.58637
0.787538
0.831593
0.812366
0.591895
0.72234
0.636104
0.816875
0.810721
0.691278
0.804028
0.812428
0.799609
0.834547
0.607131
0.840481
0.740096
0.81222
0.812733
0.670667
0.812781
0.720435
0.792
0.715765
0.812128
0.784721
0.634552
0.724506
0.713057
0.83328
0.809677
0.819526
0.822225
0.803362
0.808583
0.8031
0.817809
0.803303
0.688198
0.803505
0.603989
0.776978
0.807217
0.802575
0.812437
0.824446
0.803337
0.717739
0.708917
0.667785
0.790541
0.816913
0.748844
0.582984
0.751793
0.810533
0.801892
0.760442
0.803816
0.823282
0.753467
0.569436
0.702802
0.798908
0.812436
0.864388
0.814889
0.812049
0.851923
0.79986
0.801903
0.814641
0.812527
0.805589
0.718111
0.809197
0.696139
0.862333
0.778955
0.813679
0.578357
0.79677
0.530054
0.583795
0.588005
0.808165
0.803649
0.809513
0.758535
0.803571
0.533303
0.782507
0.803212
0.735046
0.814567
0.801908
0.816066
0.843013
0.548396
0.812261
0.802106
0.809871
0.816804
0.813134
0.812616
0.754478
0.797433
0.798861
0.803254
0.797862
0.810975
0.845691
0.818776
0.724173
0.804733
0.613562
0.813459
0.812341
0.587365
0.767063
0.767127
0.537391
0.784544
0.803666
0.878339
0.798635
0.813341
0.755573
0.794491
0.797322
0.809455
0.782799
0.542891
0.709575
0.68083
0.781181
0.814869
0.802967
0.821916
0.790322
0.802067
0.81306
0.798351
0.852266
0.705682
0.812153
0.780808
0.531982
0.519633
0.813172
0.803579
0.805486
0.561159
0.797033
0.803774
0.659532
0.813982
0.790872
0.806789
0.815052
0.540659
0.724077
0.719543
0.812726
0.832338
0.630736
0.789919
0.716357
0.813856
0.827424
0.779568
0.773432
0.536477
0.811793
0.802425
0.723937
0.852447
0.805852
0.723502
0.740134
0.764126
0.811103
0.564071
0.79675
0.737943
0.800362
0.82214
0.719422
0.799453
0.811984
0.71681
0.813077
0.706345
0.816226
0.798486
0.759572
0.691168
0.809142
0.800049
0.813635
0.669982
0.805407
0.805116
0.811893
0.699836
0.812439
0.808657
0.831894
0.663129
0.815735
0.741036
0.81223
0.805994
0.842346
0.803719
0.81914
0.749198
0.815431
0.838944
0.832976
0.816632
0.845981
0.752299
0.848111
0.826262
0.804098
0.825884
0.80571
0.64704
0.778322
0.814184
0.747102
0.695889
0.798714
0.804354
0.682403
0.7977
0.538871
0.848843
0.697336
0.706599
0.81383
0.774644
0.807085
0.798988
0.807142
0.803917
0.812306
0.835975
0.730641
0.772384
0.589031
0.810321
0.777111
0.811067
0.805148
0.570696
0.802941
0.802547
0.807768
0.798931
0.816968
0.808198
0.70873
0.823328
0.848299
0.684834
0.743961
0.81247
0.801174
0.713155
0.814511
0.754665
0.796861
0.802964
0.805423
0.837305
0.669204
0.722765
0.800834
0.702474
0.772732
0.832284
0.532887
0.691819
0.79962
0.804324
0.803384
0.74168
0.822583
0.807152
0.803691
0.808181
0.813574
0.696417
0.650315
0.809722
0.81407
0.799528
0.871976
0.802922
0.812656
0.799088
0.810212
0.811473
0.808444
0.65394
0.814811
0.816824
0.803466
0.802121
0.799677
0.617788
0.809968
0.810805
0.812717
0.862715
0.814681
0.801549
0.482271
0.836527
0.693997
0.826585
0.806034
0.813877
0.82428
0.809408
0.812365
0.731602
0.552154
0.493537
0.812624
0.809242
0.535252
0.795641
0.814746
0.83351
0.50536
0.809666
0.813699
0.802498
0.809172
0.531691
0.813395
0.8083
0.560712
0.812511
0.815516
0.539802
0.809052
0.812948
0.776004
0.806507
0.811341
0.809822
0.799288
0.826068
0.534721
0.83047
0.815876
0.804097
0.742465
0.786392
0.811666
0.809494
0.802396
0.816164
0.80074
0.658609
0.80644
0.616938
0.812287
0.660309
0.74665
0.79705
0.718627
0.803559
0.580308
0.849864
0.812511
0.812619
0.799558
0.802799
0.803192
0.813723
0.814631
0.670522
0.718475
0.726832
0.815041
0.722154
0.587097
0.81759
0.783941
0.828053
0.811961
0.809454
0.732817
0.5372
0.798787
0.790297
0.497728
0.814119
0.813294
0.735866
0.806005
0.768751
0.608115
0.810212
0.814742
0.788878
0.610331
0.802362
0.78309
0.826548
0.813263
0.810709
0.811954
0.813124
0.714792
0.800271
0.815995
0.696062
0.482087
0.733575
0.798856
0.731286
0.813299
0.798396
0.805584
0.782692
0.867428
0.803565
0.801718
0.825964
0.859447
0.804654
0.815922
0.794602
0.81616
0.789261
0.744244
0.811988
0.804301
0.816471
0.80327
0.791076
0.842949
0.766228
0.813024
0.773601
0.803914
0.642984
0.510564
0.801041
0.802231
0.809845
0.798207
0.799877
0.812248
0.773023
0.804854
0.812325
0.782422
0.817121
0.777168
0.594139
0.805095
0.760897
0.776373
0.750755
0.763683
0.794006
0.788674
0.823137
0.787607
0.80947
0.803378
0.765419
0.815779
0.543229
0.730051
0.810834
0.81426
0.811714
0.802579
0.813111
0.810707
0.805806
0.821385
0.809738
0.783079
0.816853
0.801973
0.790741
0.795973
0.80521
0.586798
0.803671
0.792261
0.575412
0.813363
0.807287
0.806085
0.810813
0.702844
0.754721
0.821339
0.774916
0.811457
0.816581
0.721502
0.804517
0.824315
0.720486
0.799504
0.809806
0.778739
0.804961
0.837298
0.80198
0.817575
0.772757
0.805372
0.800564
0.813361
0.802412
0.7982
0.589558
0.815484
0.78701
0.806677
0.825833
0.692445
0.82875
0.82014
0.506632
0.806622
0.80449
0.801764
0.812555
0.824425
0.824271
0.804948
0.806167
0.814444
0.813456
0.803542
0.812849
0.804967
0.749442
0.709234
0.781158
0.813948
0.812354
0.776095
0.758045
0.813994
0.825101
0.810602
0.812526
0.692965
0.502039
0.747722
0.817783
0.80698
0.816499
0.844326
0.800175
0.715703
0.655172
0.799947
0.804964
0.694969
0.812968
0.672364
0.836975
0.729578
0.813122
0.895316
0.815677
0.801101
0.778002
0.811187
0.682393
0.814278
0.808494
0.791609
0.805867
0.779434
0.800946
0.81008
0.780776
0.803599
0.852196
0.7771
0.802157
0.494774
0.803367
0.694256
0.804128
0.794517
0.788629
0.78385
0.722524
0.802359
0.788428
0.844614
0.813574
0.812747
0.812095
0.895573
0.746773
0.802784
0.731486
0.803172
0.798661
0.804635
0.717308
0.801218
0.80557
0.640485
0.808916
0.748884
0.538523
0.846663
0.847482
0.750395
0.810843
0.794758
0.772303
0.732369
0.776167
0.785587
0.736523
0.803899
0.804596
0.720265
0.815578
0.805023
0.558056
0.812318
0.821719
0.813481
0.803535
0.61126
0.715869
0.806327
0.8593
0.48563
0.725028
0.806639
0.816047
0.796676
0.712856
0.711705
0.809071
0.813524
0.815277
0.837253
0.745086
0.754723
0.875834
0.806979
0.809546
0.795252
0.639489
0.601164
0.586827
0.657795
0.58782
0.764578
0.800988
0.803574
0.812559
0.809318
0.81153
0.860281
0.716387
0.824081
0.814173
0.817339
0.816895
0.814102
0.81326
0.811869
0.812273