# vtk DataFile Version 1.0
unstructured grid
ascii
DATASET UNSTRUCTURED_GRID
points 14760 float
-1 0 0
-1 1 0
2 0 0
2 1 0
0 0 0
1 0 0
-1 1 0.1
-1 0 0.1
0 0 0.1
1 0 0.1
2 0 0.1
2 1 0.1
-0.99 0 0
-0.98 0 0
-0.97 0 0
-0.96 0 0
-0.95 0 0
-0.94 0 0
-0.93 0 0
-0.92 0 0
-0.91 0 0
-0.9 0 0
-0.89 0 0
-0.88 0 0
-0.87 0 0
-0.86 0 0
-0.85 0 0
-0.84 0 0
-0.83 0 0
-0.82 0 0
-0.81 0 0
-0.8 0 0
-0.79 0 0
-0.78 0 0
-0.77 0 0
-0.76 0 0
-0.75 0 0
-0.74 0 0
-0.73 0 0
-0.72 0 0
-0.71 0 0
-0.7 0 0
-0.69 0 0
-0.68 0 0
-0.67 0 0
-0.66 0 0
-0.65 0 0
-0.64 0 0
-0.63 0 0
-0.62 0 0
-0.61 0 0
-0.6 0 0
-0.59 0 0
-0.58 0 0
-0.57 0 0
-0.56 0 0
-0.55 0 0
-0.54 0 0
-0.53 0 0
-0.52 0 0
-0.51 0 0
-0.5 0 0
-0.49 0 0
-0.48 0 0
-0.47 0 0
-0.46 0 0
-0.45 0 0
-0.44 0 0
-0.43 0 0
-0.42 0 0
-0.41 0 0
-0.4 0 0
-0.39 0 0
-0.38 0 0
-0.37 0 0
-0.36 0 0
-0.35 0 0
-0.34 0 0
-0.33 0 0
-0.32 0 0
-0.31 0 0
-0.3 0 0
-0.29 0 0
-0.28 0 0
-0.27 0 0
-0.26 0 0
-0.25 0 0
-0.24 0 0
-0.23 0 0
-0.22 0 0
-0.21 0 0
-0.2 0 0
-0.19 0 0
-0.18 0 0
-0.17 0 0
-0.16 0 0
-0.15 0 0
-0.14 0 0
-0.13 0 0
-0.12 0 0
-0.11 0 0
-0.1 0 0
-0.09 0 0
-0.08 0 0
-0.07 0 0
-0.06 0 0
-0.05 0 0
-0.04 0 0
-0.03 0 0
-0.02 0 0
-0.01 0 0
1.01 0 0
1.02 0 0
1.03 0 0
1.04 0 0
1.05 0 0
1.06 0 0
1.07 0 0
1.08 0 0
1.09 0 0
1.1 0 0
1.11 0 0
1.12 0 0
1.13 0 0
1.14 0 0
1.15 0 0
1.16 0 0
1.17 0 0
1.18 0 0
1.19 0 0
1.2 0 0
1.21 0 0
1.22 0 0
1.23 0 0
1.24 0 0
1.25 0 0
1.26 0 0
1.27 0 0
1.28 0 0
1.29 0 0
1.3 0 0
1.31 0 0
1.32 0 0
1.33 0 0
1.34 0 0
1.35 0 0
1.36 0 0
1.37 0 0
1.38 0 0
1.39 0 0
1.4 0 0
1.41 0 0
1.42 0 0
1.43 0 0
1.44 0 0
1.45 0 0
1.46 0 0
1.47 0 0
1.48 0 0
1.49 0 0
1.5 0 0
1.51 0 0
1.52 0 0
1.53 0 0
1.54 0 0
1.55 0 0
1.56 0 0
1.57 0 0
1.58 0 0
1.59 0 0
1.6 0 0
1.61 0 0
1.62 0 0
1.63 0 0
1.64 0 0
1.65 0 0
1.66 0 0
1.67 0 0
1.68 0 0
1.69 0 0
1.7 0 0
1.71 0 0
1.72 0 0
1.73 0 0
1.74 0 0
1.75 0 0
1.76 0 0
1.77 0 0
1.78 0 0
1.79 0 0
1.8 0 0
1.81 0 0
1.82 0 0
1.83 0 0
1.84 0 0
1.85 0 0
1.86 0 0
1.87 0 0
1.88 0 0
1.89 0 0
1.9 0 0
1.91 0 0
1.92 0 0
1.93 0 0
1.94 0 0
1.95 0 0
1.96 0 0
1.97 0 0
1.98 0 0
1.99 0 0
2 0.0100088 0
2 0.0204183 0
2 0.0312446 0
2 0.0425043 0
2 0.0542147 0
2 0.066394 0
2 0.079061 0
2 0.092235 0
2 0.105936 0
2 0.120186 0
2 0.135007 0
2 0.150421 0
2 0.166452 0
2 0.183124 0
2 0.200465 0
2 0.218499 0
2 0.237256 0
2 0.256763 0
2 0.277051 0
2 0.298152 0
2 0.320097 0
2 0.342921 0
2 0.366659 0
2 0.391347 0
2 0.417024 0
2 0.443728 0
2 0.471502 0
2 0.500387 0
2 0.530429 0
2 0.561674 0
2 0.594169 0
2 0.627966 0
2 0.663115 0
2 0.699672 0
2 0.737692 0
2 0.777235 0
2 0.818361 0
2 0.861133 0
2 0.905617 0
2 0.951882 0
1.95 1 0
1.9 1 0
1.85 1 0
1.8 1 0
1.75 1 0
1.7 1 0
1.65 1 0
1.6 1 0
1.55 1 0
1.5 1 0
1.45 1 0
1.4 1 0
1.35 1 0
1.3 1 0
1.25 1 0
1.2 1 0
1.15 1 0
1.1 1 0
1.05 1 0
1 1 0
0.95 1 0
0.9 1 0
0.85 1 0
0.8 1 0
0.75 1 0
0.7 1 0
0.65 1 0
0.6 1 0
0.55 1 0
0.5 1 0
0.45 1 0
0.4 1 0
0.35 1 0
0.3 1 0
0.25 1 0
0.2 1 0
0.15 1 0
0.1 1 0
0.05 1 0
3.69793e-12 1 0
-0.05 1 0
-0.1 1 0
-0.15 1 0
-0.2 1 0
-0.25 1 0
-0.3 1 0
-0.35 1 0
-0.4 1 0
-0.45 1 0
-0.5 1 0
-0.55 1 0
-0.6 1 0
-0.65 1 0
-0.7 1 0
-0.75 1 0
-0.8 1 0
-0.85 1 0
-0.9 1 0
-0.95 1 0
-1 0.951882 0
-1 0.905617 0
-1 0.861133 0
-1 0.818361 0
-1 0.777235 0
-1 0.737692 0
-1 0.699672 0
-1 0.663115 0
-1 0.627966 0
-1 0.594169 0
-1 0.561674 0
-1 0.530429 0
-1 0.500387 0
-1 0.471502 0
-1 0.443728 0
-1 0.417024 0
-1 0.391347 0
-1 0.366659 0
-1 0.342921 0
-1 0.320097 0
-1 0.298152 0
-1 0.277051 0
-1 0.256763 0
-1 0.237256 0
-1 0.218499 0
-1 0.200465 0
-1 0.183124 0
-1 0.166452 0
-1 0.150421 0
-1 0.135007 0
-1 0.120186 0
-1 0.105936 0
-1 0.092235 0
-1 0.079061 0
-1 0.066394 0
-1 0.0542147 0
-1 0.0425043 0
-1 0.0312446 0
-1 0.0204183 0
-1 0.0100088 0
0.00921362 0.00379763 0
0.0184561 0.00752451 0
0.0277268 0.0111804 0
0.0370253 0.0147652 0
0.0463511 0.0182786 0
0.0557034 0.0217203 0
0.0650819 0.0250903 0
0.074486 0.0283883 0
0.083915 0.0316141 0
0.0933685 0.0347675 0
0.102846 0.0378484 0
0.112347 0.0408565 0
0.12187 0.0437917 0
0.131416 0.0466538 0
0.140983 0.0494427 0
0.150572 0.0521581 0
0.160181 0.0547999 0
0.16981 0.0573681 0
0.179458 0.0598623 0
0.189125 0.0622825 0
0.198811 0.0646285 0
0.208514 0.0669001 0
0.218234 0.0690974 0
0.227971 0.07122 0
0.237724 0.073268 0
0.247493 0.0752411 0
0.257276 0.0771393 0
0.267073 0.0789625 0
0.276884 0.0807105 0
0.286708 0.0823832 0
0.296545 0.0839806 0
0.306394 0.0855025 0
0.316254 0.0869488 0
0.326125 0.0883196 0
0.336006 0.0896146 0
0.345896 0.0908339 0
0.355796 0.0919773 0
0.365704 0.0930447 0
0.375621 0.0940362 0
0.385544 0.0949517 0
0.395474 0.095791 0
0.40541 0.0965542 0
0.415352 0.0972412 0
0.425299 0.097852 0
0.43525 0.0983865 0
0.445205 0.0988447 0
0.455164 0.0992266 0
0.465125 0.0995321 0
0.475088 0.0997613 0
0.485052 0.0999141 0
0.495017 0.0999904 0
0.504983 0.0999904 0
0.514948 0.0999141 0
0.524912 0.0997613 0
0.534875 0.0995321 0
0.544836 0.0992266 0
0.554795 0.0988447 0
0.56475 0.0983865 0
0.574701 0.097852 0
0.584648 0.0972412 0
0.59459 0.0965542 0
0.604526 0.095791 0
0.614456 0.0949517 0
0.624379 0.0940362 0
0.634296 0.0930447 0
0.644204 0.0919773 0
0.654104 0.0908339 0
0.663994 0.0896146 0
0.673875 0.0883196 0
0.683746 0.0869488 0
0.693606 0.0855025 0
0.703455 0.0839806 0
0.713292 0.0823832 0
0.723116 0.0807105 0
0.732927 0.0789625 0
0.742724 0.0771393 0
0.752508 0.0752411 0
0.762276 0.073268 0
0.772029 0.07122 0
0.781766 0.0690974 0
0.791486 0.0669001 0
0.801189 0.0646285 0
0.810875 0.0622825 0
0.820542 0.0598623 0
0.83019 0.0573681 0
0.839819 0.0547999 0
0.849428 0.0521581 0
0.859017 0.0494427 0
0.868584 0.0466538 0
0.87813 0.0437917 0
0.887653 0.0408565 0
0.897154 0.0378484 0
0.906631 0.0347675 0
0.916085 0.0316141 0
0.925514 0.0283883 0
0.934918 0.0250903 0
0.944297 0.0217203 0
0.953649 0.0182786 0
0.962975 0.0147652 0
0.972273 0.0111804 0
0.981544 0.00752451 0
0.990786 0.00379763 0
-1 0.951882 0.1
-1 0.905617 0.1
-1 0.861133 0.1
-1 0.818361 0.1
-1 0.777235 0.1
-1 0.737692 0.1
-1 0.699672 0.1
-1 0.663115 0.1
-1 0.627966 0.1
-1 0.594169 0.1
-1 0.561674 0.1
-1 0.530429 0.1
-1 0.500387 0.1
-1 0.471502 0.1
-1 0.443728 0.1
-1 0.417024 0.1
-1 0.391347 0.1
-1 0.366659 0.1
-1 0.342921 0.1
-1 0.320097 0.1
-1 0.298152 0.1
-1 0.277051 0.1
-1 0.256763 0.1
-1 0.237256 0.1
-1 0.218499 0.1
-1 0.200465 0.1
-1 0.183124 0.1
-1 0.166452 0.1
-1 0.150421 0.1
-1 0.135007 0.1
-1 0.120186 0.1
-1 0.105936 0.1
-1 0.092235 0.1
-1 0.079061 0.1
-1 0.066394 0.1
-1 0.0542147 0.1
-1 0.0425043 0.1
-1 0.0312446 0.1
-1 0.0204183 0.1
-1 0.0100088 0.1
-0.99 0 0.1
-0.98 0 0.1
-0.97 0 0.1
-0.96 0 0.1
-0.95 0 0.1
-0.94 0 0.1
-0.93 0 0.1
-0.92 0 0.1
-0.91 0 0.1
-0.9 0 0.1
-0.89 0 0.1
-0.88 0 0.1
-0.87 0 0.1
-0.86 0 0.1
-0.85 0 0.1
-0.84 0 0.1
-0.83 0 0.1
-0.82 0 0.1
-0.81 0 0.1
-0.8 0 0.1
-0.79 0 0.1
-0.78 0 0.1
-0.77 0 0.1
-0.76 0 0.1
-0.75 0 0.1
-0.74 0 0.1
-0.73 0 0.1
-0.72 0 0.1
-0.71 0 0.1
-0.7 0 0.1
-0.69 0 0.1
-0.68 0 0.1
-0.67 0 0.1
-0.66 0 0.1
-0.65 0 0.1
-0.64 0 0.1
-0.63 0 0.1
-0.62 0 0.1
-0.61 0 0.1
-0.6 0 0.1
-0.59 0 0.1
-0.58 0 0.1
-0.57 0 0.1
-0.56 0 0.1
-0.55 0 0.1
-0.54 0 0.1
-0.53 0 0.1
-0.52 0 0.1
-0.51 0 0.1
-0.5 0 0.1
-0.49 0 0.1
-0.48 0 0.1
-0.47 0 0.1
-0.46 0 0.1
-0.45 0 0.1
-0.44 0 0.1
-0.43 0 0.1
-0.42 0 0.1
-0.41 0 0.1
-0.4 0 0.1
-0.39 0 0.1
-0.38 0 0.1
-0.37 0 0.1
-0.36 0 0.1
-0.35 0 0.1
-0.34 0 0.1
-0.33 0 0.1
-0.32 0 0.1
-0.31 0 0.1
-0.3 0 0.1
-0.29 0 0.1
-0.28 0 0.1
-0.27 0 0.1
-0.26 0 0.1
-0.25 0 0.1
-0.24 0 0.1
-0.23 0 0.1
-0.22 0 0.1
-0.21 0 0.1
-0.2 0 0.1
-0.19 0 0.1
-0.18 0 0.1
-0.17 0 0.1
-0.16 0 0.1
-0.15 0 0.1
-0.14 0 0.1
-0.13 0 0.1
-0.12 0 0.1
-0.11 0 0.1
-0.1 0 0.1
-0.09 0 0.1
-0.08 0 0.1
-0.07 0 0.1
-0.06 0 0.1
-0.05 0 0.1
-0.04 0 0.1
-0.03 0 0.1
-0.02 0 0.1
-0.01 0 0.1
0.00921362 0.00379763 0.1
0.0184561 0.00752451 0.1
0.0277268 0.0111804 0.1
0.0370253 0.0147652 0.1
0.0463511 0.0182786 0.1
0.0557034 0.0217203 0.1
0.0650819 0.0250903 0.1
0.074486 0.0283883 0.1
0.083915 0.0316141 0.1
0.0933685 0.0347675 0.1
0.102846 0.0378484 0.1
0.112347 0.0408565 0.1
0.12187 0.0437917 0.1
0.131416 0.0466538 0.1
0.140983 0.0494427 0.1
0.150572 0.0521581 0.1
0.160181 0.0547999 0.1
0.16981 0.0573681 0.1
0.179458 0.0598623 0.1
0.189125 0.0622825 0.1
0.198811 0.0646285 0.1
0.208514 0.0669001 0.1
0.218234 0.0690974 0.1
0.227971 0.07122 0.1
0.237724 0.073268 0.1
0.247493 0.0752411 0.1
0.257276 0.0771393 0.1
0.267073 0.0789625 0.1
0.276884 0.0807105 0.1
0.286708 0.0823832 0.1
0.296545 0.0839806 0.1
0.306394 0.0855025 0.1
0.316254 0.0869488 0.1
0.326125 0.0883196 0.1
0.336006 0.0896146 0.1
0.345896 0.0908339 0.1
0.355796 0.0919773 0.1
0.365704 0.0930447 0.1
0.375621 0.0940362 0.1
0.385544 0.0949517 0.1
0.395474 0.095791 0.1
0.40541 0.0965542 0.1
0.415352 0.0972412 0.1
0.425299 0.097852 0.1
0.43525 0.0983865 0.1
0.445205 0.0988447 0.1
0.455164 0.0992266 0.1
0.465125 0.0995321 0.1
0.475088 0.0997613 0.1
0.485052 0.0999141 0.1
0.495017 0.0999904 0.1
0.504983 0.0999904 0.1
0.514948 0.0999141 0.1
0.524912 0.0997613 0.1
0.534875 0.0995321 0.1
0.544836 0.0992266 0.1
0.554795 0.0988447 0.1
0.56475 0.0983865 0.1
0.574701 0.097852 0.1
0.584648 0.0972412 0.1
0.59459 0.0965542 0.1
0.604526 0.095791 0.1
0.614456 0.0949517 0.1
0.624379 0.0940362 0.1
0.634296 0.0930447 0.1
0.644204 0.0919773 0.1
0.654104 0.0908339 0.1
0.663994 0.0896146 0.1
0.673875 0.0883196 0.1
0.683746 0.0869488 0.1
0.693606 0.0855025 0.1
0.703455 0.0839806 0.1
0.713292 0.0823832 0.1
0.723116 0.0807105 0.1
0.732927 0.0789625 0.1
0.742724 0.0771393 0.1
0.752508 0.0752411 0.1
0.762276 0.073268 0.1
0.772029 0.07122 0.1
0.781766 0.0690974 0.1
0.791486 0.0669001 0.1
0.801189 0.0646285 0.1
0.810875 0.0622825 0.1
0.820542 0.0598623 0.1
0.83019 0.0573681 0.1
0.839819 0.0547999 0.1
0.849428 0.0521581 0.1
0.859017 0.0494427 0.1
0.868584 0.0466538 0.1
0.87813 0.0437917 0.1
0.887653 0.0408565 0.1
0.897154 0.0378484 0.1
0.906631 0.0347675 0.1
0.916085 0.0316141 0.1
0.925514 0.0283883 0.1
0.934918 0.0250903 0.1
0.944297 0.0217203 0.1
0.953649 0.0182786 0.1
0.962975 0.0147652 0.1
0.972273 0.0111804 0.1
0.981544 0.00752451 0.1
0.990786 0.00379763 0.1
1.01 0 0.1
1.02 0 0.1
1.03 0 0.1
[...]
CELL_DATA 14313
SCALARS rho float
LOOKUP_TABLE default
0.828897
0.829226
0.814292
0.699629
0.825845
0.863577
0.863208
0.863348
0.81538
0.819529
0.863823
0.806763
0.801818
0.726248
0.862797
0.868755
0.8127
0.814308
0.859752
0.813961
0.862389
0.822968
0.863269
0.825786
0.862522
0.81905
0.799209
0.744781
0.828711
0.863233
0.863402
0.804768
0.806217
0.862503
0.80745
0.860028
0.774145
0.81285
0.862201
0.805101
0.810859
0.862018
0.701756
0.785585
0.861909
0.866922
0.861049
0.799864
0.846754
0.857082
0.77175
0.742759
0.745656
0.859978
0.86168
0.802288
0.861903
0.823647
0.81519
0.862631
0.863656
0.862364
0.804829
0.869462
0.861972
0.862275
0.858802
0.802698
0.874023
0.862792
0.806593
0.868478
0.71358
0.870916
0.802871
0.854328
0.830698
0.802841
0.769035
0.862909
0.714684
0.863514
0.864811
0.805198
0.853265
0.862458
0.863551
0.807162
0.860129
0.813992
0.801429
0.727894
0.811043
0.80346
0.802923
0.805977
0.861873
0.860178
0.805906
0.715181
0.851162
0.860537
0.863243
0.851818
0.808079
0.813068
0.805731
0.770232
0.869592
0.859652
0.819244
0.864754
0.859924
0.862491
0.806373
0.86563
0.861793
0.870257
0.80115
0.80391
0.862118
0.860293
0.884596
0.800589
0.848911
0.816299
0.837573
0.807184
0.862004
0.848576
0.860003
0.863395
0.885494
0.863269
0.86427
0.802183
0.820127
0.805388
0.861958
0.862169
0.863208
0.860171
0.803509
0.80489
0.80822
0.873094
0.808923
0.792502
0.838508
0.86215
0.80309
0.805086
0.863272
0.788549
0.861276
0.805965
0.786754
0.863333
0.862827
0.815942
0.862339
0.812372
0.766257
0.7916
0.8642
0.830371
0.768963
0.862083
0.866351
0.821523
0.778452
0.8218
0.78547
0.83659
0.857085
0.832128
0.857321
0.852798
0.863273
0.789818
0.862898
0.860053
0.822682
0.790939
0.805022
0.82368
0.862834
0.808459
0.703277
0.832781
0.795475
0.790276
0.794967
0.785953
0.862599
0.860643
0.811007
0.805008
0.855771
0.862072
0.815694
0.805786
0.866648
0.862014
0.868992
0.804943
0.822365
0.81958
0.862839
0.866143
0.809232
0.853389
0.839028
0.771483
0.861553
0.832005
0.860475
0.812661
0.869326
0.807192
0.80516
0.823911
0.855697
0.88388
0.851647
0.805776
0.862295
0.803796
0.863344
0.813549
0.765509
0.819322
0.769977
0.865745
0.803777
0.800837
0.860809
0.861471
0.86055
0.832314
0.806861
0.743551
0.813577
0.750388
0.861639
0.787278
0.805881
0.810516
0.870981
0.821186
0.715648
0.806351
0.77779
0.872151
0.805909
0.781075
0.853755
0.865339
0.861916
0.726114
0.818096
0.805849
0.847608
0.851125
0.833555
0.822966
0.821832
0.821341
0.72603
0.862006
0.86161
0.797533
0.809803
0.863816
0.801163
0.860363
0.835776
0.792237
0.812823
0.808792
0.712363
0.700323
0.795161
0.857257
0.86309
0.804702
0.863447
0.86203
0.799132
0.809308
0.805242
0.862056
0.867475
0.840144
0.812485
0.817681
0.763934
0.854346
0.783059
0.803146
0.804647
0.795667
0.870042
0.813012
0.801616
0.776465
0.773423
0.846198
0.811134
0.824337
0.808176
0.804823
0.742013
0.861591
0.827099
0.822707
0.863831
0.861194
0.806015
0.833703
0.862148
0.745724
0.858387
0.863485
0.861928
0.862047
0.820625
0.861309
0.803632
0.862127
0.861032
0.776402
0.791873
0.803762
0.803809
0.717022
0.863158
0.817781
0.812572
0.860836
0.8073
0.805849
0.777111
0.784649
0.861964
0.803709
0.796308
0.8301
0.872236
0.861864
0.807219
0.812491
0.86324
0.807976
0.862115
0.835433
0.862106
0.81578
0.861407
0.838388
0.86008
0.839514
0.863515
0.713283
0.802919
0.804123
0.818018
0.850623
0.820547
0.8094
0.863318
0.86324
0.862319
0.795195
0.82285
0.8506
0.816941
0.782638
0.817741
0.853412
0.867333
0.864923
0.828081
0.809315
0.749356
0.83062
0.740524
0.808275
0.814524
0.850316
0.861396
0.896796
0.701097
0.743141
0.871476
0.895105
0.859985
0.764239
0.807828
0.785673
0.853181
0.821456
0.774934
0.751004
0.811812
0.8613
0.717352
0.896416
0.864631
0.847303
0.812486
0.711043
0.810538
0.829251
0.862224
0.809974
0.805454
0.867795
0.863374
0.790224
0.778605
0.803662
0.809637
0.860881
0.863282
0.816872
0.863667
0.80489
0.806583
0.806501
0.805031
0.819521
0.862231
0.816079
0.862744
0.863296
0.818585
0.80847
0.806062
0.841741
0.86358
0.85836
0.852165
0.764774
0.803982
0.857709
0.818261
0.858368
0.810778
0.861422
0.811346
0.860757
0.86157
0.737083
0.883743
0.800389
0.86316
0.849702
0.773103
0.858583
0.80471
0.865089
0.702491
0.806241
0.775752
0.863724
0.812936
0.72434
0.813587
0.807389
0.806757
0.812299
0.850229
0.823327
0.863554
0.741842
0.809266
0.80938
0.813253
0.861404
0.818524
0.863708
0.860513
0.803868
0.861949
0.801512
0.804361
0.863339
0.731939
0.82111
0.804188
0.704584
0.864919
0.72229
0.809153
0.86247
0.884836
0.76777
0.810565
0.863573
0.809392
0.805571
0.841999
0.823665
0.861099
0.863289
0.811774
0.862528
0.821565
0.715487
0.862607
0.862269
0.810504
0.861744
0.742596
0.860488
0.862998
0.779191
0.804452
0.862506
0.805878
0.835567
0.863837
0.806539
0.767559
0.710106
0.861614
0.711424
0.804368
0.804088
0.793302
0.863817
0.789134
0.862735
0.817048
0.804168
0.702866
0.861468
0.866093
0.868115
0.852518
0.805082
0.804327
0.862821
0.780316
0.877927
0.845543
0.778949
0.803798
0.743672
0.800336
0.764108
0.858629
0.845716
0.805574
0.762678
0.823635
0.862182
0.864593
0.866575
0.851653
0.776183
0.701678
0.809918
0.861258
0.806053
0.822009
0.846773
0.797222
0.856941
0.860608
0.806012
0.861268
0.806391
0.768721
0.804397
0.81725
0.729019
0.763727
0.80859
0.862436
0.807337
0.71064
0.861925
0.719782
0.863268
0.795825
0.857265
0.861223
0.78237
0.853087
0.838212
0.807897
0.842738
0.846621
0.863559
0.807781
0.861937
0.724991
0.863111
0.885
0.85912
0.867017
0.806455
0.862711
0.802863
0.870044
0.819114
0.822062
0.77856
0.763102
0.871185
0.862357
0.870499
0.797587
0.806001
0.794098
0.802227
0.819853
0.838741
0.854175
0.862649
0.864039
0.866061
0.867838
0.80996
0.773647
0.850887
0.793022
0.844057
0.860787
0.804278
0.819429
0.794197
0.809887
0.809648
0.877635
0.857176
0.803537
0.811217
0.870311
0.865862
0.804774
0.884623
0.81081
0.862492
0.775419
0.804222
0.80673
0.805268
0.868781
0.72233
0.810651
0.808496
0.765803
0.862036
0.867103
0.862124
0.804089
0.809624
0.808341
0.861312
0.805357
0.749952
0.698823
0.862457
0.853625
0.805311
0.808066
0.807319
0.808602
0.861125
0.804476
0.862306
0.716388
0.86142
0.813804
0.862947
0.873393
0.862169
0.839287
0.863102
0.80319
0.862877
0.758593
0.808312
0.856733
0.862848
0.804519
0.861862
0.74025
0.809092
0.743608
0.7751
0.779213
0.813776
0.861239
0.817902
0.704607
0.76811
0.80496
0.868131
0.804239
0.840827
0.807915
0.811743
0.845902
0.740565
0.792541
0.722298
0.805096
0.863475
0.809581
0.857585
0.751797
0.738542
0.859678
0.806268
0.861874
0.7929
0.862373
0.702452
0.862803
0.739648
0.862079
0.860946
0.803804
0.805418
0.865207
0.83697
0.808906
0.850968
0.738923
0.817095
0.768056
0.804432
0.804646
0.862279
0.822899
0.793099
0.860201
0.779419
0.804481
0.750315
0.810347
0.77
0.752792
0.864681
0.863233
0.805731
0.800551
0.816862
0.754608
0.859279
0.804431
0.756772
0.865548
0.861323
0.765583
0.769315
0.865526
0.80497
0.799875
0.838655
0.870587
0.871441
0.863531
0.701055
0.806544
0.85602
0.862622
0.731032
0.740798
0.821235
0.863164
0.787133
0.800414
0.863744
0.851912
0.79632
0.862633
0.862396
0.804506
0.788244
0.808202
0.845813
0.858261
0.723068
0.808434
0.86359
0.709267
0.861281
0.852124
0.86382
0.754865
0.86347
0.862037
0.86351
0.804724
0.86246
0.814777
0.811287
0.807843
0.804185
0.861701
0.720944
0.856056
0.814728
0.787578
0.745427
0.803512
0.804773
0.863687
0.781886
0.744233
0.862776
0.833619
0.863734
0.863038
0.862251
0.865173
0.803114
0.746933
0.863299
0.844459
0.863817
0.73568
0.848616
0.794458
0.861915
0.859511
0.863731
0.862007
0.80854
0.86265
0.811908
0.783984
0.860319
0.862993
0.812512
0.805262
0.795844
0.742576
0.784105
0.832116
0.860184
0.862767
0.816505
0.859272
0.804198
0.842031
0.811795
0.734285
0.780299
0.863203
0.805089
0.807405
0.822982
0.74671
0.86223
0.806287
0.873933
0.858296
0.761512
0.808003
0.806215
0.871907
0.78699
0.726169
0.714332
0.732767
0.860858
0.813779
0.727988
0.747041
0.862919
0.863512
0.907524
0.80733
0.862401
0.863115
0.791278
0.861347
0.862538
0.8637
0.861332
0.863823
0.802648
0.860015
0.764832
0.861295
0.804996
0.855991
0.780241
0.861949
0.7204
0.861045
0.805795
0.864544
0.863837
0.811589
0.774196
0.829778
0.860594
0.842876
0.863555
0.861588
0.766127
0.864271
0.861834
0.862868
0.867732
0.863984
0.703429
0.801519
0.808107
0.818376
0.821616
0.805827
0.803037
0.861976
0.797098
0.810267
0.86192
0.887655
0.868455
0.744612
0.842415
0.79001
0.86204
0.794931
0.862265
0.807494
0.810925
0.863312
0.832228
0.850158
0.822305
0.826751
0.803452
0.775393
0.807185
0.785724
0.860748
0.842927
0.843689
0.806925
0.857341
0.780833
0.743688
0.863755
0.802997
0.863594
0.804882
0.760736
0.80933
0.800023
0.770023
0.862412
0.774885
0.813152
0.860477
0.887035
0.819182
0.815456
0.797249
0.863079
0.822786
0.871868
0.903401
0.802808
0.70117
0.804877
0.742502
0.798482
0.746403
0.806434
0.716181
0.861985
0.856445
0.810398
0.862314
0.862406
0.809924
0.803417
0.782567
0.830436
0.862928
0.807071
0.854153
0.805563
0.804985
0.851322
0.759687
0.862029
0.807105
0.852069
0.857536
0.813144
0.806212
0.86098
0.86114
0.856522
0.804654
0.83449
0.863581
0.837178
0.807577
0.862325
0.825784
0.711121
0.86296
0.862352
0.81325
0.753504
0.808125
0.852734
0.804056
0.790148
0.878745
0.863413
0.860337
0.863758
0.853381
0.825528
0.863616
0.834392
0.860333
0.863706
0.753942
0.863597
0.795352
0.823518
0.793813
0.806169
0.792321
0.807295
0.725379
0.860298
0.762177
0.70823
0.857065
0.752756
0.790854
0.861797
0.863375
0.825947
0.862613
0.793743
0.739278
0.864855
0.716547
0.862012
0.823401
0.803753
0.811783
0.862394
0.742783
0.807154
0.79339
0.861209
0.860604
0.836207
0.810711
0.777306
0.80829
0.766715
0.804587
0.810091
0.863733
0.860343
0.815982
0.863281
0.860991
0.761398
0.794905
0.72194
0.789437
0.862196
0.813682
0.869513
0.813174
0.861976
0.731152
0.879764
0.861988
0.865525
0.72451
0.863793
0.863513
0.874145
0.875257
0.860324
0.836047
0.862998
0.706478
0.810914
0.85902
0.744989
0.861339
0.808244
0.863595
0.811488
0.862502
0.861571
0.825774
0.751071
0.803574
0.803154
0.725845
0.862055
0.886417
0.861614
0.773832
0.828533
0.86228
0.862765
0.842358
0.717818
0.706814
0.807391
0.872271
0.809178
0.807921
0.861971
0.808728
0.81715
0.860565
0.803062
0.806445
0.807807
0.863061
0.808394
0.813468
0.805034
0.842014
0.867777
0.882383
0.862807
0.856439
0.861711
0.862745
0.863746
0.861677
0.860461
0.86549
0.812603
0.861644
0.754014
0.867724
0.732597
0.8924
0.805434
0.865022
0.805779
0.803216
0.834884
0.77132
0.827168
0.819785
0.818812
0.862386
0.799767
0.858175
0.717875
0.810987
0.862719
0.861995
0.807194
0.863346
0.721461
0.80255
0.703383
0.861239
0.802053
0.821645
0.807747
0.861692
0.863194
0.863056
0.764923
0.857511
0.86352
0.816214
0.805416
0.807732
0.770944
0.825738
0.814662
0.806214
0.785131
0.730645
0.701639
0.872737
0.809107
0.825746
0.801557
0.830249
0.804917
0.805726
0.862323
0.80089
0.783376
0.861993
0.812997
0.816594
0.867956
0.813211
0.863466
0.811908
0.704873
0.80501
0.863528
0.823863
0.861787
0.862015
0.865193
0.752857
0.745923
0.727542
0.861265
0.860581
0.807518
0.820332
0.76577
0.821201
0.81557
0.863654
0.807457
0.815856
0.713223
0.779684
0.850899
0.862519
0.808223
0.850881
0.864558
0.805156
0.805863
0.767308
0.853126
0.863721
0.807102
0.863303
0.803154
0.745493
0.821747
0.863309
0.714319
0.783454
0.844051
0.83419
0.789892
0.807867
0.806655
0.863612
0.784694
0.766992
0.862021
0.806296
0.804127
0.793511
0.716729
0.861085
0.763443
0.790895
0.759069
0.805753
0.802326
0.863135
0.770675
0.795822
0.808156
0.862012
0.716234
0.805515
0.831351
0.853444
0.718423
0.810089
0.802586
0.784878
0.784195
0.807003
0.862633
0.862679
0.857241
0.78441
0.79905
0.743969
0.869135
0.872093
0.860626
0.804942
0.888872
0.789468
0.862481
0.796578
0.805991
0.807321
0.863727
0.806812
0.863181
0.803745
0.792943
0.862842
0.801923
0.874632
0.784564
0.806495
0.809556
0.786173
0.807566
0.861731
0.711829
0.806651
0.805703
0.803157
0.863338
0.795953
0.811221
0.791
0.863638
0.813033
0.793777
0.863623
0.861007
0.866957
0.812998
0.831074
0.802705
0.80925
0.755239
0.863229
0.807222
0.776386
0.810638
0.801402
0.865883
0.85707
0.861589
0.873386
0.853765
0.790098
0.862269
0.837939
0.803446
0.725546
0.856972
0.853095
0.863513
0.828721
0.880685
0.865854
0.80183
0.848974
0.797385
0.803791
0.79915
0.863484
0.790577
0.739799
0.874551
0.768925
0.807568
0.869786
0.863154
0.77099
0.813633
0.80647
0.806459
0.806096
0.833396
0.807112
0.807045
0.808615
0.807807
0.803132
0.863365
0.828011
0.862006
0.817223
0.796735
0.828672
0.819545
0.863198
0.810721
0.706055
0.830105
0.859622
0.862588
0.786523
0.814468
0.803437
0.806748
0.861976
0.770393
0.861933
0.847902
0.84617
0.817688
0.862863
0.817347
0.810693
0.79755
0.813477
0.860828
0.811901
0.85536
0.853574
0.809141
0.863844
0.807727
0.833152
0.856091
0.863475
0.82265
0.833016
0.777726
0.862023
0.819809
0.807654
0.786651
0.80393
0.743762
0.804093
0.705168
0.804387
0.862064
0.793483
0.869597
0.729147
0.859333
0.79818
0.862079
0.699573
0.808971
0.833821
0.861806
0.862517
0.78484
0.874415
0.723914
0.859813
0.746799
0.805862
0.718635
0.757632
0.86251
0.863737
0.808279
0.807919
0.825842
0.722575
0.858701
0.790157
0.869842
0.863763
0.819601
0.862303
0.806197
0.844738
0.815733
0.808007
0.714826
0.804386
0.875538
0.805033
0.850939
0.796047
0.810573
0.86335
0.863564
0.801986
0.793489
0.859161
0.861792
0.719944
0.806519
0.737029
0.861967
0.730102
0.86367
0.823543
0.77465
0.761013
0.80053
0.793547
0.848505
0.818113
0.839071
0.806265
0.777686
0.806675
0.833859
0.803888
0.854764
0.848707
0.759761
0.769662
0.805538
0.798706
0.698791
0.86257
0.776262
0.806908
0.732289
0.861802
0.860495
0.865107
0.849278
0.843167
0.814621
0.744746
0.836778
0.814378
0.806816
0.861968
0.863662
0.86193
0.821534
0.864384
0.862016
0.746636
0.807211
0.803913
0.862784
0.76702
0.80677
0.829259
0.810405
0.768526
0.848632
0.786393
0.796784
0.81543
0.862878
0.757533
0.873176
0.797697
0.80819
0.801452
0.861408
0.876097
0.809491
0.728739
0.861946
0.72585
0.715055
0.796089
0.820509
0.821283
0.863535
0.804068
0.857364
0.863837
0.712872
0.803981
0.839992
0.863589
0.726201
0.790335
0.764194
0.862049
0.86104
0.765174
0.806127
0.862723
0.804996
0.840188
0.748676
0.874043
0.765793
0.862392
0.863122
0.77812
0.861879
0.749919
0.834354
0.749634
0.817362
0.837028
0.751466
0.793009
0.79638
0.866667
0.860587
0.862705
0.86375
0.804091
0.81808
0.808196
0.857354
0.809365
0.785401
0.813737
0.72112
0.828917
0.810878
0.80714
0.863513
0.864682
0.803413
0.782612
0.72747
0.768782
0.841059
0.821927
0.774243
0.748741
0.812051
0.861943
0.806577
0.813758
0.808207
0.857737
0.80649
0.70725
0.745528
0.802918
0.863535
0.889758
0.820716
0.863495
0.879662
0.804778
0.809101
0.862081
0.863189
0.853475
0.796049
0.812896
0.787206
0.888734
0.832702
0.862431
0.747108
0.801891
0.698842
0.711361
0.750853
0.85692
0.804666
0.857362
0.820588
0.804512
0.712897
0.836199
0.808808
0.806822
0.860792
0.808147
0.861737
0.873916
0.723497
0.85726
0.80415
0.861036
0.821357
0.862685
0.863325
0.815711
0.802277
0.809038
0.804882
0.802159
0.859573
0.850997
0.862475
0.799517
0.807312
0.749364
0.862441
0.863731
0.728104
0.797149
0.797046
0.716792
0.836992
0.806125
0.899699
0.804451
0.859627
0.817767
0.805974
0.802373
0.814319
0.802277
0.708657
0.735976
0.767105
0.801711
0.858841
0.805036
0.827081
0.804691
0.850459
0.862709
0.804104
0.88087
0.787063
0.863455
0.801592
0.711796
0.731195
0.862715
0.805208
0.810331
0.711732
0.804553
0.805488
0.747876
0.862005
0.841194
0.813918
0.861284
0.734157
0.752604
0.799597
0.862548
0.838027
0.754475
0.804521
0.745693
0.862024
0.864249
0.801071
0.827016
0.724427
0.861244
0.80317
0.787043
0.857843
0.808787
0.790524
0.800496
0.797174
0.862467
0.704648
0.810134
0.773706
0.804898
0.827875
0.749851
0.805351
0.857063
0.781933
0.820519
0.782777
0.861984
0.803807
0.782878
0.783788
0.855035
0.806606
0.86245
0.757267
0.808213
0.854367
0.863248
0.778208
0.86347
0.813985
0.86541
0.736413
0.861801
0.801144
0.863366
0.811229
0.87512
0.805484
0.862583
0.784718
0.861827
0.873081
0.837924
0.856218
0.851197
0.775229
0.854355
0.833483
0.808837
0.859566
0.809112
0.743489
0.828803
0.861933
0.787551
0.787746
0.804938
0.809363
0.756549
0.803573
0.702885
0.853848
0.784488
0.783242
0.862003
0.799941
0.84828
0.811717
0.847753
0.80672
0.862238
0.841529
0.788661
0.823286
0.729572
0.861686
0.798551
0.848682
0.807897
0.710014
0.803953
0.803163
0.857841
0.802907
0.861859
0.811897
0.735196
0.863878
0.85432
0.769734
0.807866
0.863127
0.807899
0.796329
0.819646
0.793559
0.807953
0.804607
0.812626
0.871885
0.76525
0.751723
0.804611
0.786038
0.796045
0.837111
0.701354
0.782262
0.804508
0.80649
0.804217
0.774538
0.863351
0.855944
0.805185
0.813811
0.862481
0.768757
0.769286
0.814271
0.862259
0.803174
0.877141
0.806643
0.863274
0.80458
0.857574
0.823829
0.81199
0.768704
0.820328
0.862018
0.806068
0.808894
0.804204
0.732538
0.85754
0.861116
0.863162
0.868645
0.861283
0.809841
0.712545
0.841597
0.777697
0.86557
0.810979
0.818044
0.831521
0.860716
0.862746
0.805636
0.707693
0.718629
0.862813
0.859189
0.718857
0.809004
0.861333
0.840112
0.711853
0.813409
0.861516
0.806534
0.812853
0.727608
0.862211
0.814098
0.710408
0.863174
0.861834
0.715653
0.814571
0.862066
0.794001
0.811104
0.848982
0.8612
0.802851
0.86481
0.704846
0.835808
0.822251
0.80659
0.808458
0.830585
0.862736
0.813412
0.808646
0.859021
0.804909
0.774001
0.856048
0.726968
0.863809
0.756208
0.788611
0.804594
0.788978
0.804387
0.711092
0.879364
0.863463
0.861749
0.804988
0.804994
0.803303
0.822239
0.862085
0.758812
0.781455
0.783172
0.861971
0.786726
0.738622
0.856911
0.830794
0.864738
0.859909
0.818926
0.79732
0.725856
0.808174
0.839055
0.717641
0.862008
0.862579
0.7944
0.809351
0.819461
0.749905
0.857344
0.818944
0.835886
0.730417
0.808957
0.802392
0.86579
0.862632
0.862118
0.817684
0.862676
0.747113
0.841647
0.861973
0.772035
0.709207
0.806905
0.806008
0.782955
0.862587
0.804149
0.812303
0.80222
0.891922
0.803944
0.807677
0.863935
0.886757
0.807055
0.858787
0.844312
0.861708
0.804977
0.783601
0.820712
0.806506
0.860915
0.804839
0.840201
0.875551
0.793524
0.862762
0.82152
0.807791
0.740673
0.705946
0.808158
0.813875
0.86109
0.806197
0.841375
0.863776
0.796806
0.809274
0.863762
0.828779
0.857763
0.796317
0.732029
0.810594
0.786847
0.800378
0.789473
0.788974
0.806651
0.803877
0.828156
0.804543
0.814232
0.803627
0.820662
0.86197
0.71006
0.803961
0.860368
0.860662
0.862322
0.849465
0.86076
0.849142
0.81167
0.863169
0.813933
0.80237
0.86119
0.806469
0.839637
0.807542
0.809458
0.720669
0.805579
0.807129
0.729742
0.850915
0.812751
0.809211
0.815759
0.786507
0.778632
0.863313
0.79559
0.819068
0.861674
0.751287
0.807744
0.864095
0.794983
0.81069
0.859433
0.796412
0.849892
0.842469
0.811998
0.862127
0.820917
0.80822
0.804079
0.861793
0.807529
0.802555
0.730955
0.861938
0.838487
0.809972
0.865381
0.784277
0.866907
0.856413
0.713291
0.811262
0.806794
0.807998
0.86156
0.861221
0.8642
0.80845
0.853202
0.862098
0.81766
0.804931
0.861188
0.809418
0.785192
0.793213
0.830182
0.862264
0.859084
0.824208
0.811318
0.820529
0.830056
0.814457
0.863121
0.77962
0.70886
0.771517
0.862187
0.811922
0.861731
0.874083
0.80441
0.797689
0.769755
0.80591
0.809811
0.787071
0.86294
0.779393
0.870306
0.796523
0.860154
0.912244
0.821098
0.805479
0.828636
0.815098
0.782477
0.818516
0.856815
0.806034
0.853002
0.798358
0.805296
0.814428
0.834933
0.804823
0.880914
0.798703
0.80421
0.720245
0.807154
0.768327
0.806613
0.804924
0.804879
0.830735
0.785418
0.850619
0.835623
0.87673
0.862491
0.863075
0.863047
0.912358
0.78893
0.808822
0.789154
0.803718
0.803945
0.808143
0.796663
0.805641
0.814526
0.766798
0.85513
0.808166
0.735707
0.878014
0.878489
0.812954
0.82017
0.807618
0.824901
0.806246
0.800511
0.802137
0.797106
0.80597
0.808447
0.799952
0.861975
0.807576
0.72921
0.863734
0.827137
0.856946
0.806143
0.731825
0.797375
0.812222
0.886542
0.717289
0.800233
0.845122
0.820535
0.841452
0.750623
0.7935
0.813621
0.862516
0.861849
0.871857
0.77558
0.793739
0.897658
0.81062
0.860851
0.80879
0.767116
0.75339
0.727304
0.768251
0.748236
0.824191
0.849607
0.807398
0.861698
0.84852
0.816458
0.887111
0.791587
0.864046
0.862218
0.861734
0.862003
0.862226
0.862687
0.861309
0.863808