# vtk DataFile Version 1.0
unstructured grid
ascii
DATASET UNSTRUCTURED_GRID
points 14760 float
-1 0 0
-1 1 0
2 0 0
2 1 0
0 0 0
1 0 0
-1 1 0.1
-1 0 0.1
0 0 0.1
1 0 0.1
2 0 0.1
2 1 0.1
-0.99 0 0
-0.98 0 0
-0.97 0 0
-0.96 0 0
-0.95 0 0
-0.94 0 0
-0.93 0 0
-0.92 0 0
-0.91 0 0
-0.9 0 0
-0.89 0 0
-0.88 0 0
-0.87 0 0
-0.86 0 0
-0.85 0 0
-0.84 0 0
-0.83 0 0
-0.82 0 0
-0.81 0 0
-0.8 0 0
-0.79 0 0
-0.78 0 0
-0.77 0 0
-0.76 0 0
-0.75 0 0
-0.74 0 0
-0.73 0 0
-0.72 0 0
-0.71 0 0
-0.7 0 0
-0.69 0 0
-0.68 0 0
-0.67 0 0
-0.66 0 0
-0.65 0 0
-0.64 0 0
-0.63 0 0
-0.62 0 0
-0.61 0 0
-0.6 0 0
-0.59 0 0
-0.58 0 0
-0.57 0 0
-0.56 0 0
-0.55 0 0
-0.54 0 0
-0.53 0 0
-0.52 0 0
-0.51 0 0
-0.5 0 0
-0.49 0 0
-0.48 0 0
-0.47 0 0
-0.46 0 0
-0.45 0 0
-0.44 0 0
-0.43 0 0
-0.42 0 0
-0.41 0 0
-0.4 0 0
-0.39 0 0
-0.38 0 0
-0.37 0 0
-0.36 0 0
-0.35 0 0
-0.34 0 0
-0.33 0 0
-0.32 0 0
-0.31 0 0
-0.3 0 0
-0.29 0 0
-0.28 0 0
-0.27 0 0
-0.26 0 0
-0.25 0 0
-0.24 0 0
-0.23 0 0
-0.22 0 0
-0.21 0 0
-0.2 0 0
-0.19 0 0
-0.18 0 0
-0.17 0 0
-0.16 0 0
-0.15 0 0
-0.14 0 0
-0.13 0 0
-0.12 0 0
-0.11 0 0
-0.1 0 0
-0.09 0 0
-0.08 0 0
-0.07 0 0
-0.06 0 0
-0.05 0 0
-0.04 0 0
-0.03 0 0
-0.02 0 0
-0.01 0 0
1.01 0 0
1.02 0 0
1.03 0 0
1.04 0 0
1.05 0 0
1.06 0 0
1.07 0 0
1.08 0 0
1.09 0 0
1.1 0 0
1.11 0 0
1.12 0 0
1.13 0 0
1.14 0 0
1.15 0 0
1.16 0 0
1.17 0 0
1.18 0 0
1.19 0 0
1.2 0 0
1.21 0 0
1.22 0 0
1.23 0 0
1.24 0 0
1.25 0 0
1.26 0 0
1.27 0 0
1.28 0 0
1.29 0 0
1.3 0 0
1.31 0 0
1.32 0 0
1.33 0 0
1.34 0 0
1.35 0 0
1.36 0 0
1.37 0 0
1.38 0 0
1.39 0 0
1.4 0 0
1.41 0 0
1.42 0 0
1.43 0 0
1.44 0 0
1.45 0 0
1.46 0 0
1.47 0 0
1.48 0 0
1.49 0 0
1.5 0 0
1.51 0 0
1.52 0 0
1.53 0 0
1.54 0 0
1.55 0 0
1.56 0 0
1.57 0 0
1.58 0 0
1.59 0 0
1.6 0 0
1.61 0 0
1.62 0 0
1.63 0 0
1.64 0 0
1.65 0 0
1.66 0 0
1.67 0 0
1.68 0 0
1.69 0 0
1.7 0 0
1.71 0 0
1.72 0 0
1.73 0 0
1.74 0 0
1.75 0 0
1.76 0 0
1.77 0 0
1.78 0 0
1.79 0 0
1.8 0 0
1.81 0 0
1.82 0 0
1.83 0 0
1.84 0 0
1.85 0 0
1.86 0 0
1.87 0 0
1.88 0 0
1.89 0 0
1.9 0 0
1.91 0 0
1.92 0 0
1.93 0 0
1.94 0 0
1.95 0 0
1.96 0 0
1.97 0 0
1.98 0 0
1.99 0 0
2 0.0100088 0
2 0.0204183 0
2 0.0312446 0
2 0.0425043 0
2 0.0542147 0
2 0.066394 0
2 0.079061 0
2 0.092235 0
2 0.105936 0
2 0.120186 0
2 0.135007 0
2 0.150421 0
2 0.166452 0
2 0.183124 0
2 0.200465 0
2 0.218499 0
2 0.237256 0
2 0.256763 0
2 0.277051 0
2 0.298152 0
2 0.320097 0
2 0.342921 0
2 0.366659 0
2 0.391347 0
2 0.417024 0
2 0.443728 0
2 0.471502 0
2 0.500387 0
2 0.530429 0
2 0.561674 0
2 0.594169 0
2 0.627966 0
2 0.663115 0
2 0.699672 0
2 0.737692 0
2 0.777235 0
2 0.818361 0
2 0.861133 0
2 0.905617 0
2 0.951882 0
1.95 1 0
1.9 1 0
1.85 1 0
1.8 1 0
1.75 1 0
1.7 1 0
1.65 1 0
1.6 1 0
1.55 1 0
1.5 1 0
1.45 1 0
1.4 1 0
1.35 1 0
1.3 1 0
1.25 1 0
1.2 1 0
1.15 1 0
1.1 1 0
1.05 1 0
1 1 0
0.95 1 0
0.9 1 0
0.85 1 0
0.8 1 0
0.75 1 0
0.7 1 0
0.65 1 0
0.6 1 0
0.55 1 0
0.5 1 0
0.45 1 0
0.4 1 0
0.35 1 0
0.3 1 0
0.25 1 0
0.2 1 0
0.15 1 0
0.1 1 0
0.05 1 0
3.69793e-12 1 0
-0.05 1 0
-0.1 1 0
-0.15 1 0
-0.2 1 0
-0.25 1 0
-0.3 1 0
-0.35 1 0
-0.4 1 0
-0.45 1 0
-0.5 1 0
-0.55 1 0
-0.6 1 0
-0.65 1 0
-0.7 1 0
-0.75 1 0
-0.8 1 0
-0.85 1 0
-0.9 1 0
-0.95 1 0
-1 0.951882 0
-1 0.905617 0
-1 0.861133 0
-1 0.818361 0
-1 0.777235 0
-1 0.737692 0
-1 0.699672 0
-1 0.663115 0
-1 0.627966 0
-1 0.594169 0
-1 0.561674 0
-1 0.530429 0
-1 0.500387 0
-1 0.471502 0
-1 0.443728 0
-1 0.417024 0
-1 0.391347 0
-1 0.366659 0
-1 0.342921 0
-1 0.320097 0
-1 0.298152 0
-1 0.277051 0
-1 0.256763 0
-1 0.237256 0
-1 0.218499 0
-1 0.200465 0
-1 0.183124 0
-1 0.166452 0
-1 0.150421 0
-1 0.135007 0
-1 0.120186 0
-1 0.105936 0
-1 0.092235 0
-1 0.079061 0
-1 0.066394 0
-1 0.0542147 0
-1 0.0425043 0
-1 0.0312446 0
-1 0.0204183 0
-1 0.0100088 0
0.00921362 0.00379763 0
0.0184561 0.00752451 0
0.0277268 0.0111804 0
0.0370253 0.0147652 0
0.0463511 0.0182786 0
0.0557034 0.0217203 0
0.0650819 0.0250903 0
0.074486 0.0283883 0
0.083915 0.0316141 0
0.0933685 0.0347675 0
0.102846 0.0378484 0
0.112347 0.0408565 0
0.12187 0.0437917 0
0.131416 0.0466538 0
0.140983 0.0494427 0
0.150572 0.0521581 0
0.160181 0.0547999 0
0.16981 0.0573681 0
0.179458 0.0598623 0
0.189125 0.0622825 0
0.198811 0.0646285 0
0.208514 0.0669001 0
0.218234 0.0690974 0
0.227971 0.07122 0
0.237724 0.073268 0
0.247493 0.0752411 0
0.257276 0.0771393 0
0.267073 0.0789625 0
0.276884 0.0807105 0
0.286708 0.0823832 0
0.296545 0.0839806 0
0.306394 0.0855025 0
0.316254 0.0869488 0
0.326125 0.0883196 0
0.336006 0.0896146 0
0.345896 0.0908339 0
0.355796 0.0919773 0
0.365704 0.0930447 0
0.375621 0.0940362 0
0.385544 0.0949517 0
0.395474 0.095791 0
0.40541 0.0965542 0
0.415352 0.0972412 0
0.425299 0.097852 0
0.43525 0.0983865 0
0.445205 0.0988447 0
0.455164 0.0992266 0
0.465125 0.0995321 0
0.475088 0.0997613 0
0.485052 0.0999141 0
0.495017 0.0999904 0
0.504983 0.0999904 0
0.514948 0.0999141 0
0.524912 0.0997613 0
0.534875 0.0995321 0
0.544836 0.0992266 0
0.554795 0.0988447 0
0.56475 0.0983865 0
0.574701 0.097852 0
0.584648 0.0972412 0
0.59459 0.0965542 0
0.604526 0.095791 0
0.614456 0.0949517 0
0.624379 0.0940362 0
0.634296 0.0930447 0
0.644204 0.0919773 0
0.654104 0.0908339 0
0.663994 0.0896146 0
0.673875 0.0883196 0
0.683746 0.0869488 0
0.693606 0.0855025 0
0.703455 0.0839806 0
0.713292 0.0823832 0
0.723116 0.0807105 0
0.732927 0.0789625 0
0.742724 0.0771393 0
0.752508 0.0752411 0
0.762276 0.073268 0
0.772029 0.07122 0
0.781766 0.0690974 0
0.791486 0.0669001 0
0.801189 0.0646285 0
0.810875 0.0622825 0
0.820542 0.0598623 0
0.83019 0.0573681 0
0.839819 0.0547999 0
0.849428 0.0521581 0
0.859017 0.0494427 0
0.868584 0.0466538 0
0.87813 0.0437917 0
0.887653 0.0408565 0
0.897154 0.0378484 0
0.906631 0.0347675 0
0.916085 0.0316141 0
0.925514 0.0283883 0
0.934918 0.0250903 0
0.944297 0.0217203 0
0.953649 0.0182786 0
0.962975 0.0147652 0
0.972273 0.0111804 0
0.981544 0.00752451 0
0.990786 0.00379763 0
-1 0.951882 0.1
-1 0.905617 0.1
-1 0.861133 0.1
-1 0.818361 0.1
-1 0.777235 0.1
-1 0.737692 0.1
-1 0.699672 0.1
-1 0.663115 0.1
-1 0.627966 0.1
-1 0.594169 0.1
-1 0.561674 0.1
-1 0.530429 0.1
-1 0.500387 0.1
-1 0.471502 0.1
-1 0.443728 0.1
-1 0.417024 0.1
-1 0.391347 0.1
-1 0.366659 0.1
-1 0.342921 0.1
-1 0.320097 0.1
-1 0.298152 0.1
-1 0.277051 0.1
-1 0.256763 0.1
-1 0.237256 0.1
-1 0.218499 0.1
-1 0.200465 0.1
-1 0.183124 0.1
-1 0.166452 0.1
-1 0.150421 0.1
-1 0.135007 0.1
-1 0.120186 0.1
-1 0.105936 0.1
-1 0.092235 0.1
-1 0.079061 0.1
-1 0.066394 0.1
-1 0.0542147 0.1
-1 0.0425043 0.1
-1 0.0312446 0.1
-1 0.0204183 0.1
-1 0.0100088 0.1
-0.99 0 0.1
-0.98 0 0.1
-0.97 0 0.1
-0.96 0 0.1
-0.95 0 0.1
-0.94 0 0.1
-0.93 0 0.1
-0.92 0 0.1
-0.91 0 0.1
-0.9 0 0.1
-0.89 0 0.1
-0.88 0 0.1
-0.87 0 0.1
-0.86 0 0.1
-0.85 0 0.1
-0.84 0 0.1
-0.83 0 0.1
-0.82 0 0.1
-0.81 0 0.1
-0.8 0 0.1
-0.79 0 0.1
-0.78 0 0.1
-0.77 0 0.1
-0.76 0 0.1
-0.75 0 0.1
-0.74 0 0.1
-0.73 0 0.1
-0.72 0 0.1
-0.71 0 0.1
-0.7 0 0.1
-0.69 0 0.1
-0.68 0 0.1
-0.67 0 0.1
-0.66 0 0.1
-0.65 0 0.1
-0.64 0 0.1
-0.63 0 0.1
-0.62 0 0.1
-0.61 0 0.1
-0.6 0 0.1
-0.59 0 0.1
-0.58 0 0.1
-0.57 0 0.1
-0.56 0 0.1
-0.55 0 0.1
-0.54 0 0.1
-0.53 0 0.1
-0.52 0 0.1
-0.51 0 0.1
-0.5 0 0.1
-0.49 0 0.1
-0.48 0 0.1
-0.47 0 0.1
-0.46 0 0.1
-0.45 0 0.1
-0.44 0 0.1
-0.43 0 0.1
-0.42 0 0.1
-0.41 0 0.1
-0.4 0 0.1
-0.39 0 0.1
-0.38 0 0.1
-0.37 0 0.1
-0.36 0 0.1
-0.35 0 0.1
-0.34 0 0.1
-0.33 0 0.1
-0.32 0 0.1
-0.31 0 0.1
-0.3 0 0.1
-0.29 0 0.1
-0.28 0 0.1
-0.27 0 0.1
-0.26 0 0.1
-0.25 0 0.1
-0.24 0 0.1
-0.23 0 0.1
-0.22 0 0.1
-0.21 0 0.1
-0.2 0 0.1
-0.19 0 0.1
-0.18 0 0.1
-0.17 0 0.1
-0.16 0 0.1
-0.15 0 0.1
-0.14 0 0.1
-0.13 0 0.1
-0.12 0 0.1
-0.11 0 0.1
-0.1 0 0.1
-0.09 0 0.1
-0.08 0 0.1
-0.07 0 0.1
-0.06 0 0.1
-0.05 0 0.1
-0.04 0 0.1
-0.03 0 0.1
-0.02 0 0.1
-0.01 0 0.1
0.00921362 0.00379763 0.1
0.0184561 0.00752451 0.1
0.0277268 0.0111804 0.1
0.0370253 0.0147652 0.1
0.0463511 0.0182786 0.1
0.0557034 0.0217203 0.1
0.0650819 0.0250903 0.1
0.074486 0.0283883 0.1
0.083915 0.0316141 0.1
0.0933685 0.0347675 0.1
0.102846 0.0378484 0.1
0.112347 0.0408565 0.1
0.12187 0.0437917 0.1
0.131416 0.0466538 0.1
0.140983 0.0494427 0.1
0.150572 0.0521581 0.1
0.160181 0.0547999 0.1
0.16981 0.0573681 0.1
0.179458 0.0598623 0.1
0.189125 0.0622825 0.1
0.198811 0.0646285 0.1
0.208514 0.0669001 0.1
0.218234 0.0690974 0.1
0.227971 0.07122 0.1
0.237724 0.073268 0.1
0.247493 0.0752411 0.1
0.257276 0.0771393 0.1
0.267073 0.0789625 0.1
0.276884 0.0807105 0.1
0.286708 0.0823832 0.1
0.296545 0.0839806 0.1
0.306394 0.0855025 0.1
0.316254 0.0869488 0.1
0.326125 0.0883196 0.1
0.336006 0.0896146 0.1
0.345896 0.0908339 0.1
0.355796 0.0919773 0.1
0.365704 0.0930447 0.1
0.375621 0.0940362 0.1
0.385544 0.0949517 0.1
0.395474 0.095791 0.1
0.40541 0.0965542 0.1
0.415352 0.0972412 0.1
0.425299 0.097852 0.1
0.43525 0.0983865 0.1
0.445205 0.0988447 0.1
0.455164 0.0992266 0.1
0.465125 0.0995321 0.1
0.475088 0.0997613 0.1
0.485052 0.0999141 0.1
0.495017 0.0999904 0.1
0.504983 0.0999904 0.1
0.514948 0.0999141 0.1
0.524912 0.0997613 0.1
0.534875 0.0995321 0.1
0.544836 0.0992266 0.1
0.554795 0.0988447 0.1
0.56475 0.0983865 0.1
0.574701 0.097852 0.1
0.584648 0.0972412 0.1
0.59459 0.0965542 0.1
0.604526 0.095791 0.1
0.614456 0.0949517 0.1
0.624379 0.0940362 0.1
0.634296 0.0930447 0.1
0.644204 0.0919773 0.1
0.654104 0.0908339 0.1
0.663994 0.0896146 0.1
0.673875 0.0883196 0.1
0.683746 0.0869488 0.1
0.693606 0.0855025 0.1
0.703455 0.0839806 0.1
0.713292 0.0823832 0.1
0.723116 0.0807105 0.1
0.732927 0.0789625 0.1
0.742724 0.0771393 0.1
0.752508 0.0752411 0.1
0.762276 0.073268 0.1
0.772029 0.07122 0.1
0.781766 0.0690974 0.1
0.791486 0.0669001 0.1
0.801189 0.0646285 0.1
0.810875 0.0622825 0.1
0.820542 0.0598623 0.1
0.83019 0.0573681 0.1
0.839819 0.0547999 0.1
0.849428 0.0521581 0.1
0.859017 0.0494427 0.1
0.868584 0.0466538 0.1
0.87813 0.0437917 0.1
0.887653 0.0408565 0.1
0.897154 0.0378484 0.1
0.906631 0.0347675 0.1
0.916085 0.0316141 0.1
0.925514 0.0283883 0.1
0.934918 0.0250903 0.1
0.944297 0.0217203 0.1
0.953649 0.0182786 0.1
0.962975 0.0147652 0.1
0.972273 0.0111804 0.1
0.981544 0.00752451 0.1
0.990786 0.00379763 0.1
1.01 0 0.1
1.02 0 0.1
1.03 0 0.1
[...]
CELL_DATA 14313
SCALARS rho float
LOOKUP_TABLE default
0.793189
0.829713
0.811773
0.612305
0.785411
0.829152
0.827964
0.828123
0.815676
0.820272
0.829348
0.804159
0.801254
0.674009
0.827641
0.840444
0.813609
0.813007
0.824259
0.811302
0.827892
0.81966
0.828029
0.785251
0.82723
0.81978
0.756742
0.71198
0.829183
0.833527
0.828403
0.800292
0.806548
0.827207
0.807937
0.824692
0.715244
0.813744
0.826865
0.805126
0.768566
0.827437
0.615056
0.731577
0.829169
0.842094
0.82562
0.788641
0.81456
0.858237
0.711657
0.679182
0.684551
0.824617
0.83012
0.792557
0.829157
0.820451
0.815446
0.827374
0.829077
0.829825
0.800271
0.84529
0.827398
0.827381
0.860091
0.793648
0.847914
0.827634
0.803727
0.840062
0.664377
0.84458
0.761827
0.819207
0.831397
0.761121
0.716156
0.827979
0.632824
0.833861
0.83964
0.805307
0.817856
0.830331
0.829097
0.807596
0.833657
0.812441
0.790649
0.675734
0.811903
0.8032
0.761877
0.806407
0.827685
0.824836
0.806091
0.666024
0.81782
0.825026
0.828
0.822666
0.764876
0.813899
0.80588
0.718507
0.842339
0.824148
0.818811
0.834536
0.82523
0.830366
0.806682
0.836398
0.830259
0.8437
0.789845
0.803717
0.826775
0.82503
0.863981
0.757215
0.850082
0.774138
0.801944
0.807628
0.827773
0.849656
0.824355
0.828361
0.865158
0.828045
0.833404
0.792487
0.8159
0.799642
0.829216
0.829163
0.827963
0.827742
0.804118
0.805437
0.803548
0.846592
0.809556
0.775892
0.805776
0.829166
0.802777
0.805209
0.828032
0.736364
0.830781
0.806376
0.73975
0.831753
0.827551
0.81668
0.829819
0.813232
0.722884
0.77388
0.833284
0.831074
0.739076
0.826995
0.837082
0.822318
0.721297
0.821218
0.734078
0.800597
0.821854
0.832857
0.821616
0.823821
0.831641
0.765817
0.828001
0.824415
0.785643
0.77956
0.798472
0.819945
0.827667
0.803941
0.636795
0.798343
0.776246
0.766691
0.781758
0.752763
0.827341
0.827067
0.81187
0.805084
0.819586
0.828856
0.775069
0.805943
0.837494
0.827879
0.841471
0.805472
0.821599
0.819204
0.827564
0.841082
0.809966
0.821315
0.806258
0.719853
0.827211
0.82938
0.824956
0.813574
0.842266
0.807637
0.805195
0.824124
0.819494
0.861064
0.819645
0.805942
0.829552
0.803555
0.828119
0.772401
0.71935
0.819942
0.717185
0.836137
0.80354
0.757683
0.825791
0.827145
0.826986
0.833002
0.79981
0.710486
0.770362
0.691859
0.827721
0.740402
0.806145
0.811292
0.844919
0.821975
0.633352
0.80665
0.751714
0.84516
0.806109
0.725546
0.821582
0.836059
0.827698
0.655062
0.818097
0.806029
0.811312
0.817187
0.799349
0.786004
0.820864
0.820608
0.668848
0.827772
0.827122
0.7846
0.807619
0.829436
0.790938
0.828133
0.797516
0.741585
0.809236
0.8094
0.628078
0.611541
0.775464
0.821498
0.831291
0.798087
0.82918
0.827876
0.787471
0.810041
0.805362
0.828793
0.838448
0.805084
0.812744
0.818551
0.709214
0.826561
0.746476
0.802847
0.799491
0.786945
0.843241
0.813829
0.801029
0.719492
0.714722
0.813843
0.811997
0.82459
0.80813
0.804884
0.678101
0.827744
0.827587
0.823014
0.829395
0.826449
0.806301
0.800836
0.827666
0.699101
0.822433
0.828332
0.82763
0.826957
0.78074
0.831006
0.803366
0.827669
0.826423
0.763006
0.771859
0.80431
0.804278
0.676481
0.82791
0.818664
0.813492
0.825752
0.807761
0.80488
0.750975
0.733084
0.827639
0.762274
0.776851
0.827207
0.845287
0.827484
0.807668
0.812853
0.828006
0.807586
0.82901
0.797148
0.828971
0.816498
0.825977
0.805493
0.824662
0.804251
0.828743
0.630573
0.802526
0.803964
0.818896
0.821671
0.781586
0.807183
0.82811
0.827997
0.829623
0.781918
0.823317
0.818471
0.775077
0.770785
0.817712
0.81809
0.838223
0.834554
0.828612
0.810063
0.69061
0.793081
0.668083
0.807707
0.809469
0.813593
0.827222
0.877948
0.619578
0.675682
0.845501
0.876005
0.825175
0.710306
0.808379
0.753705
0.818591
0.822228
0.724983
0.683427
0.768972
0.826546
0.674508
0.877503
0.834215
0.810935
0.813324
0.662363
0.768925
0.793563
0.829349
0.810776
0.805557
0.839045
0.828159
0.738721
0.721802
0.803408
0.810411
0.826184
0.828589
0.814495
0.829084
0.758805
0.799406
0.80303
0.805048
0.779512
0.829391
0.813662
0.827604
0.828551
0.776988
0.809038
0.806456
0.805702
0.828518
0.826247
0.818196
0.701519
0.796249
0.82701
0.817824
0.824379
0.811578
0.826538
0.812052
0.830546
0.831123
0.697444
0.86091
0.75824
0.831424
0.815957
0.75532
0.831772
0.804215
0.835047
0.615003
0.806576
0.717443
0.829063
0.813792
0.667536
0.808021
0.807863
0.803645
0.808567
0.813483
0.785494
0.828845
0.674158
0.809996
0.810098
0.807644
0.829268
0.779106
0.829018
0.825107
0.803704
0.828506
0.8009
0.804273
0.828114
0.663059
0.782688
0.757972
0.64325
0.834554
0.642047
0.807688
0.830114
0.862261
0.735608
0.768852
0.828508
0.810106
0.805697
0.806087
0.783442
0.825681
0.828051
0.806151
0.827512
0.822355
0.672542
0.827367
0.827371
0.81062
0.827165
0.671141
0.827123
0.831835
0.746085
0.797235
0.827516
0.804967
0.836268
0.838141
0.806944
0.751589
0.662169
0.827177
0.626496
0.804278
0.80402
0.78249
0.829416
0.76909
0.827676
0.812829
0.804134
0.641549
0.827266
0.836642
0.839391
0.823294
0.805193
0.80428
0.82757
0.767735
0.853714
0.844823
0.74696
0.803586
0.679735
0.789255
0.70119
0.826596
0.844853
0.80579
0.701411
0.783418
0.827475
0.834236
0.839979
0.822252
0.733179
0.617161
0.810715
0.827938
0.806284
0.82279
0.814776
0.784074
0.858244
0.827217
0.806407
0.828375
0.804011
0.752857
0.804369
0.818128
0.650357
0.709483
0.80783
0.827892
0.807808
0.625644
0.826589
0.641648
0.828028
0.781312
0.826453
0.828122
0.764853
0.818377
0.803879
0.808396
0.84362
0.845836
0.838003
0.808173
0.828457
0.646224
0.827862
0.862437
0.832351
0.838142
0.806785
0.831278
0.802466
0.845928
0.814824
0.819888
0.725109
0.708126
0.843804
0.827479
0.846649
0.750891
0.806216
0.778296
0.801739
0.81567
0.804544
0.819203
0.827598
0.833002
0.837025
0.838977
0.809786
0.759343
0.815906
0.762672
0.806418
0.830771
0.804142
0.820075
0.775969
0.809557
0.810427
0.85338
0.822015
0.804084
0.812095
0.842564
0.838922
0.805052
0.861987
0.80501
0.830779
0.726208
0.804153
0.804965
0.805411
0.840363
0.645033
0.810693
0.809048
0.702931
0.827777
0.838215
0.82751
0.804044
0.810395
0.807215
0.828057
0.805518
0.724532
0.620531
0.827564
0.818107
0.80537
0.808654
0.807784
0.808052
0.825676
0.804465
0.827585
0.633511
0.826587
0.814002
0.827702
0.848809
0.827489
0.839746
0.82843
0.802879
0.827702
0.703188
0.807921
0.858356
0.827686
0.799267
0.827488
0.668502
0.809813
0.692266
0.728451
0.726011
0.81408
0.827728
0.8174
0.638203
0.714588
0.805069
0.839526
0.761937
0.839434
0.808416
0.812495
0.80931
0.704536
0.771757
0.651528
0.805124
0.829169
0.810344
0.829088
0.692772
0.698995
0.861209
0.806541
0.827426
0.762475
0.827564
0.620626
0.831356
0.70393
0.82748
0.828596
0.80358
0.8055
0.834948
0.804605
0.80816
0.815814
0.666261
0.812777
0.707713
0.804358
0.80467
0.827571
0.820767
0.74636
0.827068
0.764054
0.804443
0.726582
0.811173
0.755571
0.694195
0.834338
0.827989
0.805971
0.752976
0.817751
0.689315
0.824275
0.804359
0.734125
0.8355
0.828208
0.710871
0.716054
0.835449
0.805294
0.752102
0.839084
0.842944
0.844146
0.828983
0.612887
0.765145
0.828558
0.830987
0.683719
0.671081
0.822048
0.827918
0.756658
0.789507
0.828945
0.81817
0.776852
0.82736
0.827563
0.804853
0.759768
0.806965
0.809397
0.82423
0.642439
0.809023
0.832281
0.624486
0.829122
0.85349
0.829323
0.698051
0.828787
0.826705
0.828675
0.804383
0.830064
0.809698
0.811203
0.808253
0.804132
0.82708
0.677821
0.821811
0.815662
0.742221
0.678331
0.795273
0.80482
0.828749
0.764417
0.697954
0.827634
0.796868
0.828896
0.831842
0.827456
0.834889
0.762009
0.686217
0.828783
0.844694
0.829325
0.706183
0.814627
0.746491
0.827076
0.824506
0.829306
0.829114
0.806543
0.827599
0.812737
0.767823
0.827579
0.827773
0.769704
0.799348
0.748916
0.692251
0.758743
0.795125
0.82728
0.827704
0.817397
0.824118
0.80415
0.807155
0.812309
0.704704
0.763341
0.828319
0.805174
0.807888
0.823326
0.679815
0.82747
0.806688
0.849774
0.822332
0.699821
0.801479
0.806485
0.848329
0.741281
0.65258
0.630865
0.664196
0.828599
0.810658
0.65831
0.689408
0.830955
0.828375
0.891811
0.807806
0.836398
0.827866
0.778478
0.825919
0.827362
0.828786
0.825897
0.829335
0.802227
0.82535
0.72094
0.827875
0.805304
0.821632
0.764905
0.828978
0.643932
0.862848
0.806191
0.835703
0.829463
0.812207
0.756465
0.830385
0.825629
0.842872
0.828939
0.826588
0.70914
0.835436
0.827378
0.827616
0.842989
0.832907
0.61661
0.800912
0.8087
0.819045
0.821899
0.806216
0.802666
0.82804
0.780821
0.811091
0.828315
0.867734
0.839885
0.68283
0.807717
0.771227
0.827539
0.777926
0.830301
0.807985
0.810868
0.828092
0.799129
0.81656
0.820787
0.827311
0.795511
0.73213
0.764089
0.746836
0.826753
0.843884
0.844612
0.76372
0.822006
0.763909
0.671877
0.829004
0.802623
0.829138
0.805013
0.700604
0.807529
0.78831
0.747765
0.827692
0.75523
0.81407
0.827774
0.865094
0.815571
0.812916
0.754454
0.827835
0.78706
0.846334
0.886693
0.802441
0.623208
0.804868
0.669927
0.783618
0.683254
0.804154
0.665295
0.827944
0.858029
0.810334
0.827776
0.830542
0.810587
0.804146
0.727485
0.831052
0.827673
0.807377
0.818939
0.799843
0.805113
0.817771
0.698839
0.82871
0.807531
0.853401
0.821728
0.810396
0.80647
0.826355
0.826513
0.820823
0.804918
0.799426
0.828501
0.804946
0.808089
0.827417
0.787006
0.62714
0.827748
0.82971
0.810173
0.730882
0.808679
0.818913
0.804491
0.745413
0.88179
0.82911
0.827837
0.829006
0.854637
0.789638
0.828592
0.799442
0.82737
0.832473
0.690565
0.828532
0.747679
0.824005
0.758213
0.806486
0.771618
0.807759
0.685452
0.824806
0.741932
0.658042
0.828439
0.689174
0.778065
0.828917
0.82816
0.789086
0.827486
0.758431
0.669188
0.835338
0.677438
0.828783
0.783572
0.803515
0.812199
0.827467
0.678663
0.807587
0.782525
0.826629
0.825696
0.836969
0.810586
0.719928
0.768519
0.705925
0.804597
0.810766
0.829183
0.827151
0.816644
0.828763
0.826453
0.697376
0.748464
0.678748
0.742892
0.827577
0.814606
0.841419
0.813958
0.827791
0.697848
0.882866
0.82802
0.835665
0.646959
0.832969
0.828388
0.848043
0.851553
0.833754
0.836774
0.831109
0.623175
0.810447
0.826154
0.716978
0.828417
0.808811
0.828565
0.812306
0.827329
0.826628
0.785477
0.72449
0.803332
0.802804
0.647945
0.827532
0.86439
0.827854
0.727059
0.829223
0.827325
0.830643
0.843265
0.678706
0.650232
0.807886
0.846779
0.809768
0.808485
0.827564
0.806843
0.817216
0.825095
0.802698
0.806781
0.80816
0.827813
0.808976
0.811709
0.805134
0.841761
0.839298
0.859149
0.827665
0.820685
0.827509
0.827639
0.828947
0.82628
0.827301
0.840454
0.812996
0.826252
0.698278
0.839185
0.699369
0.872527
0.805595
0.839823
0.806036
0.794879
0.79863
0.750219
0.827874
0.816747
0.819526
0.8275
0.787794
0.822215
0.63488
0.810686
0.827621
0.827124
0.802584
0.828199
0.645056
0.793322
0.616588
0.830534
0.801539
0.785779
0.808285
0.827137
0.827948
0.827807
0.745309
0.821829
0.82863
0.817118
0.805583
0.807641
0.756906
0.785488
0.81558
0.806579
0.745908
0.652091
0.63557
0.847706
0.809717
0.79
0.791593
0.829347
0.805074
0.806071
0.829625
0.790224
0.767208
0.828495
0.813923
0.817505
0.843457
0.810732
0.82886
0.812502
0.647529
0.805094
0.828693
0.786483
0.830052
0.82759
0.835166
0.696926
0.713258
0.652861
0.835179
0.827386
0.762902
0.817561
0.705114
0.821851
0.816508
0.82913
0.807944
0.816641
0.628909
0.72331
0.817167
0.827569
0.801207
0.814166
0.838213
0.805278
0.806041
0.710719
0.819126
0.829198
0.807523
0.828082
0.804132
0.673589
0.822393
0.828077
0.630545
0.745745
0.806374
0.834896
0.743773
0.807829
0.801126
0.828586
0.767985
0.709168
0.827265
0.802187
0.803967
0.779037
0.64317
0.830155
0.702017
0.76921
0.738289
0.806088
0.801855
0.828457
0.711572
0.781376
0.807984
0.82795
0.634102
0.805718
0.830713
0.818926
0.648712
0.809978
0.793323
0.750087
0.749256
0.805197
0.830358
0.827592
0.821839
0.747049
0.755082
0.674251
0.840868
0.848663
0.828085
0.796938
0.869325
0.74439
0.827559
0.781434
0.799388
0.80254
0.829171
0.807124
0.828303
0.795117
0.773837
0.830799
0.801388
0.849141
0.736583
0.798871
0.809658
0.739604
0.808077
0.827534
0.627694
0.805937
0.805946
0.804119
0.831821
0.779866
0.806965
0.741995
0.828622
0.813301
0.745223
0.828594
0.827943
0.837745
0.811159
0.797401
0.802301
0.809995
0.732468
0.827986
0.807685
0.718676
0.81148
0.791039
0.839267
0.828903
0.829727
0.846887
0.855133
0.746514
0.827555
0.805485
0.795476
0.650594
0.826361
0.816683
0.828371
0.790675
0.858686
0.839836
0.792048
0.850156
0.789087
0.8036
0.785341
0.828331
0.741383
0.668841
0.850428
0.707968
0.800303
0.845763
0.827906
0.710509
0.813793
0.765592
0.80677
0.803859
0.795652
0.807422
0.807476
0.807535
0.806569
0.794588
0.828241
0.792722
0.828562
0.81356
0.750638
0.794405
0.820092
0.827952
0.810189
0.620433
0.830603
0.825429
0.827298
0.749382
0.811007
0.803136
0.807115
0.828366
0.755401
0.82838
0.812504
0.814461
0.775753
0.827763
0.817499
0.811553
0.783122
0.814408
0.826253
0.812347
0.825028
0.819672
0.809722
0.83303
0.808056
0.799345
0.819889
0.828327
0.82309
0.794159
0.724612
0.827409
0.817698
0.808164
0.764042
0.796739
0.680148
0.804077
0.622025
0.804342
0.827725
0.784138
0.84244
0.681057
0.823724
0.753983
0.827316
0.613561
0.809685
0.834562
0.827067
0.830098
0.759489
0.848317
0.652534
0.831631
0.712603
0.806105
0.675956
0.696171
0.827326
0.828941
0.763581
0.808454
0.826372
0.646096
0.830229
0.778765
0.841881
0.829007
0.820453
0.827352
0.806593
0.844062
0.816642
0.80777
0.669425
0.804332
0.850359
0.80504
0.814238
0.781473
0.811415
0.828231
0.828482
0.801471
0.749428
0.823972
0.828061
0.6407
0.806842
0.692039
0.828248
0.671576
0.828862
0.784881
0.715942
0.740699
0.791056
0.74331
0.849683
0.818869
0.806788
0.806542
0.724566
0.806299
0.800071
0.803674
0.824258
0.813537
0.737982
0.736122
0.805658
0.78539
0.617331
0.827446
0.727414
0.801543
0.702172
0.833353
0.825021
0.834833
0.819175
0.843004
0.815331
0.68503
0.835375
0.815086
0.807191
0.828141
0.828857
0.826874
0.819904
0.834527
0.828636
0.674953
0.807677
0.803667
0.827653
0.712754
0.806221
0.829972
0.770039
0.711793
0.81724
0.739549
0.749938
0.816349
0.827685
0.695493
0.848168
0.782075
0.808729
0.800827
0.826749
0.85121
0.806891
0.670134
0.82787
0.690785
0.674246
0.785887
0.779268
0.782949
0.828408
0.804448
0.826192
0.829476
0.629808
0.795466
0.838632
0.82856
0.646256
0.758167
0.706799
0.828788
0.825567
0.711184
0.806393
0.827448
0.805027
0.840992
0.684099
0.847802
0.74886
0.827097
0.827876
0.731615
0.826816
0.725021
0.801661
0.720084
0.81826
0.798796
0.681972
0.744229
0.750159
0.840373
0.82518
0.830511
0.832499
0.804049
0.814563
0.808803
0.826954
0.808169
0.739548
0.809873
0.641599
0.79108
0.811326
0.807576
0.828387
0.834184
0.80407
0.751953
0.692549
0.707211
0.80363
0.822682
0.757159
0.700572
0.769177
0.827481
0.805832
0.77386
0.808821
0.830599
0.766426
0.621906
0.711305
0.802544
0.828421
0.869047
0.82153
0.828806
0.857244
0.804752
0.807182
0.827734
0.827944
0.81787
0.746853
0.813519
0.735423
0.867336
0.794021
0.827563
0.700703
0.801362
0.612587
0.627263
0.701365
0.821271
0.805017
0.822233
0.779365
0.804895
0.639709
0.797247
0.809485
0.762328
0.826888
0.808728
0.8282
0.849353
0.682792
0.82365
0.80456
0.825965
0.821597
0.827566
0.828095
0.773461
0.8018
0.805302
0.805412
0.80165
0.824398
0.85217
0.829996
0.751718
0.807776
0.707664
0.827485
0.828891
0.649531
0.781779
0.781781
0.645948
0.798679
0.80648
0.881768
0.804401
0.825567
0.775907
0.801177
0.801917
0.815238
0.792413
0.627518
0.704135
0.707455
0.791584
0.825928
0.805058
0.826849
0.798124
0.814318
0.827564
0.803982
0.857912
0.750095
0.828512
0.791282
0.638528
0.686272
0.827602
0.805331
0.809988
0.62662
0.801669
0.805692
0.685012
0.827388
0.803886
0.814624
0.827425
0.690924
0.732965
0.756941
0.827338
0.838788
0.687185
0.797772
0.718616
0.827347
0.835735
0.790397
0.788353
0.662848
0.82598
0.804117
0.740206
0.859404
0.809364
0.758766
0.756014
0.780216
0.827731
0.618054
0.803741
0.751296
0.803975
0.828596
0.723207
0.805484
0.823392
0.733734
0.818524
0.729496
0.828428
0.80361
0.768154
0.742596
0.820727
0.804736
0.82756
0.695674
0.808755
0.818082
0.828399
0.723377
0.828323
0.814921
0.839007
0.697679
0.828076
0.75686
0.828272
0.812103
0.849394
0.805676
0.830244
0.765042
0.827944
0.846461
0.838133
0.825763
0.852456
0.761738
0.855832
0.834133
0.809531
0.832962
0.809833
0.675906
0.791588
0.827428
0.766401
0.736851
0.80502
0.810113
0.720515
0.803356
0.618125
0.855048
0.745811
0.729901
0.827321
0.787022
0.816713
0.805811
0.816555
0.807014
0.826968
0.842404
0.760593
0.785394
0.652477
0.827108
0.787368
0.819336
0.808406
0.625282
0.803768
0.80413
0.8218
0.802527
0.828723
0.812431
0.70458
0.833165
0.855814
0.711109
0.763318
0.827877
0.808438
0.753068
0.820481
0.773793
0.803606
0.804563
0.810892
0.844961
0.702605
0.73152
0.804104
0.732391
0.783583
0.837248
0.617458
0.727119
0.803286
0.806849
0.804188
0.753562
0.832489
0.820134
0.805355
0.813131
0.827558
0.715826
0.713164
0.814318
0.8276
0.802841
0.880053
0.806979
0.828034
0.802994
0.822727
0.820087
0.812793
0.709669
0.819788
0.828744
0.806364
0.809507
0.804061
0.656472
0.822576
0.825651
0.827915
0.870977
0.827244
0.807301
0.663866
0.841708
0.741394
0.83582
0.811842
0.818784
0.83215
0.82606
0.827464
0.764103
0.621612
0.671475
0.827559
0.823457
0.651109
0.803108
0.827306
0.839257
0.65149
0.814293
0.826933
0.806853
0.813741
0.670609
0.827291
0.813301
0.625517
0.827929
0.827991
0.642254
0.815489
0.827019
0.784698
0.811983
0.81962
0.826764
0.802452
0.835169
0.623191
0.836532
0.821032
0.806985
0.763664
0.796646
0.827597
0.814303
0.809282
0.826737
0.804209
0.724771
0.819842
0.687136
0.829321
0.691
0.767035
0.801685
0.738867
0.804711
0.62693
0.855802
0.828288
0.826657
0.805028
0.805008
0.804078
0.819322
0.827732
0.697035
0.751416
0.755354
0.827849
0.756201
0.697366
0.826639
0.79546
0.836323
0.825069
0.815394
0.750705
0.664415
0.804867
0.802833
0.666698
0.827451
0.827532
0.750604
0.810089
0.781312
0.685506
0.822584
0.819647
0.800719
0.652731
0.807397
0.793036
0.835902
0.827563
0.827634
0.816972
0.827555
0.716746
0.809852
0.828308
0.737801
0.658639
0.765314
0.803667
0.756764
0.827541
0.804044
0.810879
0.792678
0.871818
0.804196
0.806346
0.834714
0.864735
0.807499
0.82648
0.80726
0.828229
0.797775
0.762191
0.81768
0.806861
0.827923
0.805385
0.803701
0.849942
0.778925
0.827599
0.785023
0.80834
0.672116
0.63521
0.806213
0.808808
0.826177
0.803408
0.809504
0.829334
0.784314
0.810022
0.829005
0.793529
0.8267
0.785501
0.654648
0.809871
0.771447
0.788176
0.769336
0.774287
0.801305
0.796546
0.827992
0.796378
0.814146
0.804261
0.780755
0.828202
0.628791
0.75848
0.824953
0.826654
0.827001
0.814233
0.826166
0.819336
0.810781
0.831743
0.814266
0.792971
0.828278
0.806781
0.803307
0.802886
0.809399
0.638522
0.805749
0.800308
0.655211
0.821694
0.812157
0.809764
0.815591
0.732958
0.76312
0.831794
0.784008
0.81697
0.828418
0.725973
0.808023
0.833825
0.745305
0.806279
0.823835
0.787754
0.815913
0.843333
0.808384
0.829185
0.784249
0.808726
0.803907
0.826977
0.808033
0.802119
0.653832
0.828039
0.800634
0.810551
0.835302
0.743358
0.837688
0.828093
0.652943
0.812141
0.807205
0.808563
0.826489
0.832642
0.833851
0.808698
0.818074
0.827656
0.818218
0.805452
0.826337
0.810175
0.765473
0.752442
0.793751
0.827552
0.824739
0.787734
0.771267
0.819213
0.830453
0.815194
0.827868
0.74222
0.645557
0.757204
0.829325
0.812825
0.828411
0.85026
0.804301
0.754616
0.711037
0.806153
0.810599
0.7359
0.827741
0.729063
0.844122
0.748882
0.825781
0.897419
0.820609
0.805587
0.791353
0.815874
0.7305
0.819117
0.82137
0.799604
0.817799
0.787916
0.805367
0.814636
0.795847
0.805088
0.857886
0.787435
0.804618
0.673163
0.807591
0.714366
0.807015
0.800359
0.796618
0.795396
0.738671
0.81457
0.800355
0.851451
0.827566
0.82783
0.827853
0.897629
0.76727
0.807595
0.761171
0.804459
0.803771
0.808743
0.747925
0.805784
0.811574
0.712361
0.820647
0.765021
0.690635
0.853244
0.853947
0.769845
0.816709
0.802176
0.786453
0.763492
0.78797
0.794765
0.75225
0.806216
0.80909
0.757534
0.828108
0.808084
0.662744
0.82894
0.827846
0.824178
0.806449
0.654042
0.755615
0.811321
0.864561
0.670686
0.752666
0.815121
0.820893
0.807628
0.719429
0.754197
0.813661
0.827566
0.827885
0.84492
0.75596
0.773887
0.879395
0.811467
0.826156
0.802776
0.718077
0.706312
0.648696
0.707319
0.690838
0.783546
0.813284
0.807877
0.826597
0.818226
0.816297
0.865406
0.756266
0.83367
0.827618
0.828838
0.82877
0.827592
0.827607
0.826056