# vtk DataFile Version 1.0
unstructured grid
ascii
DATASET UNSTRUCTURED_GRID
points 14760 float
-1 0 0
-1 1 0
2 0 0
2 1 0
0 0 0
1 0 0
-1 1 0.1
-1 0 0.1
0 0 0.1
1 0 0.1
2 0 0.1
2 1 0.1
-0.99 0 0
-0.98 0 0
-0.97 0 0
-0.96 0 0
-0.95 0 0
-0.94 0 0
-0.93 0 0
-0.92 0 0
-0.91 0 0
-0.9 0 0
-0.89 0 0
-0.88 0 0
-0.87 0 0
-0.86 0 0
-0.85 0 0
-0.84 0 0
-0.83 0 0
-0.82 0 0
-0.81 0 0
-0.8 0 0
-0.79 0 0
-0.78 0 0
-0.77 0 0
-0.76 0 0
-0.75 0 0
-0.74 0 0
-0.73 0 0
-0.72 0 0
-0.71 0 0
-0.7 0 0
-0.69 0 0
-0.68 0 0
-0.67 0 0
-0.66 0 0
-0.65 0 0
-0.64 0 0
-0.63 0 0
-0.62 0 0
-0.61 0 0
-0.6 0 0
-0.59 0 0
-0.58 0 0
-0.57 0 0
-0.56 0 0
-0.55 0 0
-0.54 0 0
-0.53 0 0
-0.52 0 0
-0.51 0 0
-0.5 0 0
-0.49 0 0
-0.48 0 0
-0.47 0 0
-0.46 0 0
-0.45 0 0
-0.44 0 0
-0.43 0 0
-0.42 0 0
-0.41 0 0
-0.4 0 0
-0.39 0 0
-0.38 0 0
-0.37 0 0
-0.36 0 0
-0.35 0 0
-0.34 0 0
-0.33 0 0
-0.32 0 0
-0.31 0 0
-0.3 0 0
-0.29 0 0
-0.28 0 0
-0.27 0 0
-0.26 0 0
-0.25 0 0
-0.24 0 0
-0.23 0 0
-0.22 0 0
-0.21 0 0
-0.2 0 0
-0.19 0 0
-0.18 0 0
-0.17 0 0
-0.16 0 0
-0.15 0 0
-0.14 0 0
-0.13 0 0
-0.12 0 0
-0.11 0 0
-0.1 0 0
-0.09 0 0
-0.08 0 0
-0.07 0 0
-0.06 0 0
-0.05 0 0
-0.04 0 0
-0.03 0 0
-0.02 0 0
-0.01 0 0
1.01 0 0
1.02 0 0
1.03 0 0
1.04 0 0
1.05 0 0
1.06 0 0
1.07 0 0
1.08 0 0
1.09 0 0
1.1 0 0
1.11 0 0
1.12 0 0
1.13 0 0
1.14 0 0
1.15 0 0
1.16 0 0
1.17 0 0
1.18 0 0
1.19 0 0
1.2 0 0
1.21 0 0
1.22 0 0
1.23 0 0
1.24 0 0
1.25 0 0
1.26 0 0
1.27 0 0
1.28 0 0
1.29 0 0
1.3 0 0
1.31 0 0
1.32 0 0
1.33 0 0
1.34 0 0
1.35 0 0
1.36 0 0
1.37 0 0
1.38 0 0
1.39 0 0
1.4 0 0
1.41 0 0
1.42 0 0
1.43 0 0
1.44 0 0
1.45 0 0
1.46 0 0
1.47 0 0
1.48 0 0
1.49 0 0
1.5 0 0
1.51 0 0
1.52 0 0
1.53 0 0
1.54 0 0
1.55 0 0
1.56 0 0
1.57 0 0
1.58 0 0
1.59 0 0
1.6 0 0
1.61 0 0
1.62 0 0
1.63 0 0
1.64 0 0
1.65 0 0
1.66 0 0
1.67 0 0
1.68 0 0
1.69 0 0
1.7 0 0
1.71 0 0
1.72 0 0
1.73 0 0
1.74 0 0
1.75 0 0
1.76 0 0
1.77 0 0
1.78 0 0
1.79 0 0
1.8 0 0
1.81 0 0
1.82 0 0
1.83 0 0
1.84 0 0
1.85 0 0
1.86 0 0
1.87 0 0
1.88 0 0
1.89 0 0
1.9 0 0
1.91 0 0
1.92 0 0
1.93 0 0
1.94 0 0
1.95 0 0
1.96 0 0
1.97 0 0
1.98 0 0
1.99 0 0
2 0.0100088 0
2 0.0204183 0
2 0.0312446 0
2 0.0425043 0
2 0.0542147 0
2 0.066394 0
2 0.079061 0
2 0.092235 0
2 0.105936 0
2 0.120186 0
2 0.135007 0
2 0.150421 0
2 0.166452 0
2 0.183124 0
2 0.200465 0
2 0.218499 0
2 0.237256 0
2 0.256763 0
2 0.277051 0
2 0.298152 0
2 0.320097 0
2 0.342921 0
2 0.366659 0
2 0.391347 0
2 0.417024 0
2 0.443728 0
2 0.471502 0
2 0.500387 0
2 0.530429 0
2 0.561674 0
2 0.594169 0
2 0.627966 0
2 0.663115 0
2 0.699672 0
2 0.737692 0
2 0.777235 0
2 0.818361 0
2 0.861133 0
2 0.905617 0
2 0.951882 0
1.95 1 0
1.9 1 0
1.85 1 0
1.8 1 0
1.75 1 0
1.7 1 0
1.65 1 0
1.6 1 0
1.55 1 0
1.5 1 0
1.45 1 0
1.4 1 0
1.35 1 0
1.3 1 0
1.25 1 0
1.2 1 0
1.15 1 0
1.1 1 0
1.05 1 0
1 1 0
0.95 1 0
0.9 1 0
0.85 1 0
0.8 1 0
0.75 1 0
0.7 1 0
0.65 1 0
0.6 1 0
0.55 1 0
0.5 1 0
0.45 1 0
0.4 1 0
0.35 1 0
0.3 1 0
0.25 1 0
0.2 1 0
0.15 1 0
0.1 1 0
0.05 1 0
3.69793e-12 1 0
-0.05 1 0
-0.1 1 0
-0.15 1 0
-0.2 1 0
-0.25 1 0
-0.3 1 0
-0.35 1 0
-0.4 1 0
-0.45 1 0
-0.5 1 0
-0.55 1 0
-0.6 1 0
-0.65 1 0
-0.7 1 0
-0.75 1 0
-0.8 1 0
-0.85 1 0
-0.9 1 0
-0.95 1 0
-1 0.951882 0
-1 0.905617 0
-1 0.861133 0
-1 0.818361 0
-1 0.777235 0
-1 0.737692 0
-1 0.699672 0
-1 0.663115 0
-1 0.627966 0
-1 0.594169 0
-1 0.561674 0
-1 0.530429 0
-1 0.500387 0
-1 0.471502 0
-1 0.443728 0
-1 0.417024 0
-1 0.391347 0
-1 0.366659 0
-1 0.342921 0
-1 0.320097 0
-1 0.298152 0
-1 0.277051 0
-1 0.256763 0
-1 0.237256 0
-1 0.218499 0
-1 0.200465 0
-1 0.183124 0
-1 0.166452 0
-1 0.150421 0
-1 0.135007 0
-1 0.120186 0
-1 0.105936 0
-1 0.092235 0
-1 0.079061 0
-1 0.066394 0
-1 0.0542147 0
-1 0.0425043 0
-1 0.0312446 0
-1 0.0204183 0
-1 0.0100088 0
0.00921362 0.00379763 0
0.0184561 0.00752451 0
0.0277268 0.0111804 0
0.0370253 0.0147652 0
0.0463511 0.0182786 0
0.0557034 0.0217203 0
0.0650819 0.0250903 0
0.074486 0.0283883 0
0.083915 0.0316141 0
0.0933685 0.0347675 0
0.102846 0.0378484 0
0.112347 0.0408565 0
0.12187 0.0437917 0
0.131416 0.0466538 0
0.140983 0.0494427 0
0.150572 0.0521581 0
0.160181 0.0547999 0
0.16981 0.0573681 0
0.179458 0.0598623 0
0.189125 0.0622825 0
0.198811 0.0646285 0
0.208514 0.0669001 0
0.218234 0.0690974 0
0.227971 0.07122 0
0.237724 0.073268 0
0.247493 0.0752411 0
0.257276 0.0771393 0
0.267073 0.0789625 0
0.276884 0.0807105 0
0.286708 0.0823832 0
0.296545 0.0839806 0
0.306394 0.0855025 0
0.316254 0.0869488 0
0.326125 0.0883196 0
0.336006 0.0896146 0
0.345896 0.0908339 0
0.355796 0.0919773 0
0.365704 0.0930447 0
0.375621 0.0940362 0
0.385544 0.0949517 0
0.395474 0.095791 0
0.40541 0.0965542 0
0.415352 0.0972412 0
0.425299 0.097852 0
0.43525 0.0983865 0
0.445205 0.0988447 0
0.455164 0.0992266 0
0.465125 0.0995321 0
0.475088 0.0997613 0
0.485052 0.0999141 0
0.495017 0.0999904 0
0.504983 0.0999904 0
0.514948 0.0999141 0
0.524912 0.0997613 0
0.534875 0.0995321 0
0.544836 0.0992266 0
0.554795 0.0988447 0
0.56475 0.0983865 0
0.574701 0.097852 0
0.584648 0.0972412 0
0.59459 0.0965542 0
0.604526 0.095791 0
0.614456 0.0949517 0
0.624379 0.0940362 0
0.634296 0.0930447 0
0.644204 0.0919773 0
0.654104 0.0908339 0
0.663994 0.0896146 0
0.673875 0.0883196 0
0.683746 0.0869488 0
0.693606 0.0855025 0
0.703455 0.0839806 0
0.713292 0.0823832 0
0.723116 0.0807105 0
0.732927 0.0789625 0
0.742724 0.0771393 0
0.752508 0.0752411 0
0.762276 0.073268 0
0.772029 0.07122 0
0.781766 0.0690974 0
0.791486 0.0669001 0
0.801189 0.0646285 0
0.810875 0.0622825 0
0.820542 0.0598623 0
0.83019 0.0573681 0
0.839819 0.0547999 0
0.849428 0.0521581 0
0.859017 0.0494427 0
0.868584 0.0466538 0
0.87813 0.0437917 0
0.887653 0.0408565 0
0.897154 0.0378484 0
0.906631 0.0347675 0
0.916085 0.0316141 0
0.925514 0.0283883 0
0.934918 0.0250903 0
0.944297 0.0217203 0
0.953649 0.0182786 0
0.962975 0.0147652 0
0.972273 0.0111804 0
0.981544 0.00752451 0
0.990786 0.00379763 0
-1 0.951882 0.1
-1 0.905617 0.1
-1 0.861133 0.1
-1 0.818361 0.1
-1 0.777235 0.1
-1 0.737692 0.1
-1 0.699672 0.1
-1 0.663115 0.1
-1 0.627966 0.1
-1 0.594169 0.1
-1 0.561674 0.1
-1 0.530429 0.1
-1 0.500387 0.1
-1 0.471502 0.1
-1 0.443728 0.1
-1 0.417024 0.1
-1 0.391347 0.1
-1 0.366659 0.1
-1 0.342921 0.1
-1 0.320097 0.1
-1 0.298152 0.1
-1 0.277051 0.1
-1 0.256763 0.1
-1 0.237256 0.1
-1 0.218499 0.1
-1 0.200465 0.1
-1 0.183124 0.1
-1 0.166452 0.1
-1 0.150421 0.1
-1 0.135007 0.1
-1 0.120186 0.1
-1 0.105936 0.1
-1 0.092235 0.1
-1 0.079061 0.1
-1 0.066394 0.1
-1 0.0542147 0.1
-1 0.0425043 0.1
-1 0.0312446 0.1
-1 0.0204183 0.1
-1 0.0100088 0.1
-0.99 0 0.1
-0.98 0 0.1
-0.97 0 0.1
-0.96 0 0.1
-0.95 0 0.1
-0.94 0 0.1
-0.93 0 0.1
-0.92 0 0.1
-0.91 0 0.1
-0.9 0 0.1
-0.89 0 0.1
-0.88 0 0.1
-0.87 0 0.1
-0.86 0 0.1
-0.85 0 0.1
-0.84 0 0.1
-0.83 0 0.1
-0.82 0 0.1
-0.81 0 0.1
-0.8 0 0.1
-0.79 0 0.1
-0.78 0 0.1
-0.77 0 0.1
-0.76 0 0.1
-0.75 0 0.1
-0.74 0 0.1
-0.73 0 0.1
-0.72 0 0.1
-0.71 0 0.1
-0.7 0 0.1
-0.69 0 0.1
-0.68 0 0.1
-0.67 0 0.1
-0.66 0 0.1
-0.65 0 0.1
-0.64 0 0.1
-0.63 0 0.1
-0.62 0 0.1
-0.61 0 0.1
-0.6 0 0.1
-0.59 0 0.1
-0.58 0 0.1
-0.57 0 0.1
-0.56 0 0.1
-0.55 0 0.1
-0.54 0 0.1
-0.53 0 0.1
-0.52 0 0.1
-0.51 0 0.1
-0.5 0 0.1
-0.49 0 0.1
-0.48 0 0.1
-0.47 0 0.1
-0.46 0 0.1
-0.45 0 0.1
-0.44 0 0.1
-0.43 0 0.1
-0.42 0 0.1
-0.41 0 0.1
-0.4 0 0.1
-0.39 0 0.1
-0.38 0 0.1
-0.37 0 0.1
-0.36 0 0.1
-0.35 0 0.1
-0.34 0 0.1
-0.33 0 0.1
-0.32 0 0.1
-0.31 0 0.1
-0.3 0 0.1
-0.29 0 0.1
-0.28 0 0.1
-0.27 0 0.1
-0.26 0 0.1
-0.25 0 0.1
-0.24 0 0.1
-0.23 0 0.1
-0.22 0 0.1
-0.21 0 0.1
-0.2 0 0.1
-0.19 0 0.1
-0.18 0 0.1
-0.17 0 0.1
-0.16 0 0.1
-0.15 0 0.1
-0.14 0 0.1
-0.13 0 0.1
-0.12 0 0.1
-0.11 0 0.1
-0.1 0 0.1
-0.09 0 0.1
-0.08 0 0.1
-0.07 0 0.1
-0.06 0 0.1
-0.05 0 0.1
-0.04 0 0.1
-0.03 0 0.1
-0.02 0 0.1
-0.01 0 0.1
0.00921362 0.00379763 0.1
0.0184561 0.00752451 0.1
0.0277268 0.0111804 0.1
0.0370253 0.0147652 0.1
0.0463511 0.0182786 0.1
0.0557034 0.0217203 0.1
0.0650819 0.0250903 0.1
0.074486 0.0283883 0.1
0.083915 0.0316141 0.1
0.0933685 0.0347675 0.1
0.102846 0.0378484 0.1
0.112347 0.0408565 0.1
0.12187 0.0437917 0.1
0.131416 0.0466538 0.1
0.140983 0.0494427 0.1
0.150572 0.0521581 0.1
0.160181 0.0547999 0.1
0.16981 0.0573681 0.1
0.179458 0.0598623 0.1
0.189125 0.0622825 0.1
0.198811 0.0646285 0.1
0.208514 0.0669001 0.1
0.218234 0.0690974 0.1
0.227971 0.07122 0.1
0.237724 0.073268 0.1
0.247493 0.0752411 0.1
0.257276 0.0771393 0.1
0.267073 0.0789625 0.1
0.276884 0.0807105 0.1
0.286708 0.0823832 0.1
0.296545 0.0839806 0.1
0.306394 0.0855025 0.1
0.316254 0.0869488 0.1
0.326125 0.0883196 0.1
0.336006 0.0896146 0.1
0.345896 0.0908339 0.1
0.355796 0.0919773 0.1
0.365704 0.0930447 0.1
0.375621 0.0940362 0.1
0.385544 0.0949517 0.1
0.395474 0.095791 0.1
0.40541 0.0965542 0.1
0.415352 0.0972412 0.1
0.425299 0.097852 0.1
0.43525 0.0983865 0.1
0.445205 0.0988447 0.1
0.455164 0.0992266 0.1
0.465125 0.0995321 0.1
0.475088 0.0997613 0.1
0.485052 0.0999141 0.1
0.495017 0.0999904 0.1
0.504983 0.0999904 0.1
0.514948 0.0999141 0.1
0.524912 0.0997613 0.1
0.534875 0.0995321 0.1
0.544836 0.0992266 0.1
0.554795 0.0988447 0.1
0.56475 0.0983865 0.1
0.574701 0.097852 0.1
0.584648 0.0972412 0.1
0.59459 0.0965542 0.1
0.604526 0.095791 0.1
0.614456 0.0949517 0.1
0.624379 0.0940362 0.1
0.634296 0.0930447 0.1
0.644204 0.0919773 0.1
0.654104 0.0908339 0.1
0.663994 0.0896146 0.1
0.673875 0.0883196 0.1
0.683746 0.0869488 0.1
0.693606 0.0855025 0.1
0.703455 0.0839806 0.1
0.713292 0.0823832 0.1
0.723116 0.0807105 0.1
0.732927 0.0789625 0.1
0.742724 0.0771393 0.1
0.752508 0.0752411 0.1
0.762276 0.073268 0.1
0.772029 0.07122 0.1
0.781766 0.0690974 0.1
0.791486 0.0669001 0.1
0.801189 0.0646285 0.1
0.810875 0.0622825 0.1
0.820542 0.0598623 0.1
0.83019 0.0573681 0.1
0.839819 0.0547999 0.1
0.849428 0.0521581 0.1
0.859017 0.0494427 0.1
0.868584 0.0466538 0.1
0.87813 0.0437917 0.1
0.887653 0.0408565 0.1
0.897154 0.0378484 0.1
0.906631 0.0347675 0.1
0.916085 0.0316141 0.1
0.925514 0.0283883 0.1
0.934918 0.0250903 0.1
0.944297 0.0217203 0.1
0.953649 0.0182786 0.1
0.962975 0.0147652 0.1
0.972273 0.0111804 0.1
0.981544 0.00752451 0.1
0.990786 0.00379763 0.1
1.01 0 0.1
1.02 0 0.1
1.03 0 0.1
[...]
CELL_DATA 14313
SCALARS rho float
LOOKUP_TABLE default
0.781297
0.824169
0.80588
0.537432
0.766232
0.811725
0.812397
0.812282
0.810998
0.815112
0.811961
0.798865
0.796958
0.517124
0.812766
0.831837
0.808751
0.807702
0.809983
0.805337
0.810628
0.813913
0.812329
0.765972
0.811958
0.814615
0.742356
0.70979
0.823691
0.824286
0.811823
0.794466
0.799458
0.811929
0.804661
0.810579
0.679636
0.808888
0.811515
0.802341
0.752486
0.810297
0.541636
0.701916
0.817537
0.835672
0.81078
0.777386
0.80437
0.850922
0.675335
0.653143
0.589039
0.810491
0.819588
0.782633
0.817522
0.814668
0.810791
0.812236
0.811832
0.818317
0.794444
0.839161
0.810256
0.813214
0.852663
0.783867
0.840506
0.812758
0.798298
0.8314
0.486942
0.837151
0.725801
0.806869
0.824545
0.747043
0.696362
0.8113
0.591796
0.824639
0.833087
0.803466
0.80548
0.8192
0.811707
0.804445
0.826521
0.806986
0.779844
0.522391
0.807289
0.797853
0.725736
0.803828
0.814546
0.808836
0.803211
0.48856
0.806964
0.809544
0.812363
0.81417
0.748362
0.809281
0.802612
0.69948
0.834392
0.809898
0.813845
0.824796
0.812002
0.819231
0.804156
0.827334
0.819737
0.836164
0.778672
0.798687
0.811475
0.808891
0.859387
0.720624
0.843308
0.75332
0.789503
0.804444
0.814556
0.842821
0.809347
0.811858
0.860687
0.812154
0.823177
0.782598
0.806899
0.792222
0.817573
0.817227
0.812397
0.816668
0.803385
0.803429
0.796522
0.838978
0.805941
0.760645
0.795475
0.817255
0.79715
0.803529
0.812331
0.708906
0.821118
0.803715
0.72302
0.821006
0.811949
0.811848
0.818334
0.808702
0.646177
0.757434
0.82302
0.824331
0.71384
0.812551
0.827943
0.815364
0.688543
0.81621
0.712874
0.787854
0.808834
0.826014
0.808039
0.815392
0.820856
0.741463
0.811263
0.809415
0.77344
0.77185
0.790478
0.810963
0.812751
0.796973
0.496265
0.787181
0.757434
0.742643
0.770204
0.71302
0.812209
0.814841
0.807243
0.803379
0.806017
0.816725
0.760039
0.802881
0.828418
0.814769
0.833383
0.803341
0.81655
0.814213
0.8119
0.834529
0.803948
0.811125
0.79591
0.700839
0.813975
0.820598
0.809491
0.80712
0.834458
0.802855
0.80261
0.819196
0.805928
0.855281
0.809546
0.803102
0.817856
0.802464
0.812282
0.757176
0.635277
0.815042
0.697412
0.826789
0.802375
0.721136
0.811889
0.813946
0.814794
0.826187
0.79167
0.710507
0.747587
0.594845
0.814941
0.723734
0.799237
0.807086
0.837657
0.815023
0.574941
0.804031
0.728588
0.83727
0.801165
0.694603
0.81131
0.826976
0.814519
0.556761
0.813248
0.801109
0.798849
0.80597
0.788339
0.773824
0.815708
0.815524
0.529126
0.814552
0.8137
0.772111
0.802033
0.81194
0.780475
0.817199
0.782962
0.709035
0.802802
0.805815
0.567337
0.543296
0.756183
0.80789
0.820376
0.790053
0.811586
0.814743
0.776036
0.805931
0.803487
0.816617
0.829409
0.793097
0.808291
0.811482
0.631313
0.818858
0.69927
0.797203
0.793269
0.77756
0.83556
0.809319
0.796583
0.676191
0.667967
0.803563
0.805641
0.819614
0.804224
0.798334
0.652006
0.815051
0.822061
0.818091
0.811963
0.812811
0.799378
0.790901
0.814108
0.569709
0.807885
0.812151
0.814352
0.812521
0.765244
0.821479
0.801499
0.814145
0.813001
0.753868
0.752396
0.803401
0.803483
0.525068
0.812376
0.811882
0.807072
0.811751
0.803305
0.800943
0.728013
0.711875
0.814323
0.748323
0.757928
0.818405
0.837423
0.814127
0.80215
0.808485
0.812195
0.803448
0.816985
0.782499
0.816916
0.811769
0.810669
0.795075
0.810379
0.792098
0.811769
0.589601
0.799521
0.800367
0.811859
0.81343
0.767557
0.801598
0.81214
0.812362
0.817969
0.770214
0.818267
0.808316
0.752475
0.761691
0.812868
0.805752
0.829131
0.824676
0.823153
0.804273
0.594034
0.778954
0.600204
0.803377
0.802918
0.800729
0.814213
0.874007
0.525935
0.593336
0.83827
0.871967
0.811796
0.690087
0.801942
0.716068
0.806789
0.815693
0.706944
0.650803
0.751074
0.812867
0.475873
0.873538
0.824326
0.798444
0.808772
0.478701
0.739596
0.78169
0.817535
0.804616
0.800526
0.830188
0.812252
0.705477
0.68484
0.801542
0.806056
0.809238
0.811521
0.808786
0.811841
0.735491
0.791166
0.79718
0.802499
0.764018
0.81761
0.807872
0.812798
0.811557
0.755064
0.805599
0.804073
0.793198
0.812074
0.815652
0.806895
0.657149
0.787442
0.817456
0.812825
0.81221
0.807348
0.812649
0.804151
0.821121
0.821473
0.613543
0.855121
0.743993
0.820558
0.804906
0.746995
0.824467
0.80089
0.825416
0.548313
0.799433
0.679045
0.81192
0.809214
0.521746
0.799908
0.804626
0.798001
0.802076
0.800613
0.772215
0.811781
0.59235
0.805708
0.806086
0.799188
0.818273
0.764912
0.811916
0.809286
0.797838
0.816163
0.796457
0.802848
0.812273
0.634071
0.769243
0.733875
0.490059
0.824681
0.568072
0.802608
0.818766
0.856586
0.702899
0.739539
0.812071
0.806094
0.800887
0.793663
0.765869
0.810847
0.812339
0.797079
0.813055
0.816384
0.471732
0.812304
0.813202
0.806332
0.810034
0.604126
0.815135
0.821492
0.705459
0.788764
0.81311
0.801031
0.828131
0.831299
0.804078
0.742448
0.472951
0.813811
0.570962
0.798711
0.803323
0.774703
0.811945
0.750385
0.81124
0.806574
0.803356
0.485806
0.814208
0.827384
0.830532
0.814734
0.803474
0.803219
0.812333
0.758509
0.847304
0.836802
0.709145
0.798589
0.653329
0.778012
0.66747
0.816033
0.836055
0.798901
0.637661
0.765762
0.813613
0.824398
0.832553
0.813607
0.670145
0.537504
0.804566
0.815856
0.801292
0.815775
0.804696
0.771595
0.851086
0.815181
0.80404
0.816704
0.799001
0.744025
0.797954
0.811337
0.596478
0.689088
0.80331
0.810685
0.804803
0.575004
0.811529
0.604741
0.812342
0.767554
0.816852
0.816259
0.753535
0.806511
0.792361
0.805146
0.836827
0.837121
0.831281
0.804779
0.816079
0.57939
0.812378
0.856765
0.825059
0.829244
0.804196
0.820737
0.799292
0.839796
0.808748
0.814378
0.672489
0.630382
0.835705
0.81331
0.840651
0.715788
0.801187
0.763448
0.797169
0.809567
0.793114
0.807003
0.813025
0.822652
0.828069
0.830036
0.80541
0.750128
0.804066
0.729289
0.793155
0.82148
0.800902
0.81503
0.758209
0.805057
0.804322
0.846956
0.809034
0.803408
0.805988
0.834262
0.831323
0.803585
0.856284
0.795923
0.820021
0.661432
0.803161
0.800238
0.79878
0.831682
0.608727
0.806329
0.80555
0.658458
0.814521
0.8293
0.813792
0.803381
0.80603
0.802499
0.816027
0.798853
0.720547
0.51345
0.813341
0.805593
0.80178
0.804502
0.802965
0.80368
0.810672
0.798044
0.813668
0.583199
0.812763
0.809402
0.811831
0.842328
0.813666
0.834194
0.811348
0.797612
0.812737
0.68236
0.803725
0.850175
0.81277
0.793006
0.814135
0.633849
0.805454
0.566174
0.66211
0.673289
0.809549
0.815456
0.81243
0.497071
0.694425
0.803466
0.830748
0.747307
0.831313
0.805157
0.804689
0.796686
0.694155
0.751231
0.547179
0.802757
0.811616
0.804251
0.820836
0.669812
0.620703
0.853943
0.801504
0.813984
0.728948
0.813497
0.526272
0.820792
0.703185
0.81379
0.817474
0.801663
0.802113
0.825133
0.794844
0.803599
0.803859
0.631261
0.806583
0.653063
0.798752
0.798183
0.813677
0.815324
0.729075
0.815353
0.755799
0.803154
0.7215
0.804954
0.745961
0.671447
0.824506
0.812351
0.799074
0.72631
0.811343
0.658352
0.810874
0.802914
0.728407
0.825825
0.816314
0.637341
0.695989
0.825752
0.803655
0.725565
0.833642
0.8347
0.836092
0.811707
0.548109
0.751021
0.820992
0.82028
0.52089
0.639961
0.815566
0.812411
0.72174
0.778371
0.811999
0.807033
0.757918
0.812137
0.813455
0.803571
0.728672
0.802232
0.796874
0.812047
0.576831
0.805558
0.821745
0.574188
0.818122
0.845296
0.811964
0.676561
0.811694
0.811576
0.811801
0.801159
0.818678
0.803241
0.806682
0.804853
0.80331
0.813467
0.484939
0.809854
0.809663
0.691779
0.603072
0.786078
0.798298
0.81204
0.753271
0.563895
0.811386
0.783469
0.812011
0.821464
0.813446
0.825057
0.74829
0.59019
0.811483
0.839038
0.81196
0.709498
0.803446
0.727264
0.813101
0.811035
0.811868
0.817316
0.801247
0.813025
0.808332
0.757548
0.816202
0.812586
0.751726
0.791887
0.710731
0.558282
0.733494
0.781527
0.815779
0.811273
0.810613
0.810541
0.803295
0.795348
0.808062
0.707437
0.753411
0.811541
0.803422
0.804824
0.818334
0.604054
0.813516
0.803892
0.843517
0.807804
0.636215
0.793676
0.803805
0.842445
0.690636
0.561744
0.576932
0.635172
0.817571
0.804494
0.560251
0.585259
0.819912
0.812141
0.889276
0.804801
0.829417
0.812384
0.769436
0.810757
0.812549
0.812032
0.810591
0.811964
0.79797
0.812132
0.640675
0.815682
0.803628
0.809599
0.756678
0.817115
0.610878
0.855389
0.803927
0.826971
0.811959
0.807996
0.748093
0.822218
0.811879
0.837185
0.811747
0.812472
0.641107
0.826728
0.810101
0.812338
0.836575
0.822527
0.553712
0.796416
0.802726
0.810885
0.81694
0.803936
0.800167
0.815164
0.765066
0.804911
0.81581
0.863436
0.831114
0.586665
0.796022
0.754063
0.813985
0.761473
0.819349
0.804831
0.806383
0.81219
0.7891
0.805576
0.815458
0.821814
0.787331
0.668326
0.73372
0.697753
0.814085
0.835847
0.837782
0.733435
0.80881
0.753936
0.609565
0.811985
0.79942
0.811747
0.803573
0.630739
0.802213
0.77648
0.736712
0.810715
0.744638
0.807551
0.816408
0.859715
0.809623
0.807082
0.739933
0.812444
0.775835
0.839354
0.883735
0.796974
0.520419
0.799631
0.607531
0.769254
0.657215
0.799152
0.494501
0.814948
0.849718
0.805925
0.810569
0.819659
0.802796
0.803252
0.696589
0.822897
0.811888
0.804147
0.806565
0.792425
0.803557
0.80678
0.62831
0.816481
0.801967
0.845143
0.807946
0.804363
0.801441
0.812925
0.813039
0.807502
0.803531
0.787497
0.812104
0.795248
0.801692
0.813212
0.771741
0.566982
0.812612
0.818104
0.803973
0.724649
0.80113
0.807667
0.803481
0.698172
0.872998
0.81156
0.816673
0.811988
0.847673
0.778134
0.81206
0.787591
0.815787
0.82199
0.663166
0.812097
0.728532
0.818988
0.718115
0.799427
0.751139
0.80247
0.571206
0.809155
0.735102
0.476205
0.820127
0.661764
0.769067
0.817172
0.812254
0.776505
0.811194
0.718626
0.638057
0.826119
0.698139
0.81665
0.767312
0.801594
0.807924
0.813207
0.652164
0.804308
0.774855
0.809529
0.812008
0.828945
0.806109
0.687466
0.755419
0.651281
0.79813
0.802968
0.811895
0.815353
0.811889
0.81147
0.809311
0.663384
0.731236
0.4875
0.696306
0.813828
0.808063
0.832924
0.809401
0.814634
0.710202
0.873941
0.815106
0.826139
0.571381
0.822825
0.812112
0.840637
0.845508
0.826518
0.829977
0.820124
0.540357
0.805725
0.814866
0.716089
0.816705
0.801262
0.812046
0.807932
0.812534
0.8126
0.767121
0.721318
0.797951
0.800293
0.571603
0.81395
0.858977
0.815247
0.658599
0.822436
0.813055
0.819472
0.835132
0.686926
0.48634
0.804842
0.839806
0.806059
0.803877
0.814146
0.801559
0.812411
0.80945
0.799909
0.80424
0.80468
0.8124
0.805551
0.806158
0.798536
0.836059
0.830632
0.853171
0.812824
0.807338
0.814395
0.812912
0.812
0.810949
0.815514
0.833937
0.808597
0.811033
0.600596
0.830478
0.711038
0.868142
0.803616
0.833234
0.799
0.786069
0.785668
0.740039
0.82111
0.810927
0.811457
0.813313
0.77581
0.807804
0.584196
0.806067
0.812922
0.813077
0.79567
0.811988
0.611007
0.783471
0.558188
0.82072
0.796857
0.774501
0.801854
0.813606
0.812358
0.812392
0.73794
0.808204
0.811846
0.810316
0.803646
0.803812
0.747301
0.767239
0.809236
0.803723
0.696196
0.597806
0.489637
0.840989
0.806061
0.778555
0.781189
0.82423
0.803571
0.803961
0.817969
0.779212
0.756999
0.816087
0.807438
0.811105
0.837173
0.804823
0.811662
0.808247
0.483355
0.803439
0.811817
0.773688
0.819356
0.81414
0.825539
0.599314
0.710362
0.572901
0.828226
0.815542
0.743254
0.811822
0.676692
0.813683
0.810604
0.811815
0.803078
0.811823
0.576831
0.686302
0.806089
0.813231
0.793689
0.801241
0.830995
0.798661
0.802996
0.642844
0.807729
0.811877
0.804272
0.812186
0.802738
0.616878
0.81422
0.812302
0.572364
0.697012
0.793089
0.828116
0.697395
0.803995
0.79363
0.812059
0.756554
0.684891
0.810358
0.795893
0.799279
0.76633
0.540522
0.820187
0.673456
0.747625
0.731331
0.803968
0.797275
0.811377
0.660001
0.767543
0.803968
0.814925
0.592544
0.798871
0.82573
0.807142
0.539039
0.805593
0.783401
0.707021
0.705746
0.800394
0.819064
0.812935
0.808608
0.699397
0.739605
0.641387
0.832272
0.842857
0.816838
0.788151
0.865192
0.69672
0.81328
0.766725
0.790205
0.795519
0.811891
0.803983
0.811517
0.787078
0.755213
0.819691
0.796707
0.842089
0.719297
0.791383
0.805515
0.723217
0.803207
0.81442
0.575899
0.801942
0.798939
0.802792
0.821131
0.76424
0.800158
0.722583
0.812071
0.808825
0.725165
0.812072
0.816153
0.828604
0.805581
0.787088
0.797619
0.805612
0.726561
0.812386
0.801141
0.677496
0.806882
0.78026
0.831856
0.820845
0.818949
0.839262
0.8482
0.699012
0.813657
0.79551
0.787294
0.61748
0.816902
0.803614
0.812156
0.776126
0.853437
0.832765
0.78179
0.84198
0.77977
0.800634
0.771941
0.812147
0.721659
0.635744
0.844169
0.66092
0.792806
0.839693
0.812368
0.671103
0.809231
0.751868
0.803966
0.798999
0.78131
0.804154
0.801039
0.802792
0.80189
0.7856
0.811954
0.781398
0.816207
0.807461
0.712605
0.783827
0.815137
0.81239
0.805484
0.563974
0.82508
0.812807
0.81198
0.703343
0.804765
0.801088
0.801287
0.815843
0.746208
0.815926
0.800542
0.804554
0.755181
0.811416
0.812735
0.805894
0.768982
0.807885
0.812926
0.808041
0.815792
0.808298
0.806063
0.822888
0.804597
0.788728
0.806191
0.812123
0.818144
0.77871
0.703513
0.813715
0.812171
0.800731
0.742428
0.788796
0.65404
0.80339
0.540136
0.803167
0.814363
0.77488
0.834557
0.515096
0.809417
0.738419
0.810411
0.534178
0.804342
0.8278
0.813267
0.818683
0.73423
0.840901
0.553512
0.823505
0.702421
0.799539
0.477297
0.669831
0.812503
0.81199
0.741707
0.800962
0.820845
0.612005
0.821965
0.770914
0.833458
0.811995
0.81411
0.813085
0.803825
0.836781
0.810648
0.803757
0.475916
0.803108
0.843458
0.802224
0.801318
0.767569
0.805397
0.811935
0.81209
0.796576
0.734288
0.810383
0.815448
0.602964
0.804161
0.53647
0.815609
0.539447
0.811935
0.77037
0.682492
0.733487
0.783086
0.71301
0.841492
0.8137
0.796867
0.80397
0.70331
0.802555
0.789434
0.802442
0.814941
0.801694
0.731447
0.697858
0.800592
0.77227
0.518861
0.811151
0.663172
0.794098
0.705652
0.825007
0.809387
0.825015
0.810176
0.83715
0.807232
0.579864
0.829204
0.806989
0.801529
0.815387
0.811926
0.812548
0.814565
0.825093
0.816345
0.618008
0.804747
0.800656
0.812846
0.692155
0.802311
0.823223
0.756357
0.688547
0.807494
0.688284
0.731659
0.810027
0.812661
0.668513
0.841447
0.766925
0.80539
0.796424
0.80974
0.844467
0.801059
0.538712
0.814846
0.708296
0.519112
0.77818
0.758096
0.769513
0.812143
0.803516
0.816351
0.811957
0.585764
0.787493
0.831214
0.812041
0.591145
0.721466
0.634802
0.816615
0.810413
0.690906
0.803981
0.812119
0.799309
0.834188
0.606012
0.840311
0.74016
0.811912
0.812421
0.669105
0.812486
0.720989
0.791798
0.716519
0.811863
0.784423
0.633871
0.724143
0.712307
0.833118
0.809359
0.819282
0.821994
0.803343
0.808508
0.802798
0.817604
0.803252
0.686999
0.803432
0.603449
0.776692
0.807175
0.802295
0.812115
0.824226
0.803327
0.716869
0.710521
0.667162
0.79026
0.816699
0.749072
0.579206
0.75146
0.810197
0.801852
0.760177
0.803572
0.823122
0.753207
0.56874
0.701966
0.798599
0.812114
0.864273
0.814579
0.811716
0.851797
0.799554
0.801846
0.81436
0.812212
0.805322
0.717588
0.809143
0.695415
0.862211
0.778642
0.813386
0.573787
0.79648
0.529101
0.583183
0.584777
0.807883
0.80363
0.809238
0.758117
0.803554
0.532161
0.782196
0.802899
0.734517
0.814299
0.801615
0.815801
0.842865
0.51047
0.81201
0.80208
0.809546
0.816719
0.812833
0.8123
0.754111
0.797137
0.798786
0.803231
0.797555
0.810688
0.845279
0.818528
0.723665
0.804675
0.60693
0.813164
0.812011
0.586497
0.766829
0.766896
0.536215
0.784244
0.803638
0.878249
0.798351
0.813074
0.755173
0.794411
0.79703
0.809221
0.782665
0.541883
0.711275
0.680377
0.781037
0.814624
0.802885
0.821808
0.790224
0.8018
0.812758
0.798067
0.852132
0.704502
0.811825
0.780663
0.530852
0.515614
0.812871
0.803541
0.805439
0.560312
0.796981
0.80374
0.659079
0.813697
0.790593
0.806535
0.814783
0.532755
0.724565
0.718731
0.812423
0.831988
0.62987
0.78982
0.717109
0.813569
0.827234
0.779419
0.773131
0.535057
0.811495
0.802406
0.723623
0.851989
0.805814
0.722648
0.739829
0.763853
0.810771
0.56336
0.796694
0.737953
0.800323
0.821829
0.720252
0.799163
0.811733
0.716485
0.813002
0.705934
0.81596
0.798192
0.759666
0.68979
0.808887
0.799999
0.813341
0.669531
0.805369
0.804836
0.811563
0.699418
0.812117
0.808371
0.831732
0.648298
0.815467
0.740732
0.811907
0.805703
0.842181
0.803682
0.818894
0.749017
0.81516
0.83877
0.832796
0.816428
0.845567
0.752307
0.847723
0.825976
0.803826
0.825728
0.805602
0.646571
0.778053
0.813901
0.746784
0.695113
0.798443
0.804066
0.679745
0.797425
0.537881
0.848432
0.696005
0.706185
0.813543
0.774457
0.806876
0.798929
0.806938
0.803886
0.812001
0.835611
0.729963
0.772124
0.588146
0.809987
0.777014
0.81089
0.805112
0.569969
0.802905
0.802529
0.807471
0.798624
0.81671
0.80815
0.709894
0.823106
0.847891
0.684384
0.743597
0.812155
0.800916
0.712281
0.814268
0.754324
0.796782
0.802899
0.80536
0.837127
0.668675
0.723312
0.800799
0.701955
0.772637
0.832131
0.531918
0.691212
0.79958
0.804286
0.803363
0.741751
0.822359
0.806873
0.803661
0.808127
0.813279
0.696051
0.649122
0.809673
0.813782
0.799232
0.87144
0.802721
0.812342
0.799045
0.80994
0.811254
0.808362
0.652971
0.814741
0.816563
0.803437
0.801863
0.799371
0.617244
0.809695
0.810497
0.812405
0.862283
0.814409
0.801485
0.480528
0.836324
0.692518
0.826375
0.805764
0.813777
0.823999
0.809075
0.812054
0.730916
0.551285
0.491585
0.812316
0.808943
0.534007
0.795558
0.814475
0.833261
0.503944
0.809573
0.813416
0.802258
0.809078
0.530158
0.813102
0.808244
0.559878
0.812196
0.815246
0.538692
0.808755
0.812652
0.775824
0.806272
0.811164
0.809486
0.79899
0.825861
0.533751
0.830163
0.8158
0.804067
0.742065
0.78618
0.811344
0.809385
0.802105
0.815928
0.800703
0.657013
0.806153
0.579643
0.811951
0.659816
0.74629
0.796997
0.718257
0.803542
0.579668
0.849723
0.812191
0.812323
0.799258
0.802705
0.803181
0.813637
0.81435
0.670069
0.717645
0.726192
0.814765
0.721323
0.573516
0.817387
0.783705
0.827864
0.81168
0.809377
0.732481
0.535804
0.798718
0.790031
0.496082
0.813835
0.812996
0.735576
0.805908
0.768499
0.606977
0.809943
0.814643
0.788631
0.609751
0.802308
0.782961
0.826335
0.812964
0.810373
0.811893
0.812823
0.715754
0.800069
0.815727
0.694651
0.480429
0.732906
0.798803
0.730762
0.813001
0.798113
0.805523
0.782564
0.867319
0.803554
0.80167
0.825765
0.859319
0.804615
0.815686
0.794328
0.815897
0.789155
0.743991
0.811909
0.80426
0.816218
0.803248
0.790806
0.842786
0.766089
0.812721
0.773368
0.803722
0.642513
0.509332
0.800985
0.802163
0.809517
0.79815
0.799675
0.811912
0.772904
0.804617
0.811994
0.782195
0.816906
0.777164
0.593297
0.805044
0.760902
0.776197
0.75045
0.763665
0.793918
0.788573
0.823029
0.787511
0.80942
0.803367
0.765118
0.81551
0.542209
0.729505
0.810536
0.813991
0.811401
0.802324
0.812831
0.810521
0.805751
0.821152
0.809685
0.782947
0.816601
0.801689
0.790473
0.795891
0.805167
0.586091
0.803622
0.79217
0.574441
0.813183
0.807234
0.806045
0.810758
0.702321
0.754891
0.821105
0.774895
0.811386
0.816321
0.722246
0.804481
0.8241
0.720041
0.799425
0.80951
0.778567
0.804719
0.836961
0.801904
0.81732
0.772523
0.805337
0.800298
0.813072
0.802108
0.797893
0.588659
0.815212
0.78672
0.806633
0.825618
0.691077
0.828546
0.819964
0.505249
0.806386
0.804452
0.801471
0.812261
0.824239
0.824054
0.804909
0.805906
0.814162
0.813369
0.803521
0.812562
0.80473
0.749251
0.708197
0.780901
0.813659
0.812085
0.775859
0.757782
0.813923
0.824934
0.810519
0.812212
0.691469
0.500688
0.747779
0.817529
0.806717
0.816238
0.844188
0.799876
0.714853
0.654193
0.79966
0.804693
0.694198
0.812662
0.671128
0.836809
0.72922
0.812849
0.895252
0.815608
0.800808
0.777731
0.811098
0.681456
0.814186
0.808216
0.791512
0.805606
0.779414
0.800652
0.81003
0.780459
0.803575
0.852061
0.776998
0.802132
0.492834
0.803174
0.693885
0.804097
0.794449
0.788575
0.783614
0.722212
0.802092
0.788181
0.844453
0.81328
0.812437
0.811775
0.89551
0.746409
0.802734
0.730817
0.803157
0.798364
0.804501
0.716742
0.800926
0.805498
0.639021
0.808658
0.748574
0.533964
0.846508
0.84733
0.750022
0.810758
0.79467
0.77202
0.73173
0.77599
0.785479
0.73622
0.80385
0.804419
0.719453
0.815307
0.804977
0.556782
0.811987
0.82144
0.813243
0.803506
0.610674
0.714972
0.806272
0.859173
0.483685
0.724516
0.806458
0.815955
0.796443
0.713232
0.710667
0.809022
0.813229
0.815005
0.837076
0.745183
0.754379
0.875742
0.806865
0.809213
0.795167
0.637429
0.597413
0.585962
0.656982
0.586146
0.764194
0.80072
0.803381
0.812264
0.809126
0.811475
0.860156
0.715387
0.823863
0.813887
0.817085
0.816635
0.813816
0.81296
0.811571
0.811936