# vtk DataFile Version 1.0
unstructured grid
ascii
DATASET UNSTRUCTURED_GRID
points 14760 float
-1 0 0
-1 1 0
2 0 0
2 1 0
0 0 0
1 0 0
-1 1 0.1
-1 0 0.1
0 0 0.1
1 0 0.1
2 0 0.1
2 1 0.1
-0.99 0 0
-0.98 0 0
-0.97 0 0
-0.96 0 0
-0.95 0 0
-0.94 0 0
-0.93 0 0
-0.92 0 0
-0.91 0 0
-0.9 0 0
-0.89 0 0
-0.88 0 0
-0.87 0 0
-0.86 0 0
-0.85 0 0
-0.84 0 0
-0.83 0 0
-0.82 0 0
-0.81 0 0
-0.8 0 0
-0.79 0 0
-0.78 0 0
-0.77 0 0
-0.76 0 0
-0.75 0 0
-0.74 0 0
-0.73 0 0
-0.72 0 0
-0.71 0 0
-0.7 0 0
-0.69 0 0
-0.68 0 0
-0.67 0 0
-0.66 0 0
-0.65 0 0
-0.64 0 0
-0.63 0 0
-0.62 0 0
-0.61 0 0
-0.6 0 0
-0.59 0 0
-0.58 0 0
-0.57 0 0
-0.56 0 0
-0.55 0 0
-0.54 0 0
-0.53 0 0
-0.52 0 0
-0.51 0 0
-0.5 0 0
-0.49 0 0
-0.48 0 0
-0.47 0 0
-0.46 0 0
-0.45 0 0
-0.44 0 0
-0.43 0 0
-0.42 0 0
-0.41 0 0
-0.4 0 0
-0.39 0 0
-0.38 0 0
-0.37 0 0
-0.36 0 0
-0.35 0 0
-0.34 0 0
-0.33 0 0
-0.32 0 0
-0.31 0 0
-0.3 0 0
-0.29 0 0
-0.28 0 0
-0.27 0 0
-0.26 0 0
-0.25 0 0
-0.24 0 0
-0.23 0 0
-0.22 0 0
-0.21 0 0
-0.2 0 0
-0.19 0 0
-0.18 0 0
-0.17 0 0
-0.16 0 0
-0.15 0 0
-0.14 0 0
-0.13 0 0
-0.12 0 0
-0.11 0 0
-0.1 0 0
-0.09 0 0
-0.08 0 0
-0.07 0 0
-0.06 0 0
-0.05 0 0
-0.04 0 0
-0.03 0 0
-0.02 0 0
-0.01 0 0
1.01 0 0
1.02 0 0
1.03 0 0
1.04 0 0
1.05 0 0
1.06 0 0
1.07 0 0
1.08 0 0
1.09 0 0
1.1 0 0
1.11 0 0
1.12 0 0
1.13 0 0
1.14 0 0
1.15 0 0
1.16 0 0
1.17 0 0
1.18 0 0
1.19 0 0
1.2 0 0
1.21 0 0
1.22 0 0
1.23 0 0
1.24 0 0
1.25 0 0
1.26 0 0
1.27 0 0
1.28 0 0
1.29 0 0
1.3 0 0
1.31 0 0
1.32 0 0
1.33 0 0
1.34 0 0
1.35 0 0
1.36 0 0
1.37 0 0
1.38 0 0
1.39 0 0
1.4 0 0
1.41 0 0
1.42 0 0
1.43 0 0
1.44 0 0
1.45 0 0
1.46 0 0
1.47 0 0
1.48 0 0
1.49 0 0
1.5 0 0
1.51 0 0
1.52 0 0
1.53 0 0
1.54 0 0
1.55 0 0
1.56 0 0
1.57 0 0
1.58 0 0
1.59 0 0
1.6 0 0
1.61 0 0
1.62 0 0
1.63 0 0
1.64 0 0
1.65 0 0
1.66 0 0
1.67 0 0
1.68 0 0
1.69 0 0
1.7 0 0
1.71 0 0
1.72 0 0
1.73 0 0
1.74 0 0
1.75 0 0
1.76 0 0
1.77 0 0
1.78 0 0
1.79 0 0
1.8 0 0
1.81 0 0
1.82 0 0
1.83 0 0
1.84 0 0
1.85 0 0
1.86 0 0
1.87 0 0
1.88 0 0
1.89 0 0
1.9 0 0
1.91 0 0
1.92 0 0
1.93 0 0
1.94 0 0
1.95 0 0
1.96 0 0
1.97 0 0
1.98 0 0
1.99 0 0
2 0.0100088 0
2 0.0204183 0
2 0.0312446 0
2 0.0425043 0
2 0.0542147 0
2 0.066394 0
2 0.079061 0
2 0.092235 0
2 0.105936 0
2 0.120186 0
2 0.135007 0
2 0.150421 0
2 0.166452 0
2 0.183124 0
2 0.200465 0
2 0.218499 0
2 0.237256 0
2 0.256763 0
2 0.277051 0
2 0.298152 0
2 0.320097 0
2 0.342921 0
2 0.366659 0
2 0.391347 0
2 0.417024 0
2 0.443728 0
2 0.471502 0
2 0.500387 0
2 0.530429 0
2 0.561674 0
2 0.594169 0
2 0.627966 0
2 0.663115 0
2 0.699672 0
2 0.737692 0
2 0.777235 0
2 0.818361 0
2 0.861133 0
2 0.905617 0
2 0.951882 0
1.95 1 0
1.9 1 0
1.85 1 0
1.8 1 0
1.75 1 0
1.7 1 0
1.65 1 0
1.6 1 0
1.55 1 0
1.5 1 0
1.45 1 0
1.4 1 0
1.35 1 0
1.3 1 0
1.25 1 0
1.2 1 0
1.15 1 0
1.1 1 0
1.05 1 0
1 1 0
0.95 1 0
0.9 1 0
0.85 1 0
0.8 1 0
0.75 1 0
0.7 1 0
0.65 1 0
0.6 1 0
0.55 1 0
0.5 1 0
0.45 1 0
0.4 1 0
0.35 1 0
0.3 1 0
0.25 1 0
0.2 1 0
0.15 1 0
0.1 1 0
0.05 1 0
3.69793e-12 1 0
-0.05 1 0
-0.1 1 0
-0.15 1 0
-0.2 1 0
-0.25 1 0
-0.3 1 0
-0.35 1 0
-0.4 1 0
-0.45 1 0
-0.5 1 0
-0.55 1 0
-0.6 1 0
-0.65 1 0
-0.7 1 0
-0.75 1 0
-0.8 1 0
-0.85 1 0
-0.9 1 0
-0.95 1 0
-1 0.951882 0
-1 0.905617 0
-1 0.861133 0
-1 0.818361 0
-1 0.777235 0
-1 0.737692 0
-1 0.699672 0
-1 0.663115 0
-1 0.627966 0
-1 0.594169 0
-1 0.561674 0
-1 0.530429 0
-1 0.500387 0
-1 0.471502 0
-1 0.443728 0
-1 0.417024 0
-1 0.391347 0
-1 0.366659 0
-1 0.342921 0
-1 0.320097 0
-1 0.298152 0
-1 0.277051 0
-1 0.256763 0
-1 0.237256 0
-1 0.218499 0
-1 0.200465 0
-1 0.183124 0
-1 0.166452 0
-1 0.150421 0
-1 0.135007 0
-1 0.120186 0
-1 0.105936 0
-1 0.092235 0
-1 0.079061 0
-1 0.066394 0
-1 0.0542147 0
-1 0.0425043 0
-1 0.0312446 0
-1 0.0204183 0
-1 0.0100088 0
0.00921362 0.00379763 0
0.0184561 0.00752451 0
0.0277268 0.0111804 0
0.0370253 0.0147652 0
0.0463511 0.0182786 0
0.0557034 0.0217203 0
0.0650819 0.0250903 0
0.074486 0.0283883 0
0.083915 0.0316141 0
0.0933685 0.0347675 0
0.102846 0.0378484 0
0.112347 0.0408565 0
0.12187 0.0437917 0
0.131416 0.0466538 0
0.140983 0.0494427 0
0.150572 0.0521581 0
0.160181 0.0547999 0
0.16981 0.0573681 0
0.179458 0.0598623 0
0.189125 0.0622825 0
0.198811 0.0646285 0
0.208514 0.0669001 0
0.218234 0.0690974 0
0.227971 0.07122 0
0.237724 0.073268 0
0.247493 0.0752411 0
0.257276 0.0771393 0
0.267073 0.0789625 0
0.276884 0.0807105 0
0.286708 0.0823832 0
0.296545 0.0839806 0
0.306394 0.0855025 0
0.316254 0.0869488 0
0.326125 0.0883196 0
0.336006 0.0896146 0
0.345896 0.0908339 0
0.355796 0.0919773 0
0.365704 0.0930447 0
0.375621 0.0940362 0
0.385544 0.0949517 0
0.395474 0.095791 0
0.40541 0.0965542 0
0.415352 0.0972412 0
0.425299 0.097852 0
0.43525 0.0983865 0
0.445205 0.0988447 0
0.455164 0.0992266 0
0.465125 0.0995321 0
0.475088 0.0997613 0
0.485052 0.0999141 0
0.495017 0.0999904 0
0.504983 0.0999904 0
0.514948 0.0999141 0
0.524912 0.0997613 0
0.534875 0.0995321 0
0.544836 0.0992266 0
0.554795 0.0988447 0
0.56475 0.0983865 0
0.574701 0.097852 0
0.584648 0.0972412 0
0.59459 0.0965542 0
0.604526 0.095791 0
0.614456 0.0949517 0
0.624379 0.0940362 0
0.634296 0.0930447 0
0.644204 0.0919773 0
0.654104 0.0908339 0
0.663994 0.0896146 0
0.673875 0.0883196 0
0.683746 0.0869488 0
0.693606 0.0855025 0
0.703455 0.0839806 0
0.713292 0.0823832 0
0.723116 0.0807105 0
0.732927 0.0789625 0
0.742724 0.0771393 0
0.752508 0.0752411 0
0.762276 0.073268 0
0.772029 0.07122 0
0.781766 0.0690974 0
0.791486 0.0669001 0
0.801189 0.0646285 0
0.810875 0.0622825 0
0.820542 0.0598623 0
0.83019 0.0573681 0
0.839819 0.0547999 0
0.849428 0.0521581 0
0.859017 0.0494427 0
0.868584 0.0466538 0
0.87813 0.0437917 0
0.887653 0.0408565 0
0.897154 0.0378484 0
0.906631 0.0347675 0
0.916085 0.0316141 0
0.925514 0.0283883 0
0.934918 0.0250903 0
0.944297 0.0217203 0
0.953649 0.0182786 0
0.962975 0.0147652 0
0.972273 0.0111804 0
0.981544 0.00752451 0
0.990786 0.00379763 0
-1 0.951882 0.1
-1 0.905617 0.1
-1 0.861133 0.1
-1 0.818361 0.1
-1 0.777235 0.1
-1 0.737692 0.1
-1 0.699672 0.1
-1 0.663115 0.1
-1 0.627966 0.1
-1 0.594169 0.1
-1 0.561674 0.1
-1 0.530429 0.1
-1 0.500387 0.1
-1 0.471502 0.1
-1 0.443728 0.1
-1 0.417024 0.1
-1 0.391347 0.1
-1 0.366659 0.1
-1 0.342921 0.1
-1 0.320097 0.1
-1 0.298152 0.1
-1 0.277051 0.1
-1 0.256763 0.1
-1 0.237256 0.1
-1 0.218499 0.1
-1 0.200465 0.1
-1 0.183124 0.1
-1 0.166452 0.1
-1 0.150421 0.1
-1 0.135007 0.1
-1 0.120186 0.1
-1 0.105936 0.1
-1 0.092235 0.1
-1 0.079061 0.1
-1 0.066394 0.1
-1 0.0542147 0.1
-1 0.0425043 0.1
-1 0.0312446 0.1
-1 0.0204183 0.1
-1 0.0100088 0.1
-0.99 0 0.1
-0.98 0 0.1
-0.97 0 0.1
-0.96 0 0.1
-0.95 0 0.1
-0.94 0 0.1
-0.93 0 0.1
-0.92 0 0.1
-0.91 0 0.1
-0.9 0 0.1
-0.89 0 0.1
-0.88 0 0.1
-0.87 0 0.1
-0.86 0 0.1
-0.85 0 0.1
-0.84 0 0.1
-0.83 0 0.1
-0.82 0 0.1
-0.81 0 0.1
-0.8 0 0.1
-0.79 0 0.1
-0.78 0 0.1
-0.77 0 0.1
-0.76 0 0.1
-0.75 0 0.1
-0.74 0 0.1
-0.73 0 0.1
-0.72 0 0.1
-0.71 0 0.1
-0.7 0 0.1
-0.69 0 0.1
-0.68 0 0.1
-0.67 0 0.1
-0.66 0 0.1
-0.65 0 0.1
-0.64 0 0.1
-0.63 0 0.1
-0.62 0 0.1
-0.61 0 0.1
-0.6 0 0.1
-0.59 0 0.1
-0.58 0 0.1
-0.57 0 0.1
-0.56 0 0.1
-0.55 0 0.1
-0.54 0 0.1
-0.53 0 0.1
-0.52 0 0.1
-0.51 0 0.1
-0.5 0 0.1
-0.49 0 0.1
-0.48 0 0.1
-0.47 0 0.1
-0.46 0 0.1
-0.45 0 0.1
-0.44 0 0.1
-0.43 0 0.1
-0.42 0 0.1
-0.41 0 0.1
-0.4 0 0.1
-0.39 0 0.1
-0.38 0 0.1
-0.37 0 0.1
-0.36 0 0.1
-0.35 0 0.1
-0.34 0 0.1
-0.33 0 0.1
-0.32 0 0.1
-0.31 0 0.1
-0.3 0 0.1
-0.29 0 0.1
-0.28 0 0.1
-0.27 0 0.1
-0.26 0 0.1
-0.25 0 0.1
-0.24 0 0.1
-0.23 0 0.1
-0.22 0 0.1
-0.21 0 0.1
-0.2 0 0.1
-0.19 0 0.1
-0.18 0 0.1
-0.17 0 0.1
-0.16 0 0.1
-0.15 0 0.1
-0.14 0 0.1
-0.13 0 0.1
-0.12 0 0.1
-0.11 0 0.1
-0.1 0 0.1
-0.09 0 0.1
-0.08 0 0.1
-0.07 0 0.1
-0.06 0 0.1
-0.05 0 0.1
-0.04 0 0.1
-0.03 0 0.1
-0.02 0 0.1
-0.01 0 0.1
0.00921362 0.00379763 0.1
0.0184561 0.00752451 0.1
0.0277268 0.0111804 0.1
0.0370253 0.0147652 0.1
0.0463511 0.0182786 0.1
0.0557034 0.0217203 0.1
0.0650819 0.0250903 0.1
0.074486 0.0283883 0.1
0.083915 0.0316141 0.1
0.0933685 0.0347675 0.1
0.102846 0.0378484 0.1
0.112347 0.0408565 0.1
0.12187 0.0437917 0.1
0.131416 0.0466538 0.1
0.140983 0.0494427 0.1
0.150572 0.0521581 0.1
0.160181 0.0547999 0.1
0.16981 0.0573681 0.1
0.179458 0.0598623 0.1
0.189125 0.0622825 0.1
0.198811 0.0646285 0.1
0.208514 0.0669001 0.1
0.218234 0.0690974 0.1
0.227971 0.07122 0.1
0.237724 0.073268 0.1
0.247493 0.0752411 0.1
0.257276 0.0771393 0.1
0.267073 0.0789625 0.1
0.276884 0.0807105 0.1
0.286708 0.0823832 0.1
0.296545 0.0839806 0.1
0.306394 0.0855025 0.1
0.316254 0.0869488 0.1
0.326125 0.0883196 0.1
0.336006 0.0896146 0.1
0.345896 0.0908339 0.1
0.355796 0.0919773 0.1
0.365704 0.0930447 0.1
0.375621 0.0940362 0.1
0.385544 0.0949517 0.1
0.395474 0.095791 0.1
0.40541 0.0965542 0.1
0.415352 0.0972412 0.1
0.425299 0.097852 0.1
0.43525 0.0983865 0.1
0.445205 0.0988447 0.1
0.455164 0.0992266 0.1
0.465125 0.0995321 0.1
0.475088 0.0997613 0.1
0.485052 0.0999141 0.1
0.495017 0.0999904 0.1
0.504983 0.0999904 0.1
0.514948 0.0999141 0.1
0.524912 0.0997613 0.1
0.534875 0.0995321 0.1
0.544836 0.0992266 0.1
0.554795 0.0988447 0.1
0.56475 0.0983865 0.1
0.574701 0.097852 0.1
0.584648 0.0972412 0.1
0.59459 0.0965542 0.1
0.604526 0.095791 0.1
0.614456 0.0949517 0.1
0.624379 0.0940362 0.1
0.634296 0.0930447 0.1
0.644204 0.0919773 0.1
0.654104 0.0908339 0.1
0.663994 0.0896146 0.1
0.673875 0.0883196 0.1
0.683746 0.0869488 0.1
0.693606 0.0855025 0.1
0.703455 0.0839806 0.1
0.713292 0.0823832 0.1
0.723116 0.0807105 0.1
0.732927 0.0789625 0.1
0.742724 0.0771393 0.1
0.752508 0.0752411 0.1
0.762276 0.073268 0.1
0.772029 0.07122 0.1
0.781766 0.0690974 0.1
0.791486 0.0669001 0.1
0.801189 0.0646285 0.1
0.810875 0.0622825 0.1
0.820542 0.0598623 0.1
0.83019 0.0573681 0.1
0.839819 0.0547999 0.1
0.849428 0.0521581 0.1
0.859017 0.0494427 0.1
0.868584 0.0466538 0.1
0.87813 0.0437917 0.1
0.887653 0.0408565 0.1
0.897154 0.0378484 0.1
0.906631 0.0347675 0.1
0.916085 0.0316141 0.1
0.925514 0.0283883 0.1
0.934918 0.0250903 0.1
0.944297 0.0217203 0.1
0.953649 0.0182786 0.1
0.962975 0.0147652 0.1
0.972273 0.0111804 0.1
0.981544 0.00752451 0.1
0.990786 0.00379763 0.1
1.01 0 0.1
1.02 0 0.1
1.03 0 0.1
[...]
CELL_DATA 14313
SCALARS rho float
LOOKUP_TABLE default
0.815645
0.822832
0.805887
0.657973
0.810322
0.858257
0.856725
0.856967
0.809126
0.813566
0.858422
0.79823
0.801282
0.691689
0.856124
0.860854
0.807108
0.806748
0.852074
0.80544
0.857114
0.81419
0.856832
0.810232
0.855848
0.813086
0.784257
0.720122
0.822316
0.854927
0.857409
0.794565
0.801283
0.855825
0.803126
0.852437
0.748547
0.807234
0.855493
0.802756
0.794864
0.856666
0.660447
0.763039
0.854656
0.857296
0.853907
0.785899
0.835647
0.850037
0.745566
0.719143
0.710289
0.85236
0.85384
0.787327
0.854644
0.814941
0.808902
0.855949
0.858156
0.855172
0.794516
0.860021
0.856629
0.85545
0.851776
0.788982
0.866017
0.856117
0.797793
0.860586
0.679961
0.862599
0.784146
0.844656
0.824457
0.788048
0.750023
0.857021
0.681812
0.855245
0.855069
0.803111
0.843182
0.855109
0.858199
0.803048
0.850057
0.806253
0.785852
0.693419
0.805607
0.80101
0.784227
0.802465
0.854933
0.853687
0.80281
0.681571
0.840848
0.853603
0.856784
0.84123
0.791726
0.80738
0.802666
0.751849
0.861414
0.851921
0.812341
0.857019
0.852304
0.855153
0.802987
0.857599
0.853971
0.861927
0.785152
0.801492
0.855375
0.853972
0.876129
0.780824
0.842257
0.799612
0.824854
0.803033
0.855111
0.841874
0.852626
0.857351
0.877065
0.856899
0.856768
0.787209
0.811095
0.7939
0.854724
0.855089
0.856724
0.852228
0.803539
0.802602
0.798022
0.865079
0.803833
0.775798
0.826415
0.85506
0.800519
0.803167
0.856835
0.766853
0.85286
0.802347
0.769927
0.855966
0.856301
0.810051
0.855131
0.806767
0.737422
0.774271
0.856711
0.824134
0.745704
0.855196
0.858475
0.815608
0.754119
0.814748
0.76562
0.823671
0.848337
0.825851
0.848568
0.842333
0.855918
0.769221
0.857062
0.852688
0.809091
0.77841
0.792969
0.814831
0.856172
0.798415
0.663391
0.820023
0.775985
0.769816
0.780589
0.762512
0.855906
0.853205
0.805583
0.803173
0.84626
0.855027
0.800427
0.802743
0.858766
0.855118
0.860811
0.802473
0.815167
0.812727
0.856338
0.856745
0.804032
0.843513
0.826978
0.753156
0.854505
0.823558
0.85351
0.807091
0.861032
0.802791
0.802835
0.817432
0.846148
0.875967
0.84139
0.802792
0.855164
0.803403
0.856962
0.798047
0.735892
0.813261
0.750971
0.857912
0.80336
0.78119
0.853497
0.8544
0.853074
0.826005
0.795793
0.718697
0.796327
0.716049
0.854591
0.770461
0.801127
0.805102
0.862574
0.815269
0.677836
0.802948
0.756506
0.864212
0.802223
0.757527
0.843969
0.857279
0.854989
0.686771
0.811557
0.802198
0.835928
0.840774
0.820933
0.809368
0.81451
0.814195
0.689823
0.855111
0.854582
0.782666
0.801476
0.858517
0.787801
0.852411
0.82193
0.770303
0.803724
0.803735
0.673511
0.659123
0.775598
0.848463
0.855769
0.792572
0.858313
0.855137
0.785003
0.804209
0.803092
0.85502
0.85969
0.827843
0.806307
0.811901
0.732657
0.843865
0.758402
0.800534
0.79364
0.784727
0.861759
0.807314
0.801043
0.750035
0.745966
0.835002
0.805668
0.817885
0.802376
0.800623
0.718438
0.854519
0.82077
0.81633
0.858469
0.854027
0.801225
0.82184
0.855303
0.714214
0.850214
0.857257
0.855008
0.855145
0.805515
0.852837
0.80309
0.855278
0.853812
0.763205
0.773003
0.803442
0.80355
0.688064
0.856659
0.812
0.807013
0.853534
0.802905
0.799813
0.755813
0.76478
0.855055
0.788939
0.776334
0.821546
0.864279
0.854922
0.802687
0.8064
0.856837
0.801794
0.85505
0.8215
0.855048
0.809873
0.85453
0.826269
0.852523
0.827062
0.857805
0.680406
0.802545
0.802407
0.812239
0.839835
0.805966
0.801058
0.856985
0.85678
0.855177
0.780722
0.8166
0.840159
0.800253
0.770185
0.811176
0.843405
0.859567
0.857309
0.821751
0.80412
0.714878
0.816725
0.704566
0.801785
0.804865
0.838934
0.854292
0.889225
0.658492
0.706904
0.863137
0.887459
0.852387
0.744833
0.802886
0.762422
0.843273
0.815515
0.757129
0.72351
0.79518
0.854165
0.687093
0.888805
0.856979
0.835498
0.806851
0.677782
0.793087
0.816038
0.855118
0.804648
0.802028
0.859935
0.85702
0.767791
0.753516
0.803083
0.804445
0.855467
0.857684
0.808598
0.858162
0.786276
0.795392
0.797046
0.80283
0.804291
0.855115
0.80779
0.856053
0.857629
0.802141
0.803503
0.802824
0.829305
0.857495
0.849775
0.842068
0.736002
0.791089
0.84854
0.811377
0.850183
0.805337
0.854321
0.805678
0.852111
0.853211
0.70851
0.875816
0.78545
0.855825
0.839057
0.757128
0.848396
0.800076
0.857341
0.661828
0.801264
0.749874
0.858128
0.807279
0.688166
0.803929
0.803123
0.797654
0.803068
0.838806
0.809184
0.857914
0.70547
0.804163
0.804228
0.803598
0.85374
0.803731
0.858078
0.853867
0.800704
0.854924
0.801005
0.803284
0.856958
0.705849
0.806809
0.785356
0.666207
0.857297
0.682854
0.801528
0.85523
0.87694
0.743403
0.793088
0.857483
0.804224
0.802157
0.829649
0.80827
0.853976
0.856859
0.802189
0.855772
0.815617
0.685271
0.855906
0.855439
0.80437
0.856422
0.707126
0.852947
0.85532
0.754914
0.791979
0.855745
0.799882
0.829188
0.854238
0.802457
0.753052
0.67731
0.854588
0.6741
0.801243
0.803691
0.781038
0.858492
0.770644
0.856668
0.807812
0.803657
0.664443
0.854389
0.858252
0.860298
0.842028
0.803146
0.803471
0.856198
0.76749
0.869816
0.83775
0.755043
0.801468
0.719646
0.786161
0.737523
0.850092
0.837874
0.8009
0.731375
0.808219
0.855336
0.856896
0.857744
0.841087
0.748995
0.659754
0.804603
0.853962
0.802237
0.81607
0.835683
0.782294
0.850006
0.853114
0.802809
0.853852
0.798237
0.754221
0.800456
0.811479
0.693767
0.744358
0.801803
0.857089
0.803133
0.674737
0.855071
0.688735
0.856828
0.78004
0.848005
0.853861
0.766078
0.843128
0.825818
0.803149
0.836147
0.838806
0.853771
0.802854
0.854917
0.686488
0.856592
0.877112
0.848957
0.859072
0.802968
0.855091
0.802468
0.860942
0.809875
0.813936
0.75175
0.731668
0.86326
0.855558
0.861308
0.776719
0.802212
0.777696
0.801236
0.810678
0.826422
0.844471
0.85593
0.856571
0.858025
0.860037
0.803597
0.759982
0.8403
0.771734
0.831185
0.852087
0.802582
0.813388
0.775893
0.803367
0.804376
0.86948
0.848476
0.803576
0.805757
0.862411
0.857011
0.803238
0.876739
0.801138
0.854949
0.747403
0.803487
0.799222
0.800869
0.860933
0.69166
0.80442
0.803467
0.737168
0.855151
0.859195
0.855264
0.803713
0.804442
0.801183
0.854018
0.800912
0.729879
0.655967
0.855687
0.843627
0.80252
0.803377
0.802855
0.802051
0.854059
0.800508
0.8555
0.680984
0.854321
0.807509
0.856542
0.864876
0.855321
0.832472
0.85754
0.80097
0.856231
0.738634
0.802028
0.850133
0.856192
0.793433
0.854926
0.710898
0.804043
0.710347
0.747183
0.752566
0.807569
0.853985
0.810957
0.664743
0.748718
0.803198
0.860262
0.788888
0.832801
0.803151
0.806095
0.833809
0.71399
0.773101
0.682406
0.802905
0.858292
0.804313
0.847794
0.730385
0.710024
0.852779
0.802311
0.854937
0.771561
0.855584
0.659763
0.855221
0.713326
0.855209
0.853228
0.803066
0.80261
0.857597
0.825145
0.802073
0.840376
0.709516
0.807804
0.738661
0.801237
0.80056
0.855469
0.814778
0.775793
0.852499
0.764763
0.803355
0.731367
0.804971
0.756392
0.731371
0.856995
0.856773
0.801017
0.780795
0.811099
0.728033
0.851406
0.80328
0.738261
0.857902
0.853996
0.734773
0.749961
0.857896
0.803127
0.780032
0.831834
0.862675
0.863506
0.85808
0.660564
0.791519
0.845644
0.855076
0.698617
0.712937
0.815321
0.856659
0.764419
0.786442
0.857986
0.841764
0.776311
0.855967
0.855612
0.803321
0.766132
0.800946
0.833742
0.850031
0.684318
0.803531
0.856151
0.673413
0.853589
0.84554
0.858392
0.734404
0.857865
0.855226
0.857722
0.800318
0.855237
0.805096
0.804857
0.802911
0.80362
0.854702
0.690497
0.847058
0.809055
0.763603
0.709931
0.790374
0.800615
0.857763
0.765671
0.712799
0.856575
0.82022
0.85793
0.855397
0.855423
0.857575
0.788581
0.711764
0.857907
0.837233
0.858396
0.7134
0.837755
0.776109
0.854979
0.851724
0.85839
0.854838
0.800426
0.855931
0.806322
0.768515
0.852536
0.856396
0.795941
0.793581
0.774452
0.70957
0.763079
0.818516
0.852407
0.856694
0.810762
0.851386
0.803597
0.829962
0.805913
0.712
0.764512
0.857369
0.803154
0.803126
0.816631
0.711362
0.855398
0.802395
0.865373
0.850081
0.729995
0.79726
0.802893
0.862795
0.762801
0.686793
0.677754
0.706574
0.853077
0.804977
0.689101
0.712447
0.85563
0.857312
0.90016
0.803062
0.852697
0.856596
0.777685
0.854392
0.855794
0.857807
0.854438
0.858407
0.801689
0.852432
0.735739
0.854039
0.80311
0.846967
0.765541
0.854788
0.690534
0.854315
0.802811
0.856159
0.858539
0.805835
0.758209
0.823539
0.853208
0.835556
0.858023
0.85454
0.735472
0.855814
0.856664
0.856262
0.858428
0.856527
0.663573
0.800953
0.803183
0.812481
0.815247
0.802817
0.802782
0.855049
0.778966
0.804907
0.854921
0.879418
0.860624
0.708945
0.830443
0.772198
0.85516
0.77725
0.854775
0.803181
0.804558
0.85695
0.820287
0.839625
0.814599
0.820484
0.789537
0.748027
0.788836
0.761461
0.853403
0.83644
0.837094
0.788493
0.848677
0.765015
0.708944
0.858053
0.802498
0.858235
0.803316
0.728712
0.801369
0.784847
0.751253
0.856845
0.757581
0.807553
0.852734
0.87919
0.810252
0.807056
0.78218
0.856534
0.810057
0.863426
0.895806
0.800554
0.658718
0.801713
0.707556
0.780658
0.7227
0.798375
0.681849
0.855073
0.849834
0.804087
0.856987
0.854909
0.804332
0.803382
0.759245
0.824183
0.856483
0.802369
0.844388
0.794111
0.803244
0.841038
0.727383
0.855
0.802608
0.845467
0.848868
0.804542
0.802297
0.853737
0.853955
0.847459
0.803284
0.821637
0.857468
0.825363
0.802716
0.855513
0.811142
0.672328
0.85635
0.855196
0.804467
0.735133
0.802709
0.842796
0.803424
0.767119
0.872221
0.85824
0.852476
0.858054
0.846576
0.812462
0.857582
0.821529
0.852627
0.856256
0.728983
0.857507
0.777048
0.81727
0.772862
0.801262
0.772982
0.802773
0.696724
0.853467
0.745015
0.674155
0.847227
0.72777
0.777304
0.854549
0.857021
0.812277
0.856442
0.772788
0.711369
0.856802
0.688645
0.854952
0.80832
0.803067
0.805803
0.855602
0.718723
0.803011
0.781068
0.855931
0.853224
0.829846
0.804299
0.752881
0.794252
0.737082
0.800537
0.804493
0.858259
0.852705
0.810025
0.857886
0.855801
0.734269
0.777734
0.691511
0.766075
0.855364
0.808057
0.861638
0.807436
0.855069
0.706552
0.873253
0.855069
0.857777
0.685513
0.856149
0.857334
0.866127
0.866748
0.850426
0.829625
0.855695
0.664575
0.804152
0.850853
0.723387
0.85396
0.802822
0.857553
0.805943
0.855747
0.854517
0.810385
0.730193
0.801036
0.802818
0.686822
0.855175
0.87857
0.854538
0.745602
0.82235
0.855452
0.855508
0.835858
0.689825
0.670085
0.803075
0.863893
0.803913
0.803219
0.855069
0.80072
0.810674
0.853764
0.802681
0.802974
0.802776
0.856518
0.803497
0.80556
0.80073
0.834562
0.859789
0.874424
0.856135
0.847323
0.854714
0.856054
0.857988
0.854862
0.852857
0.855826
0.806537
0.854776
0.720689
0.859769
0.708003
0.88465
0.803058
0.855339
0.800934
0.789202
0.82174
0.753248
0.821037
0.811166
0.812934
0.855594
0.784539
0.849858
0.682452
0.804373
0.856021
0.855081
0.79683
0.85713
0.691422
0.788618
0.664821
0.852919
0.801058
0.80886
0.802831
0.854691
0.856716
0.856511
0.748089
0.848866
0.857664
0.810488
0.803066
0.802041
0.757575
0.810368
0.808986
0.802235
0.760681
0.695442
0.661818
0.864261
0.803904
0.812673
0.788191
0.822767
0.803262
0.802956
0.855181
0.786861
0.767954
0.854997
0.807413
0.810853
0.858502
0.804785
0.857954
0.806094
0.667754
0.80319
0.85774
0.809969
0.854056
0.855124
0.857458
0.719372
0.721298
0.688808
0.851321
0.853029
0.789999
0.81186
0.74123
0.815237
0.809867
0.858218
0.80292
0.81
0.677007
0.754755
0.840506
0.855765
0.79748
0.839632
0.855315
0.800801
0.802751
0.736908
0.84327
0.85828
0.80301
0.856937
0.802791
0.711939
0.815762
0.856901
0.676651
0.758728
0.831156
0.827824
0.766711
0.802186
0.795681
0.857574
0.768819
0.744696
0.856428
0.796208
0.801823
0.778348
0.676041
0.852801
0.738543
0.771267
0.741677
0.80296
0.801297
0.857566
0.742158
0.780017
0.802196
0.855107
0.683316
0.800886
0.824001
0.843642
0.678398
0.803772
0.789558
0.760923
0.760088
0.799359
0.855406
0.855967
0.848515
0.759945
0.783042
0.71588
0.861275
0.862842
0.852878
0.793261
0.880684
0.766184
0.855716
0.779774
0.795977
0.796859
0.858246
0.802285
0.857357
0.792186
0.774414
0.855571
0.800981
0.866495
0.767323
0.795511
0.803569
0.769624
0.802994
0.854743
0.675642
0.800542
0.800892
0.802864
0.85594
0.778612
0.801654
0.772404
0.857616
0.806826
0.774957
0.857582
0.853557
0.859166
0.805021
0.818924
0.801341
0.804168
0.736712
0.856759
0.802363
0.750213
0.805259
0.786935
0.856939
0.847105
0.853859
0.865415
0.847026
0.767116
0.855454
0.825925
0.789495
0.696023
0.847607
0.842575
0.857303
0.814545
0.872359
0.856751
0.788647
0.842398
0.786656
0.800224
0.781909
0.857257
0.771764
0.711258
0.866074
0.740561
0.796709
0.860476
0.856656
0.744164
0.807301
0.791889
0.80291
0.798219
0.819597
0.802391
0.802262
0.801458
0.800634
0.788998
0.85719
0.81503
0.855002
0.808242
0.775658
0.816349
0.813427
0.856712
0.803903
0.668193
0.823679
0.851894
0.855939
0.762684
0.805498
0.803029
0.802327
0.854999
0.756404
0.854928
0.836591
0.834974
0.801203
0.85673
0.810929
0.805299
0.780915
0.807869
0.853536
0.805943
0.845592
0.843855
0.80388
0.85621
0.802699
0.820673
0.846719
0.857258
0.816377
0.818713
0.757665
0.855133
0.811725
0.802329
0.766916
0.790858
0.720126
0.803692
0.663302
0.803401
0.855194
0.782229
0.861375
0.696262
0.851483
0.782154
0.856473
0.657335
0.803881
0.827491
0.854838
0.85532
0.76379
0.866432
0.684378
0.850353
0.721245
0.801366
0.688472
0.733771
0.855756
0.857984
0.790354
0.802544
0.819581
0.692509
0.849099
0.777655
0.861955
0.858054
0.813744
0.855481
0.80235
0.836974
0.810008
0.802014
0.683318
0.803382
0.867417
0.802748
0.839712
0.780074
0.805175
0.857181
0.857448
0.800776
0.778014
0.851224
0.854773
0.688107
0.802981
0.705781
0.855008
0.693679
0.857906
0.808955
0.749559
0.743877
0.78867
0.772114
0.841939
0.81219
0.827145
0.802956
0.757444
0.801043
0.821421
0.803346
0.844928
0.837606
0.74172
0.744647
0.80204
0.782582
0.655744
0.856402
0.748478
0.796119
0.709681
0.852749
0.853673
0.857481
0.838436
0.835732
0.808835
0.709363
0.828801
0.808596
0.802412
0.855025
0.857902
0.854993
0.813749
0.856393
0.855
0.713187
0.80305
0.800196
0.856106
0.747196
0.800853
0.823071
0.795722
0.746757
0.837792
0.761951
0.779026
0.809726
0.856236
0.733138
0.864769
0.779742
0.803322
0.801009
0.856001
0.86796
0.800825
0.692253
0.855022
0.700312
0.68602
0.784073
0.804345
0.806963
0.857351
0.803496
0.848236
0.858554
0.67901
0.792522
0.831987
0.857548
0.690228
0.768077
0.732912
0.855011
0.854012
0.745753
0.80298
0.856099
0.801439
0.833653
0.713775
0.866069
0.75072
0.855671
0.856598
0.75099
0.854928
0.730244
0.822494
0.726871
0.811592
0.82325
0.720012
0.774158
0.775181
0.857754
0.853946
0.855464
0.856326
0.803687
0.809199
0.803235
0.848014
0.801986
0.760649
0.80454
0.689234
0.814781
0.805039
0.802671
0.857331
0.857076
0.803513
0.7594
0.701977
0.741416
0.827991
0.815946
0.758718
0.716868
0.795532
0.85676
0.800478
0.799105
0.803319
0.84755
0.792348
0.670318
0.719978
0.801997
0.857374
0.881936
0.814828
0.857883
0.871298
0.801699
0.801027
0.855213
0.856753
0.843392
0.775208
0.807029
0.763462
0.880948
0.818409
0.855656
0.715767
0.800737
0.655886
0.677518
0.718699
0.848021
0.803276
0.848749
0.804433
0.803262
0.671836
0.822004
0.803629
0.788209
0.853455
0.802926
0.854663
0.865476
0.694399
0.848654
0.801461
0.855013
0.814951
0.855976
0.856925
0.799158
0.801166
0.799515
0.802366
0.801627
0.851793
0.844247
0.855293
0.779429
0.803099
0.719994
0.855661
0.857925
0.690819
0.779832
0.779897
0.676323
0.823163
0.80218
0.892199
0.800853
0.851889
0.801282
0.79526
0.800983
0.808652
0.78683
0.667042
0.712156
0.74324
0.787164
0.850628
0.802977
0.820183
0.792468
0.839385
0.85601
0.800793
0.872738
0.763394
0.857533
0.786826
0.670645
0.699847
0.856014
0.80313
0.80374
0.671903
0.796649
0.803055
0.724206
0.855106
0.828202
0.80815
0.854109
0.703693
0.736282
0.779724
0.855813
0.83155
0.722241
0.792091
0.724724
0.85513
0.855679
0.786522
0.812505
0.686812
0.8541
0.802368
0.770352
0.851083
0.80367
0.768356
0.784065
0.7784
0.856871
0.667093
0.799781
0.754682
0.799499
0.821734
0.728981
0.801192
0.848392
0.764797
0.812522
0.761725
0.854999
0.801122
0.768483
0.758757
0.845703
0.799013
0.85568
0.733598
0.803334
0.844289
0.857461
0.756748
0.857254
0.808355
0.856317
0.708382
0.854786
0.784712
0.857237
0.805759
0.867104
0.80303
0.855372
0.766847
0.854842
0.865122
0.830967
0.846642
0.844499
0.762024
0.847756
0.827148
0.803741
0.849551
0.804065
0.716752
0.81497
0.855013
0.768556
0.764014
0.80068
0.80414
0.730061
0.800452
0.660881
0.846951
0.759906
0.762195
0.855101
0.783048
0.837405
0.801596
0.836785
0.802213
0.855437
0.83499
0.766698
0.80917
0.692236
0.856363
0.785269
0.83771
0.80313
0.672734
0.803515
0.80252
0.849346
0.802052
0.854724
0.806025
0.712196
0.856197
0.847724
0.746315
0.790359
0.85668
0.802516
0.775462
0.813777
0.774465
0.797895
0.803188
0.80473
0.863873
0.738734
0.735035
0.800041
0.763352
0.782128
0.83012
0.658838
0.758013
0.798957
0.802952
0.803639
0.756395
0.855614
0.846629
0.803184
0.806755
0.855717
0.749872
0.739555
0.807818
0.855442
0.802273
0.870557
0.802654
0.856836
0.798466
0.849069
0.814978
0.806371
0.739291
0.813339
0.854973
0.801995
0.803394
0.801837
0.70097
0.849011
0.854107
0.856657
0.862047
0.854127
0.801223
0.679287
0.8344
0.752278
0.857774
0.805536
0.812105
0.825238
0.855363
0.856149
0.787383
0.667054
0.68606
0.856187
0.851334
0.679213
0.798573
0.854194
0.832346
0.674065
0.807743
0.854455
0.802535
0.807232
0.691511
0.855364
0.80694
0.67062
0.856737
0.854847
0.674889
0.808904
0.855174
0.782745
0.805663
0.838031
0.856132
0.802329
0.856812
0.662647
0.829378
0.814748
0.802447
0.790628
0.818253
0.856538
0.807754
0.80335
0.850691
0.799834
0.745566
0.846649
0.698334
0.858396
0.729694
0.769288
0.796654
0.769636
0.803396
0.676207
0.871223
0.857195
0.854757
0.801377
0.802923
0.803353
0.813672
0.855221
0.734463
0.758406
0.76103
0.855058
0.763969
0.709205
0.847462
0.817723
0.856205
0.852273
0.810049
0.779562
0.688319
0.798879
0.826258
0.683282
0.855114
0.855837
0.778936
0.804222
0.805441
0.715158
0.848761
0.812958
0.823119
0.697709
0.801249
0.789069
0.858107
0.855906
0.856887
0.81059
0.855963
0.723884
0.829932
0.855005
0.746872
0.674937
0.788867
0.798039
0.761532
0.85585
0.800805
0.804647
0.788875
0.884176
0.803692
0.800422
0.855565
0.878922
0.802987
0.850381
0.831801
0.854612
0.793051
0.764732
0.812093
0.80295
0.853414
0.802395
0.827453
0.867536
0.77823
0.85608
0.808366
0.803143
0.713534
0.664783
0.800139
0.804179
0.855323
0.797593
0.829621
0.858415
0.782708
0.804114
0.858052
0.815834
0.848698
0.783801
0.695644
0.803603
0.771718
0.783959
0.770877
0.774205
0.795758
0.790636
0.821266
0.792709
0.807674
0.803421
0.805486
0.855019
0.668423
0.784699
0.852927
0.853283
0.85573
0.838496
0.853441
0.838226
0.804477
0.855679
0.807752
0.788534
0.853755
0.802378
0.826884
0.797227
0.803304
0.685013
0.803022
0.796099
0.691159
0.840203
0.805787
0.80388
0.809109
0.763867
0.763888
0.855908
0.782544
0.811006
0.854506
0.731244
0.802609
0.856238
0.774646
0.800977
0.851632
0.785484
0.839263
0.835863
0.802824
0.855014
0.807754
0.803269
0.802416
0.854819
0.802776
0.801674
0.693671
0.854994
0.82499
0.804454
0.857714
0.759407
0.859109
0.846396
0.675503
0.805796
0.802946
0.802805
0.854506
0.852116
0.856408
0.802961
0.843172
0.855237
0.811583
0.802728
0.854013
0.80422
0.767247
0.771583
0.816657
0.855445
0.85117
0.810848
0.796811
0.812979
0.823561
0.808612
0.856653
0.754174
0.67003
0.757933
0.855066
0.806402
0.854602
0.865433
0.802062
0.777219
0.74054
0.801457
0.804516
0.763167
0.85632
0.752561
0.861868
0.778089
0.852621
0.905184
0.814136
0.802137
0.814749
0.80926
0.756903
0.812457
0.847922
0.79462
0.842898
0.78592
0.802112
0.808116
0.820585
0.80322
0.87282
0.785307
0.80148
0.687703
0.802831
0.748545
0.802497
0.794537
0.793494
0.817628
0.768843
0.839629
0.82279
0.868744
0.85573
0.856529
0.856751
0.905257
0.769516
0.801477
0.767248
0.80303
0.801198
0.803399
0.775721
0.802147
0.805866
0.736228
0.845826
0.79183
0.704409
0.870016
0.870482
0.795989
0.811335
0.796978
0.810467
0.78781
0.783265
0.791813
0.780698
0.802957
0.80357
0.780226
0.85504
0.80321
0.690833
0.857983
0.820998
0.848103
0.802044
0.699116
0.777044
0.804996
0.878673
0.685129
0.780255
0.834106
0.814247
0.829501
0.726812
0.772139
0.807189
0.855761
0.854882
0.863865
0.758272
0.774539
0.890088
0.805254
0.855435
0.798239
0.737156
0.722241
0.690009
0.739406
0.713791
0.808537
0.838278
0.802941
0.854688
0.837599
0.809799
0.879245
0.769676
0.856236
0.855392
0.854472
0.854941
0.855401
0.855979
0.854187