# vtk DataFile Version 1.0
unstructured grid
ascii
DATASET UNSTRUCTURED_GRID
points 14760 float
-1 0 0
-1 1 0
2 0 0
2 1 0
0 0 0
1 0 0
-1 1 0.1
-1 0 0.1
0 0 0.1
1 0 0.1
2 0 0.1
2 1 0.1
-0.99 0 0
-0.98 0 0
-0.97 0 0
-0.96 0 0
-0.95 0 0
-0.94 0 0
-0.93 0 0
-0.92 0 0
-0.91 0 0
-0.9 0 0
-0.89 0 0
-0.88 0 0
-0.87 0 0
-0.86 0 0
-0.85 0 0
-0.84 0 0
-0.83 0 0
-0.82 0 0
-0.81 0 0
-0.8 0 0
-0.79 0 0
-0.78 0 0
-0.77 0 0
-0.76 0 0
-0.75 0 0
-0.74 0 0
-0.73 0 0
-0.72 0 0
-0.71 0 0
-0.7 0 0
-0.69 0 0
-0.68 0 0
-0.67 0 0
-0.66 0 0
-0.65 0 0
-0.64 0 0
-0.63 0 0
-0.62 0 0
-0.61 0 0
-0.6 0 0
-0.59 0 0
-0.58 0 0
-0.57 0 0
-0.56 0 0
-0.55 0 0
-0.54 0 0
-0.53 0 0
-0.52 0 0
-0.51 0 0
-0.5 0 0
-0.49 0 0
-0.48 0 0
-0.47 0 0
-0.46 0 0
-0.45 0 0
-0.44 0 0
-0.43 0 0
-0.42 0 0
-0.41 0 0
-0.4 0 0
-0.39 0 0
-0.38 0 0
-0.37 0 0
-0.36 0 0
-0.35 0 0
-0.34 0 0
-0.33 0 0
-0.32 0 0
-0.31 0 0
-0.3 0 0
-0.29 0 0
-0.28 0 0
-0.27 0 0
-0.26 0 0
-0.25 0 0
-0.24 0 0
-0.23 0 0
-0.22 0 0
-0.21 0 0
-0.2 0 0
-0.19 0 0
-0.18 0 0
-0.17 0 0
-0.16 0 0
-0.15 0 0
-0.14 0 0
-0.13 0 0
-0.12 0 0
-0.11 0 0
-0.1 0 0
-0.09 0 0
-0.08 0 0
-0.07 0 0
-0.06 0 0
-0.05 0 0
-0.04 0 0
-0.03 0 0
-0.02 0 0
-0.01 0 0
1.01 0 0
1.02 0 0
1.03 0 0
1.04 0 0
1.05 0 0
1.06 0 0
1.07 0 0
1.08 0 0
1.09 0 0
1.1 0 0
1.11 0 0
1.12 0 0
1.13 0 0
1.14 0 0
1.15 0 0
1.16 0 0
1.17 0 0
1.18 0 0
1.19 0 0
1.2 0 0
1.21 0 0
1.22 0 0
1.23 0 0
1.24 0 0
1.25 0 0
1.26 0 0
1.27 0 0
1.28 0 0
1.29 0 0
1.3 0 0
1.31 0 0
1.32 0 0
1.33 0 0
1.34 0 0
1.35 0 0
1.36 0 0
1.37 0 0
1.38 0 0
1.39 0 0
1.4 0 0
1.41 0 0
1.42 0 0
1.43 0 0
1.44 0 0
1.45 0 0
1.46 0 0
1.47 0 0
1.48 0 0
1.49 0 0
1.5 0 0
1.51 0 0
1.52 0 0
1.53 0 0
1.54 0 0
1.55 0 0
1.56 0 0
1.57 0 0
1.58 0 0
1.59 0 0
1.6 0 0
1.61 0 0
1.62 0 0
1.63 0 0
1.64 0 0
1.65 0 0
1.66 0 0
1.67 0 0
1.68 0 0
1.69 0 0
1.7 0 0
1.71 0 0
1.72 0 0
1.73 0 0
1.74 0 0
1.75 0 0
1.76 0 0
1.77 0 0
1.78 0 0
1.79 0 0
1.8 0 0
1.81 0 0
1.82 0 0
1.83 0 0
1.84 0 0
1.85 0 0
1.86 0 0
1.87 0 0
1.88 0 0
1.89 0 0
1.9 0 0
1.91 0 0
1.92 0 0
1.93 0 0
1.94 0 0
1.95 0 0
1.96 0 0
1.97 0 0
1.98 0 0
1.99 0 0
2 0.0100088 0
2 0.0204183 0
2 0.0312446 0
2 0.0425043 0
2 0.0542147 0
2 0.066394 0
2 0.079061 0
2 0.092235 0
2 0.105936 0
2 0.120186 0
2 0.135007 0
2 0.150421 0
2 0.166452 0
2 0.183124 0
2 0.200465 0
2 0.218499 0
2 0.237256 0
2 0.256763 0
2 0.277051 0
2 0.298152 0
2 0.320097 0
2 0.342921 0
2 0.366659 0
2 0.391347 0
2 0.417024 0
2 0.443728 0
2 0.471502 0
2 0.500387 0
2 0.530429 0
2 0.561674 0
2 0.594169 0
2 0.627966 0
2 0.663115 0
2 0.699672 0
2 0.737692 0
2 0.777235 0
2 0.818361 0
2 0.861133 0
2 0.905617 0
2 0.951882 0
1.95 1 0
1.9 1 0
1.85 1 0
1.8 1 0
1.75 1 0
1.7 1 0
1.65 1 0
1.6 1 0
1.55 1 0
1.5 1 0
1.45 1 0
1.4 1 0
1.35 1 0
1.3 1 0
1.25 1 0
1.2 1 0
1.15 1 0
1.1 1 0
1.05 1 0
1 1 0
0.95 1 0
0.9 1 0
0.85 1 0
0.8 1 0
0.75 1 0
0.7 1 0
0.65 1 0
0.6 1 0
0.55 1 0
0.5 1 0
0.45 1 0
0.4 1 0
0.35 1 0
0.3 1 0
0.25 1 0
0.2 1 0
0.15 1 0
0.1 1 0
0.05 1 0
3.69793e-12 1 0
-0.05 1 0
-0.1 1 0
-0.15 1 0
-0.2 1 0
-0.25 1 0
-0.3 1 0
-0.35 1 0
-0.4 1 0
-0.45 1 0
-0.5 1 0
-0.55 1 0
-0.6 1 0
-0.65 1 0
-0.7 1 0
-0.75 1 0
-0.8 1 0
-0.85 1 0
-0.9 1 0
-0.95 1 0
-1 0.951882 0
-1 0.905617 0
-1 0.861133 0
-1 0.818361 0
-1 0.777235 0
-1 0.737692 0
-1 0.699672 0
-1 0.663115 0
-1 0.627966 0
-1 0.594169 0
-1 0.561674 0
-1 0.530429 0
-1 0.500387 0
-1 0.471502 0
-1 0.443728 0
-1 0.417024 0
-1 0.391347 0
-1 0.366659 0
-1 0.342921 0
-1 0.320097 0
-1 0.298152 0
-1 0.277051 0
-1 0.256763 0
-1 0.237256 0
-1 0.218499 0
-1 0.200465 0
-1 0.183124 0
-1 0.166452 0
-1 0.150421 0
-1 0.135007 0
-1 0.120186 0
-1 0.105936 0
-1 0.092235 0
-1 0.079061 0
-1 0.066394 0
-1 0.0542147 0
-1 0.0425043 0
-1 0.0312446 0
-1 0.0204183 0
-1 0.0100088 0
0.00921362 0.00379763 0
0.0184561 0.00752451 0
0.0277268 0.0111804 0
0.0370253 0.0147652 0
0.0463511 0.0182786 0
0.0557034 0.0217203 0
0.0650819 0.0250903 0
0.074486 0.0283883 0
0.083915 0.0316141 0
0.0933685 0.0347675 0
0.102846 0.0378484 0
0.112347 0.0408565 0
0.12187 0.0437917 0
0.131416 0.0466538 0
0.140983 0.0494427 0
0.150572 0.0521581 0
0.160181 0.0547999 0
0.16981 0.0573681 0
0.179458 0.0598623 0
0.189125 0.0622825 0
0.198811 0.0646285 0
0.208514 0.0669001 0
0.218234 0.0690974 0
0.227971 0.07122 0
0.237724 0.073268 0
0.247493 0.0752411 0
0.257276 0.0771393 0
0.267073 0.0789625 0
0.276884 0.0807105 0
0.286708 0.0823832 0
0.296545 0.0839806 0
0.306394 0.0855025 0
0.316254 0.0869488 0
0.326125 0.0883196 0
0.336006 0.0896146 0
0.345896 0.0908339 0
0.355796 0.0919773 0
0.365704 0.0930447 0
0.375621 0.0940362 0
0.385544 0.0949517 0
0.395474 0.095791 0
0.40541 0.0965542 0
0.415352 0.0972412 0
0.425299 0.097852 0
0.43525 0.0983865 0
0.445205 0.0988447 0
0.455164 0.0992266 0
0.465125 0.0995321 0
0.475088 0.0997613 0
0.485052 0.0999141 0
0.495017 0.0999904 0
0.504983 0.0999904 0
0.514948 0.0999141 0
0.524912 0.0997613 0
0.534875 0.0995321 0
0.544836 0.0992266 0
0.554795 0.0988447 0
0.56475 0.0983865 0
0.574701 0.097852 0
0.584648 0.0972412 0
0.59459 0.0965542 0
0.604526 0.095791 0
0.614456 0.0949517 0
0.624379 0.0940362 0
0.634296 0.0930447 0
0.644204 0.0919773 0
0.654104 0.0908339 0
0.663994 0.0896146 0
0.673875 0.0883196 0
0.683746 0.0869488 0
0.693606 0.0855025 0
0.703455 0.0839806 0
0.713292 0.0823832 0
0.723116 0.0807105 0
0.732927 0.0789625 0
0.742724 0.0771393 0
0.752508 0.0752411 0
0.762276 0.073268 0
0.772029 0.07122 0
0.781766 0.0690974 0
0.791486 0.0669001 0
0.801189 0.0646285 0
0.810875 0.0622825 0
0.820542 0.0598623 0
0.83019 0.0573681 0
0.839819 0.0547999 0
0.849428 0.0521581 0
0.859017 0.0494427 0
0.868584 0.0466538 0
0.87813 0.0437917 0
0.887653 0.0408565 0
0.897154 0.0378484 0
0.906631 0.0347675 0
0.916085 0.0316141 0
0.925514 0.0283883 0
0.934918 0.0250903 0
0.944297 0.0217203 0
0.953649 0.0182786 0
0.962975 0.0147652 0
0.972273 0.0111804 0
0.981544 0.00752451 0
0.990786 0.00379763 0
-1 0.951882 0.1
-1 0.905617 0.1
-1 0.861133 0.1
-1 0.818361 0.1
-1 0.777235 0.1
-1 0.737692 0.1
-1 0.699672 0.1
-1 0.663115 0.1
-1 0.627966 0.1
-1 0.594169 0.1
-1 0.561674 0.1
-1 0.530429 0.1
-1 0.500387 0.1
-1 0.471502 0.1
-1 0.443728 0.1
-1 0.417024 0.1
-1 0.391347 0.1
-1 0.366659 0.1
-1 0.342921 0.1
-1 0.320097 0.1
-1 0.298152 0.1
-1 0.277051 0.1
-1 0.256763 0.1
-1 0.237256 0.1
-1 0.218499 0.1
-1 0.200465 0.1
-1 0.183124 0.1
-1 0.166452 0.1
-1 0.150421 0.1
-1 0.135007 0.1
-1 0.120186 0.1
-1 0.105936 0.1
-1 0.092235 0.1
-1 0.079061 0.1
-1 0.066394 0.1
-1 0.0542147 0.1
-1 0.0425043 0.1
-1 0.0312446 0.1
-1 0.0204183 0.1
-1 0.0100088 0.1
-0.99 0 0.1
-0.98 0 0.1
-0.97 0 0.1
-0.96 0 0.1
-0.95 0 0.1
-0.94 0 0.1
-0.93 0 0.1
-0.92 0 0.1
-0.91 0 0.1
-0.9 0 0.1
-0.89 0 0.1
-0.88 0 0.1
-0.87 0 0.1
-0.86 0 0.1
-0.85 0 0.1
-0.84 0 0.1
-0.83 0 0.1
-0.82 0 0.1
-0.81 0 0.1
-0.8 0 0.1
-0.79 0 0.1
-0.78 0 0.1
-0.77 0 0.1
-0.76 0 0.1
-0.75 0 0.1
-0.74 0 0.1
-0.73 0 0.1
-0.72 0 0.1
-0.71 0 0.1
-0.7 0 0.1
-0.69 0 0.1
-0.68 0 0.1
-0.67 0 0.1
-0.66 0 0.1
-0.65 0 0.1
-0.64 0 0.1
-0.63 0 0.1
-0.62 0 0.1
-0.61 0 0.1
-0.6 0 0.1
-0.59 0 0.1
-0.58 0 0.1
-0.57 0 0.1
-0.56 0 0.1
-0.55 0 0.1
-0.54 0 0.1
-0.53 0 0.1
-0.52 0 0.1
-0.51 0 0.1
-0.5 0 0.1
-0.49 0 0.1
-0.48 0 0.1
-0.47 0 0.1
-0.46 0 0.1
-0.45 0 0.1
-0.44 0 0.1
-0.43 0 0.1
-0.42 0 0.1
-0.41 0 0.1
-0.4 0 0.1
-0.39 0 0.1
-0.38 0 0.1
-0.37 0 0.1
-0.36 0 0.1
-0.35 0 0.1
-0.34 0 0.1
-0.33 0 0.1
-0.32 0 0.1
-0.31 0 0.1
-0.3 0 0.1
-0.29 0 0.1
-0.28 0 0.1
-0.27 0 0.1
-0.26 0 0.1
-0.25 0 0.1
-0.24 0 0.1
-0.23 0 0.1
-0.22 0 0.1
-0.21 0 0.1
-0.2 0 0.1
-0.19 0 0.1
-0.18 0 0.1
-0.17 0 0.1
-0.16 0 0.1
-0.15 0 0.1
-0.14 0 0.1
-0.13 0 0.1
-0.12 0 0.1
-0.11 0 0.1
-0.1 0 0.1
-0.09 0 0.1
-0.08 0 0.1
-0.07 0 0.1
-0.06 0 0.1
-0.05 0 0.1
-0.04 0 0.1
-0.03 0 0.1
-0.02 0 0.1
-0.01 0 0.1
0.00921362 0.00379763 0.1
0.0184561 0.00752451 0.1
0.0277268 0.0111804 0.1
0.0370253 0.0147652 0.1
0.0463511 0.0182786 0.1
0.0557034 0.0217203 0.1
0.0650819 0.0250903 0.1
0.074486 0.0283883 0.1
0.083915 0.0316141 0.1
0.0933685 0.0347675 0.1
0.102846 0.0378484 0.1
0.112347 0.0408565 0.1
0.12187 0.0437917 0.1
0.131416 0.0466538 0.1
0.140983 0.0494427 0.1
0.150572 0.0521581 0.1
0.160181 0.0547999 0.1
0.16981 0.0573681 0.1
0.179458 0.0598623 0.1
0.189125 0.0622825 0.1
0.198811 0.0646285 0.1
0.208514 0.0669001 0.1
0.218234 0.0690974 0.1
0.227971 0.07122 0.1
0.237724 0.073268 0.1
0.247493 0.0752411 0.1
0.257276 0.0771393 0.1
0.267073 0.0789625 0.1
0.276884 0.0807105 0.1
0.286708 0.0823832 0.1
0.296545 0.0839806 0.1
0.306394 0.0855025 0.1
0.316254 0.0869488 0.1
0.326125 0.0883196 0.1
0.336006 0.0896146 0.1
0.345896 0.0908339 0.1
0.355796 0.0919773 0.1
0.365704 0.0930447 0.1
0.375621 0.0940362 0.1
0.385544 0.0949517 0.1
0.395474 0.095791 0.1
0.40541 0.0965542 0.1
0.415352 0.0972412 0.1
0.425299 0.097852 0.1
0.43525 0.0983865 0.1
0.445205 0.0988447 0.1
0.455164 0.0992266 0.1
0.465125 0.0995321 0.1
0.475088 0.0997613 0.1
0.485052 0.0999141 0.1
0.495017 0.0999904 0.1
0.504983 0.0999904 0.1
0.514948 0.0999141 0.1
0.524912 0.0997613 0.1
0.534875 0.0995321 0.1
0.544836 0.0992266 0.1
0.554795 0.0988447 0.1
0.56475 0.0983865 0.1
0.574701 0.097852 0.1
0.584648 0.0972412 0.1
0.59459 0.0965542 0.1
0.604526 0.095791 0.1
0.614456 0.0949517 0.1
0.624379 0.0940362 0.1
0.634296 0.0930447 0.1
0.644204 0.0919773 0.1
0.654104 0.0908339 0.1
0.663994 0.0896146 0.1
0.673875 0.0883196 0.1
0.683746 0.0869488 0.1
0.693606 0.0855025 0.1
0.703455 0.0839806 0.1
0.713292 0.0823832 0.1
0.723116 0.0807105 0.1
0.732927 0.0789625 0.1
0.742724 0.0771393 0.1
0.752508 0.0752411 0.1
0.762276 0.073268 0.1
0.772029 0.07122 0.1
0.781766 0.0690974 0.1
0.791486 0.0669001 0.1
0.801189 0.0646285 0.1
0.810875 0.0622825 0.1
0.820542 0.0598623 0.1
0.83019 0.0573681 0.1
0.839819 0.0547999 0.1
0.849428 0.0521581 0.1
0.859017 0.0494427 0.1
0.868584 0.0466538 0.1
0.87813 0.0437917 0.1
0.887653 0.0408565 0.1
0.897154 0.0378484 0.1
0.906631 0.0347675 0.1
0.916085 0.0316141 0.1
0.925514 0.0283883 0.1
0.934918 0.0250903 0.1
0.944297 0.0217203 0.1
0.953649 0.0182786 0.1
0.962975 0.0147652 0.1
0.972273 0.0111804 0.1
0.981544 0.00752451 0.1
0.990786 0.00379763 0.1
1.01 0 0.1
1.02 0 0.1
1.03 0 0.1
[...]
CELL_DATA 14313
SCALARS rho float
LOOKUP_TABLE default
0.781306
0.824175
0.805883
0.537466
0.766246
0.811739
0.812409
0.812294
0.811
0.815116
0.811974
0.798867
0.796971
0.517189
0.812778
0.831845
0.808755
0.807704
0.809994
0.805339
0.810641
0.813917
0.812341
0.765986
0.81197
0.814619
0.742366
0.709773
0.823696
0.824294
0.811836
0.794469
0.799471
0.811941
0.804664
0.81059
0.679658
0.808892
0.811527
0.802346
0.752497
0.81031
0.54167
0.701935
0.817546
0.835677
0.810792
0.777391
0.804378
0.850938
0.675357
0.65316
0.589093
0.810503
0.819596
0.782638
0.817532
0.814672
0.810793
0.812248
0.811845
0.818327
0.794446
0.839166
0.810269
0.813225
0.85268
0.783872
0.840512
0.81277
0.7983
0.831407
0.487006
0.837158
0.72583
0.806879
0.824556
0.747053
0.696376
0.811312
0.591817
0.824646
0.833092
0.803468
0.80549
0.819209
0.81172
0.804448
0.826527
0.806988
0.77985
0.522455
0.807293
0.797866
0.725765
0.803829
0.814557
0.808849
0.803215
0.488622
0.806973
0.809556
0.812375
0.814176
0.748374
0.809285
0.802618
0.699494
0.834399
0.809909
0.813847
0.824804
0.812013
0.81924
0.804158
0.827342
0.819746
0.83617
0.778678
0.7987
0.811487
0.808903
0.859391
0.720653
0.843322
0.753335
0.789513
0.804447
0.814566
0.842834
0.809359
0.81187
0.860691
0.812166
0.823185
0.782603
0.80691
0.792225
0.817582
0.817237
0.812409
0.816677
0.803385
0.80343
0.796525
0.838985
0.805942
0.760652
0.795483
0.817264
0.797163
0.803531
0.812343
0.708924
0.821126
0.803716
0.723032
0.821015
0.811961
0.811852
0.818344
0.808705
0.646282
0.757443
0.823029
0.824341
0.713863
0.812562
0.82795
0.815374
0.688563
0.816213
0.712888
0.787864
0.808844
0.826025
0.80805
0.815398
0.820865
0.741481
0.811276
0.809427
0.773449
0.771848
0.790482
0.810975
0.812762
0.796976
0.496315
0.787189
0.757446
0.742661
0.770207
0.713058
0.812221
0.814851
0.807248
0.803381
0.806028
0.816735
0.76005
0.802885
0.828425
0.81478
0.83339
0.803341
0.816553
0.814216
0.811912
0.834534
0.803958
0.811133
0.795918
0.700852
0.813986
0.820611
0.809503
0.807129
0.834464
0.802862
0.802614
0.8192
0.805939
0.855286
0.809554
0.803106
0.817865
0.802467
0.812294
0.757187
0.635374
0.815045
0.697426
0.826797
0.802377
0.721164
0.8119
0.813957
0.814804
0.826198
0.791674
0.71048
0.747604
0.594905
0.814951
0.723746
0.79925
0.807089
0.837663
0.815033
0.57497
0.804033
0.728604
0.837277
0.801174
0.694622
0.811319
0.826984
0.814529
0.556805
0.81325
0.801118
0.798859
0.805979
0.788347
0.773833
0.815711
0.815527
0.529182
0.814563
0.813711
0.772117
0.802035
0.811953
0.780479
0.817208
0.782973
0.709056
0.802805
0.805817
0.567367
0.543328
0.756196
0.807901
0.820385
0.790056
0.8116
0.814754
0.776041
0.805934
0.803489
0.816627
0.829417
0.793106
0.808293
0.811493
0.63137
0.818864
0.69932
0.797216
0.793272
0.777564
0.835566
0.809322
0.796597
0.676218
0.667995
0.803571
0.80565
0.819618
0.804226
0.798347
0.652023
0.815062
0.822066
0.818094
0.811976
0.812821
0.799391
0.790908
0.814118
0.569868
0.807897
0.812163
0.814363
0.812532
0.765256
0.821487
0.801504
0.814156
0.813011
0.75387
0.752408
0.803402
0.803483
0.526619
0.812388
0.811891
0.807081
0.811762
0.803312
0.800944
0.728029
0.711889
0.814334
0.748333
0.75794
0.818417
0.837429
0.814138
0.802159
0.808486
0.812207
0.80345
0.816995
0.782511
0.816926
0.811772
0.810681
0.795083
0.810391
0.792108
0.811782
0.589623
0.799531
0.800376
0.81187
0.813436
0.767567
0.8016
0.812153
0.812374
0.817978
0.770218
0.818271
0.808324
0.752491
0.761695
0.81287
0.805762
0.829139
0.824684
0.823159
0.804282
0.594093
0.778965
0.60024
0.803378
0.80292
0.80074
0.814224
0.87401
0.525973
0.593377
0.838276
0.871971
0.811807
0.690101
0.801953
0.716103
0.806799
0.815702
0.706957
0.650822
0.751087
0.812878
0.475972
0.873541
0.824334
0.798454
0.808775
0.478766
0.739619
0.781699
0.817545
0.804625
0.800536
0.830195
0.812264
0.705499
0.684863
0.801547
0.80606
0.809251
0.811534
0.808789
0.811855
0.735507
0.791169
0.797182
0.802503
0.76403
0.817619
0.807874
0.81281
0.81157
0.75508
0.805601
0.804075
0.793208
0.812086
0.81566
0.806904
0.657174
0.787446
0.817464
0.812827
0.81222
0.807351
0.81266
0.804163
0.821129
0.821482
0.614132
0.855126
0.744004
0.820567
0.804915
0.746986
0.824472
0.800892
0.825424
0.548344
0.799446
0.679068
0.811933
0.809218
0.521805
0.799916
0.804629
0.798003
0.802079
0.800624
0.772225
0.811794
0.592391
0.805712
0.806089
0.799197
0.818282
0.764922
0.811929
0.809298
0.797851
0.816173
0.796471
0.802851
0.812285
0.634089
0.769253
0.733891
0.490111
0.824689
0.568104
0.80261
0.818775
0.856591
0.702938
0.739562
0.812083
0.806098
0.800897
0.793673
0.765881
0.810858
0.812351
0.797087
0.813067
0.816391
0.471831
0.812316
0.813213
0.806334
0.810047
0.604162
0.815144
0.821501
0.705502
0.788768
0.813122
0.801033
0.828145
0.831305
0.804079
0.742447
0.473017
0.813822
0.570989
0.798724
0.803324
0.774702
0.811958
0.750396
0.811253
0.806576
0.803357
0.48586
0.814219
0.827392
0.83054
0.814741
0.803476
0.80322
0.812345
0.758512
0.847309
0.836818
0.709184
0.798601
0.653346
0.778017
0.66749
0.816042
0.836071
0.798914
0.637701
0.765775
0.813624
0.824407
0.832559
0.813613
0.670213
0.537541
0.804576
0.815866
0.801302
0.815785
0.804704
0.771601
0.851101
0.815191
0.804041
0.816714
0.799003
0.744023
0.797967
0.811346
0.596506
0.689102
0.803312
0.810698
0.804804
0.575029
0.811541
0.604761
0.812355
0.767561
0.81686
0.816268
0.753534
0.806521
0.79237
0.805147
0.836839
0.837137
0.831286
0.804781
0.816089
0.579424
0.81239
0.85677
0.825065
0.829251
0.804198
0.820745
0.799302
0.839802
0.808751
0.814381
0.672526
0.630439
0.835712
0.813321
0.840655
0.715814
0.801197
0.763456
0.797183
0.809571
0.793123
0.807013
0.813037
0.822661
0.828077
0.830044
0.805412
0.750129
0.804076
0.729318
0.793166
0.821488
0.80091
0.815034
0.75822
0.805059
0.804331
0.846962
0.809044
0.803409
0.805997
0.834269
0.831329
0.803586
0.856289
0.795931
0.82003
0.661488
0.803162
0.80024
0.798793
0.831689
0.608747
0.806331
0.805551
0.658484
0.814532
0.829308
0.813803
0.803381
0.806035
0.8025
0.816037
0.798866
0.720525
0.513491
0.813352
0.805604
0.801787
0.804507
0.802972
0.803681
0.810684
0.798057
0.813679
0.583224
0.812774
0.809404
0.811844
0.842334
0.813677
0.834201
0.811361
0.797625
0.812749
0.682374
0.803727
0.850192
0.812781
0.793008
0.814146
0.633868
0.805459
0.56627
0.662174
0.673326
0.809551
0.815466
0.812432
0.49712
0.694439
0.803467
0.830756
0.747317
0.831327
0.805158
0.804701
0.796696
0.694263
0.751245
0.547222
0.802761
0.81163
0.804261
0.820843
0.669827
0.621223
0.85396
0.801513
0.813994
0.728977
0.813509
0.52631
0.8208
0.703212
0.813801
0.817483
0.801667
0.802119
0.825141
0.794851
0.803601
0.803869
0.63128
0.806586
0.653097
0.798764
0.798196
0.813688
0.815327
0.729087
0.815363
0.755793
0.803155
0.721469
0.804963
0.745953
0.671462
0.824514
0.812363
0.799087
0.726328
0.811351
0.65837
0.810885
0.802916
0.728386
0.825834
0.816324
0.637395
0.696003
0.82576
0.803656
0.725583
0.83365
0.834707
0.836099
0.81172
0.548141
0.751031
0.820998
0.820289
0.520987
0.639979
0.815574
0.812423
0.721772
0.778377
0.812012
0.807042
0.757931
0.812149
0.813466
0.803571
0.728698
0.802234
0.796884
0.812057
0.576863
0.805559
0.821754
0.574213
0.818132
0.845312
0.811977
0.676576
0.811707
0.811588
0.811814
0.80116
0.818687
0.803243
0.806684
0.804854
0.803311
0.813478
0.485054
0.809863
0.80967
0.691822
0.603111
0.786083
0.798311
0.812053
0.75327
0.564054
0.811398
0.783479
0.812024
0.821472
0.813458
0.825066
0.7483
0.590245
0.811496
0.839047
0.811973
0.709459
0.803455
0.727277
0.813112
0.811046
0.811881
0.817326
0.801249
0.813036
0.808335
0.757546
0.816212
0.812598
0.751739
0.791891
0.71076
0.558379
0.733513
0.781537
0.815789
0.811286
0.810622
0.810552
0.803296
0.795357
0.808064
0.707398
0.753408
0.811554
0.803424
0.804826
0.818338
0.604093
0.813528
0.803893
0.843523
0.807815
0.636254
0.793679
0.803808
0.84245
0.690679
0.561786
0.576958
0.63519
0.81758
0.804496
0.560296
0.585319
0.819921
0.812153
0.889279
0.804803
0.829422
0.812396
0.769436
0.810769
0.81256
0.812045
0.810603
0.811977
0.797982
0.812142
0.640784
0.815692
0.803629
0.809609
0.756673
0.817125
0.610896
0.855406
0.803928
0.826979
0.811972
0.807998
0.748086
0.822232
0.81189
0.837193
0.811761
0.812483
0.641154
0.826735
0.810114
0.81235
0.83658
0.822536
0.553743
0.79643
0.802737
0.810898
0.816944
0.803937
0.800175
0.815175
0.765075
0.804921
0.81582
0.86344
0.831121
0.586718
0.796031
0.754073
0.813996
0.761482
0.819358
0.804834
0.806385
0.812203
0.789108
0.805585
0.815461
0.82182
0.787334
0.668395
0.733742
0.697802
0.814095
0.835862
0.837794
0.733458
0.808821
0.753933
0.609599
0.811998
0.799429
0.81176
0.803574
0.630784
0.802215
0.776486
0.736707
0.810728
0.744634
0.807561
0.816417
0.85972
0.809626
0.807084
0.739944
0.812456
0.775843
0.839359
0.883738
0.796987
0.520457
0.799643
0.607565
0.769262
0.657232
0.799154
0.494563
0.814958
0.849736
0.805927
0.810582
0.819668
0.802808
0.803252
0.696609
0.82291
0.8119
0.804149
0.806575
0.792428
0.803559
0.806789
0.628354
0.816491
0.801977
0.84516
0.807957
0.804365
0.80145
0.812936
0.81305
0.807513
0.803532
0.787506
0.812116
0.795255
0.801703
0.813224
0.771752
0.567013
0.812624
0.818114
0.803975
0.724622
0.801143
0.807676
0.803481
0.698212
0.873021
0.811573
0.816682
0.812001
0.847688
0.778143
0.812073
0.7876
0.815797
0.821998
0.663183
0.812109
0.728545
0.818992
0.718151
0.79944
0.751153
0.802479
0.572613
0.809167
0.735087
0.476267
0.820134
0.661781
0.769066
0.817182
0.812266
0.776514
0.811206
0.718662
0.638075
0.826127
0.698229
0.816659
0.767324
0.801599
0.807926
0.813219
0.652181
0.804311
0.774853
0.809542
0.812019
0.828959
0.806111
0.687485
0.755429
0.651315
0.798143
0.80298
0.811908
0.815363
0.811892
0.811483
0.809324
0.663403
0.731248
0.487645
0.696343
0.813839
0.808072
0.832931
0.809405
0.814645
0.71016
0.873965
0.815117
0.826147
0.571417
0.822834
0.812124
0.840643
0.845513
0.826524
0.829988
0.820133
0.540395
0.805727
0.814875
0.716059
0.816715
0.801275
0.812059
0.807935
0.812546
0.812612
0.767135
0.72129
0.797964
0.800301
0.571638
0.813961
0.858982
0.815257
0.658666
0.822447
0.813066
0.819482
0.835146
0.687114
0.486397
0.804843
0.839812
0.806061
0.803883
0.814157
0.801562
0.812413
0.809462
0.799917
0.804242
0.804681
0.812412
0.805553
0.80616
0.798549
0.836067
0.83064
0.853176
0.812836
0.807349
0.814406
0.812923
0.812013
0.810961
0.815524
0.833942
0.808599
0.811045
0.600664
0.830485
0.710949
0.868146
0.803618
0.833239
0.799013
0.786073
0.785678
0.740032
0.82112
0.81093
0.81147
0.813324
0.775816
0.807816
0.584222
0.806069
0.812934
0.813088
0.795673
0.812
0.611026
0.783476
0.558216
0.820728
0.796871
0.774509
0.801866
0.813617
0.81237
0.812404
0.737926
0.808215
0.811858
0.810326
0.803647
0.803814
0.747294
0.767252
0.809245
0.803724
0.696246
0.597834
0.489689
0.840995
0.806062
0.778564
0.781194
0.824234
0.803572
0.803962
0.817978
0.779217
0.756997
0.816097
0.807447
0.811113
0.837178
0.804826
0.811675
0.808249
0.48341
0.803441
0.811829
0.773697
0.819365
0.814151
0.825547
0.59938
0.710348
0.572936
0.828231
0.815552
0.743268
0.811824
0.676709
0.813696
0.810611
0.811828
0.803085
0.811827
0.576857
0.686325
0.806098
0.813242
0.793692
0.801252
0.831001
0.798674
0.803
0.642891
0.807738
0.81189
0.804275
0.812199
0.802739
0.616909
0.814233
0.812315
0.572393
0.697062
0.7931
0.828127
0.697432
0.803996
0.793634
0.812071
0.756555
0.684907
0.810371
0.795896
0.799291
0.766335
0.540563
0.820195
0.673473
0.74764
0.731321
0.803969
0.797288
0.81139
0.660034
0.76755
0.803969
0.814935
0.592566
0.798884
0.825735
0.807151
0.539084
0.805594
0.783406
0.707064
0.70579
0.800396
0.819073
0.812946
0.808619
0.699446
0.739616
0.641406
0.832279
0.842861
0.816847
0.788155
0.865196
0.69676
0.813291
0.766733
0.790212
0.795522
0.811904
0.803984
0.811529
0.78708
0.755225
0.8197
0.79672
0.842095
0.719309
0.791385
0.805517
0.723229
0.803215
0.814431
0.575925
0.801944
0.798952
0.802792
0.82114
0.764249
0.800161
0.722597
0.812084
0.808827
0.725179
0.812085
0.816163
0.828612
0.805583
0.787096
0.797632
0.805616
0.726545
0.812398
0.801153
0.677521
0.806887
0.780265
0.831862
0.820852
0.818958
0.839269
0.848214
0.699053
0.813669
0.795518
0.787298
0.617498
0.81691
0.803625
0.812168
0.776136
0.853441
0.832771
0.781795
0.841996
0.779775
0.800635
0.771948
0.81216
0.721673
0.635763
0.844175
0.660948
0.792808
0.839698
0.81238
0.671126
0.809233
0.751878
0.803968
0.799001
0.781321
0.804155
0.801051
0.802794
0.801892
0.785604
0.811967
0.781407
0.816218
0.807464
0.712633
0.783835
0.815141
0.812402
0.805486
0.564001
0.825086
0.812817
0.811992
0.703389
0.804767
0.801093
0.801298
0.815853
0.746208
0.815936
0.800551
0.804562
0.755195
0.811429
0.812738
0.805902
0.76899
0.807894
0.812937
0.808042
0.8158
0.808307
0.806064
0.822897
0.804598
0.788736
0.806202
0.812136
0.818148
0.778722
0.703528
0.813726
0.812174
0.800744
0.742443
0.7888
0.654057
0.80339
0.540173
0.803168
0.814374
0.774886
0.834563
0.515175
0.809429
0.73843
0.810424
0.534213
0.804349
0.82781
0.813278
0.818692
0.734249
0.840908
0.553558
0.823512
0.702454
0.799552
0.47741
0.669847
0.812514
0.812003
0.741723
0.800975
0.82085
0.612024
0.821972
0.770912
0.833466
0.812008
0.814118
0.813096
0.803827
0.836794
0.810656
0.803758
0.475989
0.803109
0.843464
0.802229
0.801328
0.767576
0.805406
0.811948
0.812103
0.79659
0.734299
0.810394
0.815458
0.602983
0.804164
0.536642
0.815619
0.539504
0.811948
0.770381
0.682512
0.733477
0.783086
0.71303
0.841508
0.813704
0.796875
0.803973
0.703325
0.802556
0.789442
0.802445
0.814949
0.801704
0.731429
0.697905
0.800602
0.772277
0.518898
0.811164
0.663229
0.794101
0.705619
0.825014
0.809399
0.825023
0.810183
0.837159
0.807244
0.57992
0.829212
0.807002
0.80154
0.815397
0.811939
0.812559
0.814568
0.825101
0.816355
0.618039
0.804748
0.800657
0.812858
0.692169
0.802312
0.823233
0.756367
0.688562
0.807501
0.688326
0.731672
0.810035
0.812673
0.66853
0.841453
0.766935
0.805392
0.796437
0.809753
0.844473
0.801061
0.538769
0.814856
0.708244
0.521304
0.77818
0.758111
0.769523
0.812155
0.803517
0.81636
0.81197
0.585787
0.787495
0.831226
0.812053
0.591173
0.721499
0.634851
0.816625
0.810425
0.69092
0.803983
0.812131
0.799321
0.8342
0.606054
0.840317
0.740157
0.811924
0.812433
0.669164
0.812498
0.720965
0.791806
0.716491
0.811871
0.784434
0.633896
0.724157
0.712336
0.833124
0.809371
0.819291
0.822003
0.803344
0.808511
0.802809
0.817611
0.803254
0.687044
0.803434
0.603469
0.776703
0.807176
0.802304
0.812128
0.824234
0.803328
0.716903
0.710473
0.667185
0.790271
0.816705
0.749063
0.579346
0.751472
0.81021
0.801853
0.760187
0.80358
0.823128
0.753217
0.568766
0.702
0.79861
0.812126
0.864277
0.81459
0.811729
0.851802
0.799565
0.801848
0.814371
0.812225
0.805332
0.717608
0.809145
0.695442
0.862216
0.778654
0.813398
0.573956
0.796494
0.529137
0.583206
0.584896
0.807894
0.803631
0.809249
0.758133
0.803554
0.532204
0.782207
0.80291
0.734537
0.814309
0.801628
0.815811
0.842871
0.511543
0.81202
0.802081
0.809559
0.816722
0.812844
0.812312
0.754125
0.79715
0.798789
0.803232
0.797567
0.810699
0.845293
0.818537
0.723684
0.804677
0.607181
0.813175
0.812024
0.58653
0.766838
0.766905
0.536259
0.784256
0.803639
0.878252
0.798364
0.813085
0.755188
0.794414
0.797044
0.809229
0.78267
0.541921
0.711195
0.680394
0.781042
0.814633
0.802888
0.821812
0.790227
0.80181
0.81277
0.79808
0.852136
0.704546
0.811838
0.780668
0.530894
0.515752
0.812882
0.803543
0.805441
0.560344
0.796983
0.803741
0.659096
0.813708
0.790603
0.806548
0.814794
0.533032
0.724545
0.718761
0.812434
0.832
0.629903
0.789823
0.717078
0.813581
0.827241
0.779424
0.773142
0.53511
0.811507
0.802407
0.723635
0.852006
0.805815
0.72268
0.73984
0.763864
0.810784
0.563386
0.796696
0.737953
0.800325
0.821839
0.720221
0.799175
0.811742
0.716497
0.813005
0.705949
0.81597
0.798205
0.759662
0.689842
0.808897
0.800001
0.813353
0.669548
0.805371
0.804847
0.811576
0.699434
0.81213
0.80838
0.831738
0.648907
0.815477
0.740743
0.811919
0.805713
0.842187
0.803683
0.818903
0.749023
0.81517
0.838776
0.832803
0.816435
0.845582
0.752306
0.84774
0.82599
0.803835
0.825734
0.805606
0.646589
0.778063
0.813912
0.746796
0.695142
0.798457
0.804075
0.679853
0.797438
0.537918
0.848446
0.696056
0.7062
0.813554
0.774464
0.806883
0.798931
0.806946
0.803888
0.812013
0.835623
0.729988
0.772134
0.588179
0.81
0.777017
0.810897
0.805114
0.569996
0.802906
0.80253
0.807483
0.798635
0.81672
0.808152
0.709858
0.823114
0.847907
0.684401
0.74361
0.812168
0.800928
0.712314
0.814275
0.754337
0.796784
0.802902
0.805362
0.837134
0.668695
0.723289
0.8008
0.701974
0.772641
0.832137
0.531954
0.691235
0.799582
0.804288
0.803364
0.741748
0.822368
0.806884
0.803662
0.808129
0.813291
0.696065
0.649167
0.809674
0.813793
0.799242
0.871462
0.802727
0.812354
0.799047
0.809951
0.811265
0.808366
0.653008
0.814743
0.816573
0.803438
0.801876
0.799382
0.617264
0.809705
0.810509
0.812417
0.862304
0.81442
0.801487
0.480593
0.836331
0.692574
0.826383
0.805772
0.813781
0.824013
0.809088
0.812066
0.730942
0.551318
0.491656
0.812328
0.808955
0.534053
0.795561
0.814485
0.833269
0.503997
0.809576
0.813427
0.802266
0.809082
0.530215
0.813113
0.808246
0.559909
0.812209
0.815256
0.538733
0.808765
0.812664
0.77583
0.80628
0.81117
0.809499
0.799
0.825868
0.533787
0.830173
0.815803
0.804068
0.74208
0.786188
0.811357
0.809389
0.802118
0.815937
0.800704
0.657073
0.806164
0.580967
0.811964
0.659834
0.746303
0.796999
0.718271
0.803543
0.579692
0.849728
0.812204
0.812335
0.79927
0.802709
0.803181
0.813641
0.814361
0.670086
0.717677
0.726216
0.814776
0.721354
0.574035
0.817395
0.783714
0.827871
0.811691
0.80938
0.732494
0.535856
0.798721
0.790041
0.496143
0.813846
0.813007
0.735587
0.805912
0.768508
0.607019
0.809953
0.814647
0.788641
0.609773
0.80231
0.782965
0.826343
0.812975
0.810386
0.811895
0.812835
0.715719
0.800077
0.815737
0.694705
0.480491
0.732931
0.798805
0.730781
0.813012
0.798126
0.805526
0.782569
0.867323
0.803555
0.801672
0.825772
0.859324
0.804616
0.815695
0.794338
0.815907
0.789159
0.744001
0.811912
0.804262
0.816228
0.803249
0.790817
0.842792
0.766094
0.812733
0.773377
0.803729
0.642531
0.509378
0.800987
0.802166
0.80953
0.798152
0.799682
0.811925
0.772908
0.804625
0.812007
0.782204
0.816914
0.777164
0.593329
0.805046
0.760901
0.776204
0.750462
0.763666
0.793921
0.788577
0.823034
0.787515
0.809422
0.803368
0.765129
0.81552
0.542247
0.729525
0.810548
0.814002
0.811413
0.802333
0.812841
0.810528
0.805753
0.821161
0.809687
0.782952
0.816611
0.801698
0.790483
0.795894
0.805168
0.586117
0.803624
0.792173
0.574477
0.813189
0.807236
0.806047
0.81076
0.702341
0.754885
0.821113
0.774896
0.811389
0.816331
0.722218
0.804482
0.824108
0.720058
0.799428
0.809522
0.778574
0.804729
0.836972
0.801907
0.817329
0.772531
0.805338
0.800307
0.813083
0.802119
0.797905
0.588693
0.815223
0.786731
0.806635
0.825626
0.691129
0.828554
0.819971
0.5053
0.806394
0.804453
0.801484
0.812272
0.824246
0.824062
0.80491
0.805916
0.814173
0.813373
0.803522
0.812573
0.804738
0.749258
0.708236
0.780911
0.81367
0.812095
0.775868
0.757792
0.813926
0.82494
0.810522
0.812225
0.691526
0.500739
0.747777
0.817538
0.806725
0.816248
0.844193
0.799886
0.714885
0.654229
0.799672
0.804702
0.694227
0.812674
0.671174
0.836815
0.729234
0.812859
0.895255
0.81561
0.800818
0.777742
0.811102
0.681491
0.81419
0.808227
0.791515
0.805616
0.779415
0.800662
0.810032
0.780471
0.803576
0.852066
0.777002
0.802133
0.492904
0.80318
0.693899
0.804098
0.794451
0.788577
0.783623
0.722224
0.802102
0.78819
0.844459
0.813291
0.812449
0.811787
0.895512
0.746423
0.802736
0.730842
0.803157
0.798376
0.804506
0.716764
0.800936
0.805501
0.639076
0.808668
0.748586
0.534123
0.846514
0.847335
0.750036
0.810762
0.794673
0.77203
0.731754
0.775996
0.785485
0.736231
0.803852
0.804425
0.719483
0.815317
0.804978
0.55683
0.812
0.821449
0.813252
0.803507
0.610696
0.715005
0.806274
0.859177
0.483756
0.724535
0.806465
0.815958
0.796452
0.71322
0.710706
0.809023
0.81324
0.815015
0.837082
0.745179
0.754392
0.875745
0.806869
0.809226
0.795171
0.637506
0.597553
0.585994
0.657012
0.586208
0.764209
0.80073
0.803388
0.812275
0.809133
0.811477
0.860161
0.715424
0.823872
0.813898
0.817095
0.816645
0.813827
0.812972
0.811583