# vtk DataFile Version 1.0
unstructured grid
ascii
DATASET UNSTRUCTURED_GRID
points 14760 float
-1 0 0
-1 1 0
2 0 0
2 1 0
0 0 0
1 0 0
-1 1 0.1
-1 0 0.1
0 0 0.1
1 0 0.1
2 0 0.1
2 1 0.1
-0.99 0 0
-0.98 0 0
-0.97 0 0
-0.96 0 0
-0.95 0 0
-0.94 0 0
-0.93 0 0
-0.92 0 0
-0.91 0 0
-0.9 0 0
-0.89 0 0
-0.88 0 0
-0.87 0 0
-0.86 0 0
-0.85 0 0
-0.84 0 0
-0.83 0 0
-0.82 0 0
-0.81 0 0
-0.8 0 0
-0.79 0 0
-0.78 0 0
-0.77 0 0
-0.76 0 0
-0.75 0 0
-0.74 0 0
-0.73 0 0
-0.72 0 0
-0.71 0 0
-0.7 0 0
-0.69 0 0
-0.68 0 0
-0.67 0 0
-0.66 0 0
-0.65 0 0
-0.64 0 0
-0.63 0 0
-0.62 0 0
-0.61 0 0
-0.6 0 0
-0.59 0 0
-0.58 0 0
-0.57 0 0
-0.56 0 0
-0.55 0 0
-0.54 0 0
-0.53 0 0
-0.52 0 0
-0.51 0 0
-0.5 0 0
-0.49 0 0
-0.48 0 0
-0.47 0 0
-0.46 0 0
-0.45 0 0
-0.44 0 0
-0.43 0 0
-0.42 0 0
-0.41 0 0
-0.4 0 0
-0.39 0 0
-0.38 0 0
-0.37 0 0
-0.36 0 0
-0.35 0 0
-0.34 0 0
-0.33 0 0
-0.32 0 0
-0.31 0 0
-0.3 0 0
-0.29 0 0
-0.28 0 0
-0.27 0 0
-0.26 0 0
-0.25 0 0
-0.24 0 0
-0.23 0 0
-0.22 0 0
-0.21 0 0
-0.2 0 0
-0.19 0 0
-0.18 0 0
-0.17 0 0
-0.16 0 0
-0.15 0 0
-0.14 0 0
-0.13 0 0
-0.12 0 0
-0.11 0 0
-0.1 0 0
-0.09 0 0
-0.08 0 0
-0.07 0 0
-0.06 0 0
-0.05 0 0
-0.04 0 0
-0.03 0 0
-0.02 0 0
-0.01 0 0
1.01 0 0
1.02 0 0
1.03 0 0
1.04 0 0
1.05 0 0
1.06 0 0
1.07 0 0
1.08 0 0
1.09 0 0
1.1 0 0
1.11 0 0
1.12 0 0
1.13 0 0
1.14 0 0
1.15 0 0
1.16 0 0
1.17 0 0
1.18 0 0
1.19 0 0
1.2 0 0
1.21 0 0
1.22 0 0
1.23 0 0
1.24 0 0
1.25 0 0
1.26 0 0
1.27 0 0
1.28 0 0
1.29 0 0
1.3 0 0
1.31 0 0
1.32 0 0
1.33 0 0
1.34 0 0
1.35 0 0
1.36 0 0
1.37 0 0
1.38 0 0
1.39 0 0
1.4 0 0
1.41 0 0
1.42 0 0
1.43 0 0
1.44 0 0
1.45 0 0
1.46 0 0
1.47 0 0
1.48 0 0
1.49 0 0
1.5 0 0
1.51 0 0
1.52 0 0
1.53 0 0
1.54 0 0
1.55 0 0
1.56 0 0
1.57 0 0
1.58 0 0
1.59 0 0
1.6 0 0
1.61 0 0
1.62 0 0
1.63 0 0
1.64 0 0
1.65 0 0
1.66 0 0
1.67 0 0
1.68 0 0
1.69 0 0
1.7 0 0
1.71 0 0
1.72 0 0
1.73 0 0
1.74 0 0
1.75 0 0
1.76 0 0
1.77 0 0
1.78 0 0
1.79 0 0
1.8 0 0
1.81 0 0
1.82 0 0
1.83 0 0
1.84 0 0
1.85 0 0
1.86 0 0
1.87 0 0
1.88 0 0
1.89 0 0
1.9 0 0
1.91 0 0
1.92 0 0
1.93 0 0
1.94 0 0
1.95 0 0
1.96 0 0
1.97 0 0
1.98 0 0
1.99 0 0
2 0.0100088 0
2 0.0204183 0
2 0.0312446 0
2 0.0425043 0
2 0.0542147 0
2 0.066394 0
2 0.079061 0
2 0.092235 0
2 0.105936 0
2 0.120186 0
2 0.135007 0
2 0.150421 0
2 0.166452 0
2 0.183124 0
2 0.200465 0
2 0.218499 0
2 0.237256 0
2 0.256763 0
2 0.277051 0
2 0.298152 0
2 0.320097 0
2 0.342921 0
2 0.366659 0
2 0.391347 0
2 0.417024 0
2 0.443728 0
2 0.471502 0
2 0.500387 0
2 0.530429 0
2 0.561674 0
2 0.594169 0
2 0.627966 0
2 0.663115 0
2 0.699672 0
2 0.737692 0
2 0.777235 0
2 0.818361 0
2 0.861133 0
2 0.905617 0
2 0.951882 0
1.95 1 0
1.9 1 0
1.85 1 0
1.8 1 0
1.75 1 0
1.7 1 0
1.65 1 0
1.6 1 0
1.55 1 0
1.5 1 0
1.45 1 0
1.4 1 0
1.35 1 0
1.3 1 0
1.25 1 0
1.2 1 0
1.15 1 0
1.1 1 0
1.05 1 0
1 1 0
0.95 1 0
0.9 1 0
0.85 1 0
0.8 1 0
0.75 1 0
0.7 1 0
0.65 1 0
0.6 1 0
0.55 1 0
0.5 1 0
0.45 1 0
0.4 1 0
0.35 1 0
0.3 1 0
0.25 1 0
0.2 1 0
0.15 1 0
0.1 1 0
0.05 1 0
3.69793e-12 1 0
-0.05 1 0
-0.1 1 0
-0.15 1 0
-0.2 1 0
-0.25 1 0
-0.3 1 0
-0.35 1 0
-0.4 1 0
-0.45 1 0
-0.5 1 0
-0.55 1 0
-0.6 1 0
-0.65 1 0
-0.7 1 0
-0.75 1 0
-0.8 1 0
-0.85 1 0
-0.9 1 0
-0.95 1 0
-1 0.951882 0
-1 0.905617 0
-1 0.861133 0
-1 0.818361 0
-1 0.777235 0
-1 0.737692 0
-1 0.699672 0
-1 0.663115 0
-1 0.627966 0
-1 0.594169 0
-1 0.561674 0
-1 0.530429 0
-1 0.500387 0
-1 0.471502 0
-1 0.443728 0
-1 0.417024 0
-1 0.391347 0
-1 0.366659 0
-1 0.342921 0
-1 0.320097 0
-1 0.298152 0
-1 0.277051 0
-1 0.256763 0
-1 0.237256 0
-1 0.218499 0
-1 0.200465 0
-1 0.183124 0
-1 0.166452 0
-1 0.150421 0
-1 0.135007 0
-1 0.120186 0
-1 0.105936 0
-1 0.092235 0
-1 0.079061 0
-1 0.066394 0
-1 0.0542147 0
-1 0.0425043 0
-1 0.0312446 0
-1 0.0204183 0
-1 0.0100088 0
0.00921362 0.00379763 0
0.0184561 0.00752451 0
0.0277268 0.0111804 0
0.0370253 0.0147652 0
0.0463511 0.0182786 0
0.0557034 0.0217203 0
0.0650819 0.0250903 0
0.074486 0.0283883 0
0.083915 0.0316141 0
0.0933685 0.0347675 0
0.102846 0.0378484 0
0.112347 0.0408565 0
0.12187 0.0437917 0
0.131416 0.0466538 0
0.140983 0.0494427 0
0.150572 0.0521581 0
0.160181 0.0547999 0
0.16981 0.0573681 0
0.179458 0.0598623 0
0.189125 0.0622825 0
0.198811 0.0646285 0
0.208514 0.0669001 0
0.218234 0.0690974 0
0.227971 0.07122 0
0.237724 0.073268 0
0.247493 0.0752411 0
0.257276 0.0771393 0
0.267073 0.0789625 0
0.276884 0.0807105 0
0.286708 0.0823832 0
0.296545 0.0839806 0
0.306394 0.0855025 0
0.316254 0.0869488 0
0.326125 0.0883196 0
0.336006 0.0896146 0
0.345896 0.0908339 0
0.355796 0.0919773 0
0.365704 0.0930447 0
0.375621 0.0940362 0
0.385544 0.0949517 0
0.395474 0.095791 0
0.40541 0.0965542 0
0.415352 0.0972412 0
0.425299 0.097852 0
0.43525 0.0983865 0
0.445205 0.0988447 0
0.455164 0.0992266 0
0.465125 0.0995321 0
0.475088 0.0997613 0
0.485052 0.0999141 0
0.495017 0.0999904 0
0.504983 0.0999904 0
0.514948 0.0999141 0
0.524912 0.0997613 0
0.534875 0.0995321 0
0.544836 0.0992266 0
0.554795 0.0988447 0
0.56475 0.0983865 0
0.574701 0.097852 0
0.584648 0.0972412 0
0.59459 0.0965542 0
0.604526 0.095791 0
0.614456 0.0949517 0
0.624379 0.0940362 0
0.634296 0.0930447 0
0.644204 0.0919773 0
0.654104 0.0908339 0
0.663994 0.0896146 0
0.673875 0.0883196 0
0.683746 0.0869488 0
0.693606 0.0855025 0
0.703455 0.0839806 0
0.713292 0.0823832 0
0.723116 0.0807105 0
0.732927 0.0789625 0
0.742724 0.0771393 0
0.752508 0.0752411 0
0.762276 0.073268 0
0.772029 0.07122 0
0.781766 0.0690974 0
0.791486 0.0669001 0
0.801189 0.0646285 0
0.810875 0.0622825 0
0.820542 0.0598623 0
0.83019 0.0573681 0
0.839819 0.0547999 0
0.849428 0.0521581 0
0.859017 0.0494427 0
0.868584 0.0466538 0
0.87813 0.0437917 0
0.887653 0.0408565 0
0.897154 0.0378484 0
0.906631 0.0347675 0
0.916085 0.0316141 0
0.925514 0.0283883 0
0.934918 0.0250903 0
0.944297 0.0217203 0
0.953649 0.0182786 0
0.962975 0.0147652 0
0.972273 0.0111804 0
0.981544 0.00752451 0
0.990786 0.00379763 0
-1 0.951882 0.1
-1 0.905617 0.1
-1 0.861133 0.1
-1 0.818361 0.1
-1 0.777235 0.1
-1 0.737692 0.1
-1 0.699672 0.1
-1 0.663115 0.1
-1 0.627966 0.1
-1 0.594169 0.1
-1 0.561674 0.1
-1 0.530429 0.1
-1 0.500387 0.1
-1 0.471502 0.1
-1 0.443728 0.1
-1 0.417024 0.1
-1 0.391347 0.1
-1 0.366659 0.1
-1 0.342921 0.1
-1 0.320097 0.1
-1 0.298152 0.1
-1 0.277051 0.1
-1 0.256763 0.1
-1 0.237256 0.1
-1 0.218499 0.1
-1 0.200465 0.1
-1 0.183124 0.1
-1 0.166452 0.1
-1 0.150421 0.1
-1 0.135007 0.1
-1 0.120186 0.1
-1 0.105936 0.1
-1 0.092235 0.1
-1 0.079061 0.1
-1 0.066394 0.1
-1 0.0542147 0.1
-1 0.0425043 0.1
-1 0.0312446 0.1
-1 0.0204183 0.1
-1 0.0100088 0.1
-0.99 0 0.1
-0.98 0 0.1
-0.97 0 0.1
-0.96 0 0.1
-0.95 0 0.1
-0.94 0 0.1
-0.93 0 0.1
-0.92 0 0.1
-0.91 0 0.1
-0.9 0 0.1
-0.89 0 0.1
-0.88 0 0.1
-0.87 0 0.1
-0.86 0 0.1
-0.85 0 0.1
-0.84 0 0.1
-0.83 0 0.1
-0.82 0 0.1
-0.81 0 0.1
-0.8 0 0.1
-0.79 0 0.1
-0.78 0 0.1
-0.77 0 0.1
-0.76 0 0.1
-0.75 0 0.1
-0.74 0 0.1
-0.73 0 0.1
-0.72 0 0.1
-0.71 0 0.1
-0.7 0 0.1
-0.69 0 0.1
-0.68 0 0.1
-0.67 0 0.1
-0.66 0 0.1
-0.65 0 0.1
-0.64 0 0.1
-0.63 0 0.1
-0.62 0 0.1
-0.61 0 0.1
-0.6 0 0.1
-0.59 0 0.1
-0.58 0 0.1
-0.57 0 0.1
-0.56 0 0.1
-0.55 0 0.1
-0.54 0 0.1
-0.53 0 0.1
-0.52 0 0.1
-0.51 0 0.1
-0.5 0 0.1
-0.49 0 0.1
-0.48 0 0.1
-0.47 0 0.1
-0.46 0 0.1
-0.45 0 0.1
-0.44 0 0.1
-0.43 0 0.1
-0.42 0 0.1
-0.41 0 0.1
-0.4 0 0.1
-0.39 0 0.1
-0.38 0 0.1
-0.37 0 0.1
-0.36 0 0.1
-0.35 0 0.1
-0.34 0 0.1
-0.33 0 0.1
-0.32 0 0.1
-0.31 0 0.1
-0.3 0 0.1
-0.29 0 0.1
-0.28 0 0.1
-0.27 0 0.1
-0.26 0 0.1
-0.25 0 0.1
-0.24 0 0.1
-0.23 0 0.1
-0.22 0 0.1
-0.21 0 0.1
-0.2 0 0.1
-0.19 0 0.1
-0.18 0 0.1
-0.17 0 0.1
-0.16 0 0.1
-0.15 0 0.1
-0.14 0 0.1
-0.13 0 0.1
-0.12 0 0.1
-0.11 0 0.1
-0.1 0 0.1
-0.09 0 0.1
-0.08 0 0.1
-0.07 0 0.1
-0.06 0 0.1
-0.05 0 0.1
-0.04 0 0.1
-0.03 0 0.1
-0.02 0 0.1
-0.01 0 0.1
0.00921362 0.00379763 0.1
0.0184561 0.00752451 0.1
0.0277268 0.0111804 0.1
0.0370253 0.0147652 0.1
0.0463511 0.0182786 0.1
0.0557034 0.0217203 0.1
0.0650819 0.0250903 0.1
0.074486 0.0283883 0.1
0.083915 0.0316141 0.1
0.0933685 0.0347675 0.1
0.102846 0.0378484 0.1
0.112347 0.0408565 0.1
0.12187 0.0437917 0.1
0.131416 0.0466538 0.1
0.140983 0.0494427 0.1
0.150572 0.0521581 0.1
0.160181 0.0547999 0.1
0.16981 0.0573681 0.1
0.179458 0.0598623 0.1
0.189125 0.0622825 0.1
0.198811 0.0646285 0.1
0.208514 0.0669001 0.1
0.218234 0.0690974 0.1
0.227971 0.07122 0.1
0.237724 0.073268 0.1
0.247493 0.0752411 0.1
0.257276 0.0771393 0.1
0.267073 0.0789625 0.1
0.276884 0.0807105 0.1
0.286708 0.0823832 0.1
0.296545 0.0839806 0.1
0.306394 0.0855025 0.1
0.316254 0.0869488 0.1
0.326125 0.0883196 0.1
0.336006 0.0896146 0.1
0.345896 0.0908339 0.1
0.355796 0.0919773 0.1
0.365704 0.0930447 0.1
0.375621 0.0940362 0.1
0.385544 0.0949517 0.1
0.395474 0.095791 0.1
0.40541 0.0965542 0.1
0.415352 0.0972412 0.1
0.425299 0.097852 0.1
0.43525 0.0983865 0.1
0.445205 0.0988447 0.1
0.455164 0.0992266 0.1
0.465125 0.0995321 0.1
0.475088 0.0997613 0.1
0.485052 0.0999141 0.1
0.495017 0.0999904 0.1
0.504983 0.0999904 0.1
0.514948 0.0999141 0.1
0.524912 0.0997613 0.1
0.534875 0.0995321 0.1
0.544836 0.0992266 0.1
0.554795 0.0988447 0.1
0.56475 0.0983865 0.1
0.574701 0.097852 0.1
0.584648 0.0972412 0.1
0.59459 0.0965542 0.1
0.604526 0.095791 0.1
0.614456 0.0949517 0.1
0.624379 0.0940362 0.1
0.634296 0.0930447 0.1
0.644204 0.0919773 0.1
0.654104 0.0908339 0.1
0.663994 0.0896146 0.1
0.673875 0.0883196 0.1
0.683746 0.0869488 0.1
0.693606 0.0855025 0.1
0.703455 0.0839806 0.1
0.713292 0.0823832 0.1
0.723116 0.0807105 0.1
0.732927 0.0789625 0.1
0.742724 0.0771393 0.1
0.752508 0.0752411 0.1
0.762276 0.073268 0.1
0.772029 0.07122 0.1
0.781766 0.0690974 0.1
0.791486 0.0669001 0.1
0.801189 0.0646285 0.1
0.810875 0.0622825 0.1
0.820542 0.0598623 0.1
0.83019 0.0573681 0.1
0.839819 0.0547999 0.1
0.849428 0.0521581 0.1
0.859017 0.0494427 0.1
0.868584 0.0466538 0.1
0.87813 0.0437917 0.1
0.887653 0.0408565 0.1
0.897154 0.0378484 0.1
0.906631 0.0347675 0.1
0.916085 0.0316141 0.1
0.925514 0.0283883 0.1
0.934918 0.0250903 0.1
0.944297 0.0217203 0.1
0.953649 0.0182786 0.1
0.962975 0.0147652 0.1
0.972273 0.0111804 0.1
0.981544 0.00752451 0.1
0.990786 0.00379763 0.1
1.01 0 0.1
1.02 0 0.1
1.03 0 0.1
[...]
CELL_DATA 14313
SCALARS rho float
LOOKUP_TABLE default
0.818337
0.828161
0.813789
0.714266
0.811625
0.920906
0.907443
0.909568
0.820527
0.824327
0.920704
0.806407
0.803344
0.736874
0.90204
0.866293
0.821261
0.815825
0.893623
0.813302
0.919415
0.816881
0.908504
0.811639
0.904769
0.824049
0.796304
0.753327
0.827882
0.862439
0.914961
0.800517
0.815737
0.904866
0.814965
0.892651
0.769683
0.821304
0.905197
0.809144
0.80235
0.918324
0.715747
0.778907
0.877426
0.849871
0.9
0.796577
0.837605
0.84212
0.767906
0.749784
0.748727
0.892766
0.869
0.796357
0.87746
0.817526
0.820222
0.903869
0.919671
0.877318
0.800305
0.851859
0.918335
0.896304
0.843181
0.798588
0.866053
0.902062
0.805864
0.86634
0.728043
0.862146
0.788302
0.86646
0.82978
0.798967
0.771311
0.915427
0.726463
0.862764
0.848072
0.808781
0.86393
0.87465
0.92059
0.814322
0.844589
0.815273
0.795352
0.737724
0.820053
0.807925
0.78837
0.810558
0.888272
0.908828
0.811301
0.729338
0.849714
0.904683
0.908007
0.839264
0.800081
0.8211
0.811115
0.772665
0.86346
0.893131
0.820598
0.868223
0.885699
0.874744
0.812152
0.864922
0.869075
0.861931
0.794727
0.808236
0.904636
0.910228
0.863747
0.786928
0.838827
0.802901
0.827762
0.814424
0.889068
0.838467
0.900183
0.914393
0.864251
0.909901
0.870939
0.796234
0.814684
0.802651
0.877675
0.880078
0.90745
0.870226
0.8043
0.808152
0.806807
0.865888
0.816981
0.789176
0.82683
0.879829
0.807819
0.80839
0.908511
0.781152
0.862062
0.810526
0.785578
0.873219
0.907468
0.822408
0.87706
0.82078
0.7648
0.788062
0.871131
0.829609
0.769796
0.898101
0.866478
0.825843
0.773246
0.821511
0.781586
0.826541
0.878265
0.830447
0.882958
0.840377
0.873445
0.78398
0.915918
0.900097
0.813798
0.791769
0.801875
0.817309
0.902428
0.807296
0.718848
0.8218
0.78828
0.784439
0.792862
0.77911
0.90378
0.879633
0.820043
0.808179
0.879034
0.881314
0.806586
0.811095
0.866406
0.88827
0.863433
0.808273
0.821336
0.821004
0.908004
0.850592
0.818815
0.850659
0.827482
0.773731
0.888524
0.823464
0.90444
0.821684
0.862247
0.815292
0.809141
0.824731
0.878805
0.86931
0.846475
0.810993
0.878552
0.804506
0.909533
0.804733
0.76397
0.823765
0.772014
0.866996
0.804564
0.78708
0.892238
0.88806
0.879137
0.830448
0.804249
0.752263
0.800328
0.752328
0.885311
0.785892
0.814972
0.819189
0.861256
0.825669
0.726
0.812199
0.776603
0.866412
0.812628
0.775191
0.851783
0.864629
0.888684
0.734307
0.821196
0.812458
0.84886
0.851552
0.822627
0.813909
0.820705
0.820989
0.735832
0.889106
0.889943
0.794155
0.810896
0.92144
0.797984
0.869601
0.826175
0.782575
0.811446
0.816736
0.723792
0.714852
0.787978
0.883168
0.874099
0.801565
0.921957
0.888496
0.795844
0.818205
0.808968
0.881635
0.867383
0.831189
0.818445
0.824237
0.761666
0.839876
0.776641
0.807953
0.799699
0.79637
0.86243
0.820944
0.803259
0.770399
0.768262
0.836978
0.820632
0.825119
0.812973
0.812725
0.749501
0.884629
0.827209
0.824447
0.920991
0.890842
0.815178
0.823935
0.89174
0.75078
0.893586
0.912102
0.889364
0.89798
0.809873
0.861334
0.804641
0.89144
0.88899
0.78141
0.786807
0.805057
0.804918
0.732062
0.907194
0.82426
0.821644
0.893056
0.815338
0.806687
0.776165
0.78105
0.889744
0.799424
0.788259
0.821988
0.86629
0.889879
0.815676
0.818678
0.90929
0.811922
0.880593
0.825366
0.880841
0.822182
0.904117
0.82682
0.894118
0.830249
0.917755
0.725709
0.803873
0.807138
0.824423
0.837116
0.810796
0.810582
0.910511
0.907987
0.878269
0.79292
0.825064
0.84475
0.802283
0.786203
0.820911
0.86403
0.867567
0.869455
0.827753
0.818843
0.751515
0.819335
0.744432
0.811954
0.810534
0.858333
0.886582
0.875627
0.71556
0.746571
0.861893
0.874223
0.886891
0.767488
0.817196
0.779297
0.860082
0.825653
0.776275
0.753921
0.801545
0.89139
0.731844
0.875219
0.869142
0.847947
0.820784
0.72656
0.794815
0.818777
0.879289
0.819625
0.811633
0.866639
0.910071
0.781032
0.772599
0.804751
0.818711
0.916574
0.918365
0.815355
0.919648
0.793992
0.803912
0.80526
0.808822
0.808777
0.879026
0.815009
0.901497
0.917787
0.803986
0.816008
0.811186
0.834885
0.914064
0.863436
0.854525
0.762301
0.800252
0.85511
0.820158
0.874717
0.819457
0.89311
0.820815
0.859552
0.862559
0.74632
0.869147
0.796973
0.873828
0.847434
0.777241
0.843292
0.804815
0.867988
0.716317
0.815846
0.770504
0.919028
0.8211
0.735004
0.809556
0.81481
0.805891
0.810833
0.858093
0.813202
0.918408
0.745488
0.818239
0.818092
0.809434
0.871883
0.809017
0.918681
0.907642
0.809654
0.882635
0.803058
0.806233
0.909571
0.741117
0.81164
0.79307
0.720185
0.869389
0.731193
0.811415
0.876264
0.869807
0.768496
0.794905
0.914001
0.818089
0.811717
0.835231
0.810898
0.899958
0.908625
0.808593
0.898744
0.825652
0.730744
0.903254
0.896341
0.816283
0.918173
0.745874
0.877522
0.869744
0.775139
0.801071
0.898309
0.80703
0.832208
0.848673
0.811658
0.774523
0.726293
0.889476
0.72324
0.810031
0.804858
0.793572
0.921215
0.785547
0.913646
0.812843
0.805126
0.71918
0.887107
0.866866
0.867087
0.840443
0.808432
0.805848
0.904744
0.784354
0.86555
0.833097
0.77537
0.807991
0.7502
0.796613
0.762888
0.863642
0.833378
0.814524
0.760352
0.810706
0.893968
0.868678
0.856266
0.839621
0.771169
0.715735
0.819562
0.879619
0.813032
0.826014
0.837313
0.793748
0.842425
0.878157
0.811021
0.876567
0.805847
0.775252
0.811739
0.823989
0.736116
0.767389
0.811964
0.91892
0.814472
0.72289
0.902618
0.730681
0.908379
0.792047
0.854443
0.877907
0.78309
0.860325
0.827557
0.81483
0.83544
0.834134
0.84739
0.814045
0.882917
0.73293
0.906808
0.869978
0.843799
0.865766
0.812408
0.870701
0.803889
0.853826
0.813718
0.818366
0.771488
0.761019
0.8664
0.896399
0.853389
0.785338
0.812898
0.790512
0.804379
0.814337
0.828151
0.865156
0.899693
0.871469
0.864817
0.867239
0.814868
0.779257
0.854438
0.783885
0.841913
0.858876
0.807203
0.823954
0.788717
0.814505
0.819313
0.865141
0.878052
0.804255
0.820652
0.866499
0.85616
0.807574
0.869801
0.807756
0.871978
0.769676
0.805573
0.807395
0.813576
0.86684
0.732597
0.816229
0.816003
0.763047
0.889436
0.8661
0.892869
0.804806
0.818694
0.810968
0.879264
0.81377
0.759086
0.714303
0.896934
0.865754
0.810165
0.816579
0.815543
0.81233
0.90136
0.811893
0.894561
0.726983
0.892558
0.819207
0.909577
0.860259
0.893618
0.832299
0.918391
0.807256
0.902793
0.763023
0.812297
0.844139
0.902397
0.799408
0.889814
0.745602
0.818094
0.748696
0.769824
0.772001
0.819447
0.880955
0.819698
0.71997
0.770319
0.808039
0.866563
0.799105
0.829808
0.814772
0.821125
0.844894
0.749487
0.786639
0.731711
0.808842
0.921617
0.819199
0.84699
0.757577
0.747443
0.844117
0.813529
0.8905
0.783794
0.895677
0.716764
0.871105
0.749267
0.892537
0.872013
0.805139
0.810313
0.869406
0.826184
0.812306
0.855333
0.744906
0.812601
0.764229
0.810234
0.812309
0.894319
0.81874
0.789217
0.874996
0.782415
0.806441
0.76005
0.819973
0.776737
0.758066
0.868771
0.908017
0.814751
0.789646
0.823745
0.756534
0.88574
0.806431
0.764621
0.868955
0.878378
0.762619
0.771148
0.869126
0.808186
0.789208
0.831887
0.866452
0.866382
0.919865
0.715405
0.801001
0.841276
0.87175
0.740679
0.746567
0.825649
0.906993
0.780567
0.796935
0.917633
0.853078
0.78823
0.904523
0.896033
0.806807
0.781642
0.810448
0.844143
0.87463
0.731694
0.816287
0.872133
0.721702
0.871693
0.841401
0.920463
0.760205
0.918561
0.903341
0.917074
0.805145
0.876565
0.810477
0.816408
0.814291
0.805219
0.891452
0.734308
0.868057
0.822697
0.777904
0.747979
0.799723
0.812572
0.915955
0.782874
0.750054
0.912233
0.822901
0.917198
0.870152
0.895109
0.869546
0.799293
0.749682
0.919933
0.833594
0.920513
0.748147
0.845619
0.788919
0.894405
0.886816
0.920955
0.878777
0.809774
0.899721
0.820328
0.784769
0.872744
0.904542
0.802187
0.80214
0.783962
0.748353
0.78052
0.821069
0.873383
0.91356
0.823666
0.887103
0.805337
0.833976
0.818781
0.747142
0.782146
0.91626
0.808422
0.814643
0.824754
0.749035
0.894654
0.811272
0.85981
0.893232
0.75945
0.805386
0.811964
0.854534
0.777446
0.734247
0.725277
0.741437
0.871171
0.812526
0.735661
0.750091
0.874756
0.912529
0.880807
0.814313
0.847456
0.906772
0.791072
0.902861
0.90141
0.916302
0.90404
0.920587
0.804654
0.885743
0.763882
0.880458
0.808306
0.868498
0.782816
0.879173
0.73159
0.845798
0.81046
0.86122
0.921454
0.819093
0.778
0.829341
0.890802
0.832414
0.919255
0.895015
0.762819
0.860547
0.919268
0.905148
0.851894
0.871639
0.717027
0.803164
0.81736
0.824217
0.82388
0.810611
0.803761
0.886545
0.79049
0.819894
0.883809
0.86635
0.866971
0.747949
0.834423
0.786649
0.891514
0.789718
0.873011
0.814904
0.816223
0.909996
0.822723
0.848038
0.819768
0.827238
0.796904
0.770594
0.792494
0.777776
0.883008
0.836217
0.836002
0.792315
0.880067
0.782366
0.746655
0.91815
0.804132
0.920605
0.807621
0.758984
0.811079
0.795367
0.773369
0.917472
0.777475
0.821973
0.872954
0.870917
0.814577
0.814316
0.794692
0.90607
0.815291
0.860921
0.877775
0.806996
0.715748
0.810555
0.745864
0.79158
0.752346
0.806272
0.729613
0.88742
0.843935
0.815681
0.918896
0.872696
0.819873
0.804383
0.77634
0.82967
0.90891
0.81228
0.866245
0.80284
0.808003
0.850733
0.75825
0.881986
0.81548
0.841305
0.885164
0.812728
0.813364
0.888991
0.889633
0.879065
0.807249
0.823512
0.913724
0.826209
0.816802
0.896702
0.814024
0.722698
0.904144
0.877962
0.812417
0.762407
0.818317
0.855701
0.805705
0.779607
0.857984
0.921574
0.871208
0.918138
0.840818
0.816563
0.91469
0.823251
0.874294
0.871898
0.756924
0.914022
0.789441
0.825428
0.783201
0.815614
0.78665
0.815693
0.738142
0.905963
0.768997
0.724392
0.846546
0.756058
0.79084
0.878041
0.910067
0.815853
0.912499
0.783197
0.745509
0.864805
0.732461
0.881235
0.811793
0.80499
0.818374
0.897117
0.749567
0.814439
0.79353
0.91779
0.890251
0.83269
0.81577
0.772383
0.803648
0.763189
0.812159
0.82
0.919999
0.875884
0.822131
0.919879
0.918069
0.760844
0.790724
0.735226
0.779035
0.893172
0.822276
0.866649
0.820944
0.888586
0.743927
0.858777
0.886866
0.867897
0.732579
0.869615
0.912838
0.86606
0.860444
0.845682
0.83218
0.874447
0.71956
0.815185
0.869627
0.754955
0.87708
0.818438
0.914584
0.820047
0.901172
0.894298
0.812285
0.759507
0.808175
0.803958
0.733783
0.891782
0.870526
0.884044
0.769097
0.828752
0.897061
0.875445
0.835805
0.733121
0.722411
0.814542
0.861532
0.816942
0.816519
0.890445
0.810278
0.820847
0.906174
0.803987
0.812327
0.813989
0.906227
0.816115
0.814541
0.81315
0.831506
0.86534
0.868494
0.901826
0.879128
0.887865
0.90096
0.917634
0.904533
0.875991
0.848806
0.818965
0.903593
0.7551
0.865623
0.745013
0.872635
0.809519
0.848565
0.815071
0.79762
0.824378
0.774702
0.828176
0.815782
0.824551
0.896621
0.795073
0.891881
0.728243
0.81557
0.900681
0.895069
0.805782
0.912301
0.732108
0.798126
0.717133
0.863249
0.804237
0.814322
0.817054
0.890828
0.907654
0.906255
0.771156
0.883965
0.916449
0.823554
0.809435
0.812199
0.777694
0.812306
0.822708
0.810893
0.777315
0.737444
0.717965
0.860646
0.816941
0.816532
0.798314
0.824682
0.807853
0.810261
0.878293
0.797206
0.784474
0.883224
0.821902
0.823672
0.851041
0.813135
0.919282
0.819215
0.720897
0.808141
0.917083
0.814021
0.870293
0.89079
0.868105
0.754188
0.754064
0.734866
0.845552
0.876684
0.797607
0.816463
0.765153
0.825522
0.82315
0.920172
0.815805
0.82249
0.724698
0.773336
0.850334
0.897845
0.805158
0.860387
0.852044
0.813373
0.811324
0.763744
0.857411
0.920274
0.814299
0.909935
0.804102
0.748075
0.825731
0.909062
0.725268
0.776593
0.841944
0.831319
0.77935
0.812632
0.804609
0.914646
0.78498
0.767412
0.916748
0.804577
0.808205
0.791247
0.727488
0.863857
0.763363
0.785599
0.766737
0.810359
0.804519
0.918366
0.766065
0.792143
0.812709
0.887703
0.727821
0.814359
0.82565
0.860738
0.72885
0.815276
0.799317
0.778141
0.777646
0.807687
0.876143
0.900358
0.880166
0.777262
0.79475
0.748772
0.866758
0.853816
0.872368
0.802315
0.867028
0.779095
0.897361
0.79157
0.804057
0.80573
0.919922
0.811903
0.91637
0.801192
0.787781
0.875107
0.804053
0.864778
0.783654
0.80358
0.81527
0.785378
0.816016
0.887894
0.723513
0.80892
0.814915
0.804135
0.872848
0.790666
0.809649
0.786563
0.914862
0.818786
0.787806
0.914602
0.87702
0.867331
0.814077
0.821727
0.805369
0.818327
0.763548
0.907755
0.816463
0.770634
0.81973
0.796976
0.855137
0.845119
0.870607
0.866371
0.841297
0.779624
0.894347
0.826335
0.796805
0.735229
0.853108
0.867853
0.912373
0.817301
0.863253
0.853315
0.798711
0.839536
0.797772
0.803034
0.792496
0.912143
0.785924
0.74563
0.860687
0.765038
0.804462
0.852508
0.907249
0.767086
0.818867
0.801677
0.812599
0.805592
0.822593
0.812571
0.816128
0.811359
0.810025
0.79753
0.91285
0.818145
0.88285
0.813579
0.784444
0.819841
0.823686
0.907445
0.814747
0.719002
0.828496
0.880585
0.905262
0.778557
0.812413
0.804283
0.815033
0.884026
0.776768
0.883446
0.847395
0.835722
0.80428
0.913072
0.821168
0.820129
0.792357
0.822181
0.887973
0.81866
0.848716
0.858465
0.816729
0.869689
0.813663
0.822354
0.881018
0.912279
0.824821
0.822044
0.776417
0.892521
0.817314
0.817771
0.783048
0.798775
0.750621
0.804909
0.718417
0.806127
0.890192
0.794629
0.863045
0.739206
0.893081
0.794226
0.916681
0.714325
0.818296
0.831232
0.892971
0.876842
0.780878
0.866465
0.732579
0.850064
0.754236
0.814418
0.73293
0.76005
0.901474
0.917668
0.796837
0.818085
0.826764
0.733039
0.848874
0.791232
0.866588
0.918099
0.824947
0.897064
0.810938
0.832537
0.823161
0.812224
0.729932
0.806167
0.865091
0.808948
0.860515
0.792001
0.8201
0.912925
0.913655
0.804541
0.79175
0.886999
0.88439
0.730504
0.812596
0.745305
0.884842
0.738667
0.917476
0.812566
0.770378
0.768308
0.798652
0.783867
0.839258
0.823674
0.827391
0.811941
0.776065
0.809545
0.823073
0.804844
0.848223
0.848948
0.766956
0.769131
0.811861
0.793495
0.714121
0.912529
0.770329
0.805136
0.745477
0.854404
0.905973
0.869268
0.837417
0.832221
0.822523
0.748461
0.82705
0.822394
0.815019
0.885675
0.917523
0.897042
0.819058
0.865565
0.882409
0.748985
0.81409
0.803135
0.90152
0.769205
0.809454
0.829147
0.804056
0.768771
0.839119
0.777042
0.791136
0.823115
0.903234
0.759647
0.861337
0.791046
0.815423
0.80291
0.917239
0.864991
0.810161
0.73755
0.887589
0.739894
0.730788
0.795596
0.805919
0.811589
0.912761
0.805556
0.856283
0.92159
0.724832
0.801495
0.829174
0.914591
0.734114
0.781899
0.761609
0.881604
0.90252
0.768291
0.81151
0.905387
0.811485
0.834169
0.750406
0.866458
0.772932
0.904014
0.906588
0.77182
0.897004
0.759479
0.824261
0.757479
0.824007
0.828077
0.752619
0.78736
0.784151
0.855394
0.907696
0.875787
0.872173
0.804903
0.814299
0.817514
0.853078
0.811995
0.776447
0.811589
0.731549
0.81736
0.81783
0.815431
0.912779
0.869649
0.804143
0.77789
0.741142
0.765454
0.83505
0.825723
0.778471
0.752736
0.80213
0.919361
0.808621
0.806334
0.81724
0.843043
0.802165
0.720035
0.753295
0.804809
0.913101
0.871375
0.825492
0.918533
0.862856
0.810306
0.810542
0.890332
0.908684
0.865608
0.785829
0.820041
0.778062
0.87179
0.821328
0.896552
0.751906
0.804391
0.714015
0.724031
0.753891
0.880645
0.80726
0.878727
0.805914
0.806948
0.724668
0.826886
0.81852
0.793223
0.882478
0.818042
0.882759
0.861051
0.736755
0.868559
0.805316
0.912773
0.823554
0.900908
0.909189
0.803512
0.804616
0.808494
0.808119
0.803597
0.888634
0.839662
0.877173
0.788479
0.814539
0.754204
0.897625
0.91716
0.735343
0.791367
0.7915
0.727728
0.828029
0.810575
0.876993
0.81106
0.879714
0.804123
0.803778
0.805151
0.822459
0.795308
0.721045
0.747599
0.76645
0.796983
0.869397
0.808549
0.824995
0.80118
0.856999
0.901473
0.810154
0.865882
0.778956
0.915736
0.796562
0.723793
0.741369
0.900916
0.808773
0.814834
0.723337
0.801057
0.809634
0.753398
0.892472
0.835197
0.822168
0.883728
0.743563
0.763083
0.786085
0.902117
0.83312
0.754488
0.800662
0.755905
0.893122
0.859267
0.796614
0.815304
0.734226
0.897397
0.803958
0.786026
0.843797
0.816371
0.782115
0.795249
0.789904
0.917253
0.718192
0.806678
0.775583
0.804542
0.828539
0.758654
0.813136
0.868288
0.781991
0.817992
0.778657
0.883639
0.808656
0.784934
0.776137
0.864895
0.806885
0.896881
0.760114
0.815644
0.87271
0.916789
0.775491
0.912298
0.822471
0.853611
0.746335
0.884344
0.79556
0.91342
0.820739
0.866244
0.809697
0.876477
0.78338
0.885671
0.866402
0.830941
0.850824
0.83996
0.780627
0.842721
0.831148
0.818246
0.844566
0.81805
0.748869
0.81777
0.89119
0.784189
0.77823
0.812952
0.818983
0.760314
0.809278
0.716794
0.840557
0.77707
0.779052
0.893099
0.79324
0.838959
0.807978
0.83734
0.811573
0.902217
0.834941
0.78206
0.813365
0.736262
0.918078
0.796264
0.835261
0.815052
0.722028
0.804735
0.804043
0.890533
0.804674
0.880132
0.819014
0.747384
0.869148
0.842635
0.768461
0.797768
0.908566
0.81811
0.783753
0.82491
0.787594
0.806866
0.807037
0.81404
0.865663
0.763696
0.762134
0.804472
0.778855
0.794029
0.830248
0.715656
0.775273
0.802891
0.812433
0.805296
0.776723
0.868812
0.877165
0.808622
0.816843
0.897362
0.771387
0.764999
0.818953
0.893783
0.804955
0.856496
0.813878
0.908471
0.802654
0.877502
0.817505
0.820297
0.764554
0.820986
0.88162
0.810194
0.819049
0.808411
0.739491
0.878214
0.90258
0.907036
0.851477
0.885136
0.810503
0.727829
0.832057
0.773437
0.867397
0.820439
0.82353
0.830197
0.91665
0.906027
0.790516
0.720323
0.732049
0.904825
0.894644
0.72962
0.806595
0.885178
0.829453
0.725561
0.821525
0.890488
0.813834
0.821216
0.737126
0.89638
0.81677
0.722178
0.908677
0.885356
0.726593
0.822757
0.897471
0.794951
0.820469
0.835625
0.919009
0.804085
0.865371
0.71829
0.831943
0.820363
0.811944
0.797339
0.820978
0.912298
0.82162
0.818612
0.866259
0.804897
0.768866
0.880782
0.739344
0.920606
0.757846
0.784528
0.801008
0.784313
0.806479
0.723295
0.86554
0.911488
0.896861
0.811624
0.808546
0.804173
0.817097
0.890418
0.760562
0.77749
0.779028
0.888061
0.780247
0.746997
0.851786
0.820083
0.859667
0.886864
0.814701
0.791332
0.735402
0.807996
0.830258
0.730843
0.891937
0.899348
0.792257
0.818284
0.811026
0.751414
0.876092
0.823869
0.825191
0.737675
0.810919
0.798977
0.868546
0.899889
0.919326
0.819173
0.900895
0.755537
0.829688
0.884434
0.77046
0.724701
0.791607
0.805129
0.779482
0.899402
0.81028
0.814346
0.7987
0.87261
0.804852
0.80953
0.861566
0.870862
0.813763
0.865579
0.841786
0.882206
0.80237
0.781919
0.816197
0.812534
0.876221
0.807903
0.832576
0.866394
0.791081
0.902058
0.813688
0.816308
0.746719
0.720457
0.809499
0.810179
0.914535
0.805209
0.829405
0.920913
0.794351
0.818678
0.918099
0.818867
0.856696
0.795379
0.738273
0.8143
0.786931
0.793956
0.785651
0.788674
0.804744
0.798397
0.82556
0.801816
0.81864
0.804758
0.809652
0.885233
0.722267
0.790985
0.895666
0.882793
0.907146
0.851069
0.887938
0.836548
0.81489
0.871849
0.819739
0.798208
0.876496
0.814003
0.831398
0.806186
0.814662
0.730208
0.809974
0.804612
0.736677
0.838069
0.816356
0.816712
0.819394
0.779164
0.781684
0.872794
0.794447
0.817085
0.880426
0.7601
0.813566
0.867119
0.786335
0.809019
0.893476
0.796906
0.848511
0.835165
0.810895
0.879473
0.81337
0.815243
0.806984
0.893726
0.816481
0.804457
0.737453
0.886149
0.830448
0.817606
0.868771
0.77649
0.867259
0.844558
0.726758
0.820571
0.813199
0.817864
0.895825
0.853891
0.867777
0.814505
0.862317
0.891202
0.822702
0.80824
0.891891
0.818832
0.783576
0.781885
0.819122
0.894294
0.879795
0.815148
0.804979
0.819315
0.828231
0.821533
0.908087
0.774408
0.723312
0.777863
0.879079
0.821131
0.881083
0.858974
0.808534
0.784726
0.765384
0.814335
0.819381
0.777734
0.903695
0.772217
0.860759
0.790001
0.88387
0.88491
0.821434
0.811482
0.817472
0.822068
0.774301
0.823313
0.878512
0.803643
0.862068
0.79671
0.810992
0.81957
0.824763
0.807733
0.866221
0.796152
0.805577
0.733339
0.815053
0.770097
0.812056
0.800658
0.802256
0.819891
0.784895
0.857202
0.824825
0.866977
0.897425
0.906103
0.911165
0.884654
0.784596
0.811321
0.782295
0.805414
0.80891
0.816747
0.785779
0.81195
0.813294
0.76359
0.866138
0.800207
0.74428
0.867133
0.867109
0.801324
0.815431
0.805813
0.813924
0.791463
0.792863
0.801376
0.792965
0.811147
0.817337
0.786333
0.886031
0.814977
0.736837
0.917689
0.828084
0.862878
0.810503
0.738885
0.784499
0.815201
0.870448
0.731619
0.788954
0.833003
0.823574
0.831664
0.757671
0.782308
0.818585
0.89784
0.886362
0.865784
0.777968
0.787554
0.875437
0.819734
0.916508
0.806219
0.764528
0.755854
0.734678
0.764458
0.751044
0.810172
0.854782
0.81555
0.896809
0.836718
0.819752
0.870495
0.781954
0.867635
0.893092
0.878
0.881258
0.893461
0.900269
0.897466
0.92122
0.766733
0.837816
0.773645