# vtk DataFile Version 1.0
unstructured grid
ascii
DATASET UNSTRUCTURED_GRID
points 14760 float
-1 0 0
-1 1 0
2 0 0
2 1 0
0 0 0
1 0 0
-1 1 0.1
-1 0 0.1
0 0 0.1
1 0 0.1
2 0 0.1
2 1 0.1
-0.99 0 0
-0.98 0 0
-0.97 0 0
-0.96 0 0
-0.95 0 0
-0.94 0 0
-0.93 0 0
-0.92 0 0
-0.91 0 0
-0.9 0 0
-0.89 0 0
-0.88 0 0
-0.87 0 0
-0.86 0 0
-0.85 0 0
-0.84 0 0
-0.83 0 0
-0.82 0 0
-0.81 0 0
-0.8 0 0
-0.79 0 0
-0.78 0 0
-0.77 0 0
-0.76 0 0
-0.75 0 0
-0.74 0 0
-0.73 0 0
-0.72 0 0
-0.71 0 0
-0.7 0 0
-0.69 0 0
-0.68 0 0
-0.67 0 0
-0.66 0 0
-0.65 0 0
-0.64 0 0
-0.63 0 0
-0.62 0 0
-0.61 0 0
-0.6 0 0
-0.59 0 0
-0.58 0 0
-0.57 0 0
-0.56 0 0
-0.55 0 0
-0.54 0 0
-0.53 0 0
-0.52 0 0
-0.51 0 0
-0.5 0 0
-0.49 0 0
-0.48 0 0
-0.47 0 0
-0.46 0 0
-0.45 0 0
-0.44 0 0
-0.43 0 0
-0.42 0 0
-0.41 0 0
-0.4 0 0
-0.39 0 0
-0.38 0 0
-0.37 0 0
-0.36 0 0
-0.35 0 0
-0.34 0 0
-0.33 0 0
-0.32 0 0
-0.31 0 0
-0.3 0 0
-0.29 0 0
-0.28 0 0
-0.27 0 0
-0.26 0 0
-0.25 0 0
-0.24 0 0
-0.23 0 0
-0.22 0 0
-0.21 0 0
-0.2 0 0
-0.19 0 0
-0.18 0 0
-0.17 0 0
-0.16 0 0
-0.15 0 0
-0.14 0 0
-0.13 0 0
-0.12 0 0
-0.11 0 0
-0.1 0 0
-0.09 0 0
-0.08 0 0
-0.07 0 0
-0.06 0 0
-0.05 0 0
-0.04 0 0
-0.03 0 0
-0.02 0 0
-0.01 0 0
1.01 0 0
1.02 0 0
1.03 0 0
1.04 0 0
1.05 0 0
1.06 0 0
1.07 0 0
1.08 0 0
1.09 0 0
1.1 0 0
1.11 0 0
1.12 0 0
1.13 0 0
1.14 0 0
1.15 0 0
1.16 0 0
1.17 0 0
1.18 0 0
1.19 0 0
1.2 0 0
1.21 0 0
1.22 0 0
1.23 0 0
1.24 0 0
1.25 0 0
1.26 0 0
1.27 0 0
1.28 0 0
1.29 0 0
1.3 0 0
1.31 0 0
1.32 0 0
1.33 0 0
1.34 0 0
1.35 0 0
1.36 0 0
1.37 0 0
1.38 0 0
1.39 0 0
1.4 0 0
1.41 0 0
1.42 0 0
1.43 0 0
1.44 0 0
1.45 0 0
1.46 0 0
1.47 0 0
1.48 0 0
1.49 0 0
1.5 0 0
1.51 0 0
1.52 0 0
1.53 0 0
1.54 0 0
1.55 0 0
1.56 0 0
1.57 0 0
1.58 0 0
1.59 0 0
1.6 0 0
1.61 0 0
1.62 0 0
1.63 0 0
1.64 0 0
1.65 0 0
1.66 0 0
1.67 0 0
1.68 0 0
1.69 0 0
1.7 0 0
1.71 0 0
1.72 0 0
1.73 0 0
1.74 0 0
1.75 0 0
1.76 0 0
1.77 0 0
1.78 0 0
1.79 0 0
1.8 0 0
1.81 0 0
1.82 0 0
1.83 0 0
1.84 0 0
1.85 0 0
1.86 0 0
1.87 0 0
1.88 0 0
1.89 0 0
1.9 0 0
1.91 0 0
1.92 0 0
1.93 0 0
1.94 0 0
1.95 0 0
1.96 0 0
1.97 0 0
1.98 0 0
1.99 0 0
2 0.0100088 0
2 0.0204183 0
2 0.0312446 0
2 0.0425043 0
2 0.0542147 0
2 0.066394 0
2 0.079061 0
2 0.092235 0
2 0.105936 0
2 0.120186 0
2 0.135007 0
2 0.150421 0
2 0.166452 0
2 0.183124 0
2 0.200465 0
2 0.218499 0
2 0.237256 0
2 0.256763 0
2 0.277051 0
2 0.298152 0
2 0.320097 0
2 0.342921 0
2 0.366659 0
2 0.391347 0
2 0.417024 0
2 0.443728 0
2 0.471502 0
2 0.500387 0
2 0.530429 0
2 0.561674 0
2 0.594169 0
2 0.627966 0
2 0.663115 0
2 0.699672 0
2 0.737692 0
2 0.777235 0
2 0.818361 0
2 0.861133 0
2 0.905617 0
2 0.951882 0
1.95 1 0
1.9 1 0
1.85 1 0
1.8 1 0
1.75 1 0
1.7 1 0
1.65 1 0
1.6 1 0
1.55 1 0
1.5 1 0
1.45 1 0
1.4 1 0
1.35 1 0
1.3 1 0
1.25 1 0
1.2 1 0
1.15 1 0
1.1 1 0
1.05 1 0
1 1 0
0.95 1 0
0.9 1 0
0.85 1 0
0.8 1 0
0.75 1 0
0.7 1 0
0.65 1 0
0.6 1 0
0.55 1 0
0.5 1 0
0.45 1 0
0.4 1 0
0.35 1 0
0.3 1 0
0.25 1 0
0.2 1 0
0.15 1 0
0.1 1 0
0.05 1 0
3.69793e-12 1 0
-0.05 1 0
-0.1 1 0
-0.15 1 0
-0.2 1 0
-0.25 1 0
-0.3 1 0
-0.35 1 0
-0.4 1 0
-0.45 1 0
-0.5 1 0
-0.55 1 0
-0.6 1 0
-0.65 1 0
-0.7 1 0
-0.75 1 0
-0.8 1 0
-0.85 1 0
-0.9 1 0
-0.95 1 0
-1 0.951882 0
-1 0.905617 0
-1 0.861133 0
-1 0.818361 0
-1 0.777235 0
-1 0.737692 0
-1 0.699672 0
-1 0.663115 0
-1 0.627966 0
-1 0.594169 0
-1 0.561674 0
-1 0.530429 0
-1 0.500387 0
-1 0.471502 0
-1 0.443728 0
-1 0.417024 0
-1 0.391347 0
-1 0.366659 0
-1 0.342921 0
-1 0.320097 0
-1 0.298152 0
-1 0.277051 0
-1 0.256763 0
-1 0.237256 0
-1 0.218499 0
-1 0.200465 0
-1 0.183124 0
-1 0.166452 0
-1 0.150421 0
-1 0.135007 0
-1 0.120186 0
-1 0.105936 0
-1 0.092235 0
-1 0.079061 0
-1 0.066394 0
-1 0.0542147 0
-1 0.0425043 0
-1 0.0312446 0
-1 0.0204183 0
-1 0.0100088 0
0.00921362 0.00379763 0
0.0184561 0.00752451 0
0.0277268 0.0111804 0
0.0370253 0.0147652 0
0.0463511 0.0182786 0
0.0557034 0.0217203 0
0.0650819 0.0250903 0
0.074486 0.0283883 0
0.083915 0.0316141 0
0.0933685 0.0347675 0
0.102846 0.0378484 0
0.112347 0.0408565 0
0.12187 0.0437917 0
0.131416 0.0466538 0
0.140983 0.0494427 0
0.150572 0.0521581 0
0.160181 0.0547999 0
0.16981 0.0573681 0
0.179458 0.0598623 0
0.189125 0.0622825 0
0.198811 0.0646285 0
0.208514 0.0669001 0
0.218234 0.0690974 0
0.227971 0.07122 0
0.237724 0.073268 0
0.247493 0.0752411 0
0.257276 0.0771393 0
0.267073 0.0789625 0
0.276884 0.0807105 0
0.286708 0.0823832 0
0.296545 0.0839806 0
0.306394 0.0855025 0
0.316254 0.0869488 0
0.326125 0.0883196 0
0.336006 0.0896146 0
0.345896 0.0908339 0
0.355796 0.0919773 0
0.365704 0.0930447 0
0.375621 0.0940362 0
0.385544 0.0949517 0
0.395474 0.095791 0
0.40541 0.0965542 0
0.415352 0.0972412 0
0.425299 0.097852 0
0.43525 0.0983865 0
0.445205 0.0988447 0
0.455164 0.0992266 0
0.465125 0.0995321 0
0.475088 0.0997613 0
0.485052 0.0999141 0
0.495017 0.0999904 0
0.504983 0.0999904 0
0.514948 0.0999141 0
0.524912 0.0997613 0
0.534875 0.0995321 0
0.544836 0.0992266 0
0.554795 0.0988447 0
0.56475 0.0983865 0
0.574701 0.097852 0
0.584648 0.0972412 0
0.59459 0.0965542 0
0.604526 0.095791 0
0.614456 0.0949517 0
0.624379 0.0940362 0
0.634296 0.0930447 0
0.644204 0.0919773 0
0.654104 0.0908339 0
0.663994 0.0896146 0
0.673875 0.0883196 0
0.683746 0.0869488 0
0.693606 0.0855025 0
0.703455 0.0839806 0
0.713292 0.0823832 0
0.723116 0.0807105 0
0.732927 0.0789625 0
0.742724 0.0771393 0
0.752508 0.0752411 0
0.762276 0.073268 0
0.772029 0.07122 0
0.781766 0.0690974 0
0.791486 0.0669001 0
0.801189 0.0646285 0
0.810875 0.0622825 0
0.820542 0.0598623 0
0.83019 0.0573681 0
0.839819 0.0547999 0
0.849428 0.0521581 0
0.859017 0.0494427 0
0.868584 0.0466538 0
0.87813 0.0437917 0
0.887653 0.0408565 0
0.897154 0.0378484 0
0.906631 0.0347675 0
0.916085 0.0316141 0
0.925514 0.0283883 0
0.934918 0.0250903 0
0.944297 0.0217203 0
0.953649 0.0182786 0
0.962975 0.0147652 0
0.972273 0.0111804 0
0.981544 0.00752451 0
0.990786 0.00379763 0
-1 0.951882 0.1
-1 0.905617 0.1
-1 0.861133 0.1
-1 0.818361 0.1
-1 0.777235 0.1
-1 0.737692 0.1
-1 0.699672 0.1
-1 0.663115 0.1
-1 0.627966 0.1
-1 0.594169 0.1
-1 0.561674 0.1
-1 0.530429 0.1
-1 0.500387 0.1
-1 0.471502 0.1
-1 0.443728 0.1
-1 0.417024 0.1
-1 0.391347 0.1
-1 0.366659 0.1
-1 0.342921 0.1
-1 0.320097 0.1
-1 0.298152 0.1
-1 0.277051 0.1
-1 0.256763 0.1
-1 0.237256 0.1
-1 0.218499 0.1
-1 0.200465 0.1
-1 0.183124 0.1
-1 0.166452 0.1
-1 0.150421 0.1
-1 0.135007 0.1
-1 0.120186 0.1
-1 0.105936 0.1
-1 0.092235 0.1
-1 0.079061 0.1
-1 0.066394 0.1
-1 0.0542147 0.1
-1 0.0425043 0.1
-1 0.0312446 0.1
-1 0.0204183 0.1
-1 0.0100088 0.1
-0.99 0 0.1
-0.98 0 0.1
-0.97 0 0.1
-0.96 0 0.1
-0.95 0 0.1
-0.94 0 0.1
-0.93 0 0.1
-0.92 0 0.1
-0.91 0 0.1
-0.9 0 0.1
-0.89 0 0.1
-0.88 0 0.1
-0.87 0 0.1
-0.86 0 0.1
-0.85 0 0.1
-0.84 0 0.1
-0.83 0 0.1
-0.82 0 0.1
-0.81 0 0.1
-0.8 0 0.1
-0.79 0 0.1
-0.78 0 0.1
-0.77 0 0.1
-0.76 0 0.1
-0.75 0 0.1
-0.74 0 0.1
-0.73 0 0.1
-0.72 0 0.1
-0.71 0 0.1
-0.7 0 0.1
-0.69 0 0.1
-0.68 0 0.1
-0.67 0 0.1
-0.66 0 0.1
-0.65 0 0.1
-0.64 0 0.1
-0.63 0 0.1
-0.62 0 0.1
-0.61 0 0.1
-0.6 0 0.1
-0.59 0 0.1
-0.58 0 0.1
-0.57 0 0.1
-0.56 0 0.1
-0.55 0 0.1
-0.54 0 0.1
-0.53 0 0.1
-0.52 0 0.1
-0.51 0 0.1
-0.5 0 0.1
-0.49 0 0.1
-0.48 0 0.1
-0.47 0 0.1
-0.46 0 0.1
-0.45 0 0.1
-0.44 0 0.1
-0.43 0 0.1
-0.42 0 0.1
-0.41 0 0.1
-0.4 0 0.1
-0.39 0 0.1
-0.38 0 0.1
-0.37 0 0.1
-0.36 0 0.1
-0.35 0 0.1
-0.34 0 0.1
-0.33 0 0.1
-0.32 0 0.1
-0.31 0 0.1
-0.3 0 0.1
-0.29 0 0.1
-0.28 0 0.1
-0.27 0 0.1
-0.26 0 0.1
-0.25 0 0.1
-0.24 0 0.1
-0.23 0 0.1
-0.22 0 0.1
-0.21 0 0.1
-0.2 0 0.1
-0.19 0 0.1
-0.18 0 0.1
-0.17 0 0.1
-0.16 0 0.1
-0.15 0 0.1
-0.14 0 0.1
-0.13 0 0.1
-0.12 0 0.1
-0.11 0 0.1
-0.1 0 0.1
-0.09 0 0.1
-0.08 0 0.1
-0.07 0 0.1
-0.06 0 0.1
-0.05 0 0.1
-0.04 0 0.1
-0.03 0 0.1
-0.02 0 0.1
-0.01 0 0.1
0.00921362 0.00379763 0.1
0.0184561 0.00752451 0.1
0.0277268 0.0111804 0.1
0.0370253 0.0147652 0.1
0.0463511 0.0182786 0.1
0.0557034 0.0217203 0.1
0.0650819 0.0250903 0.1
0.074486 0.0283883 0.1
0.083915 0.0316141 0.1
0.0933685 0.0347675 0.1
0.102846 0.0378484 0.1
0.112347 0.0408565 0.1
0.12187 0.0437917 0.1
0.131416 0.0466538 0.1
0.140983 0.0494427 0.1
0.150572 0.0521581 0.1
0.160181 0.0547999 0.1
0.16981 0.0573681 0.1
0.179458 0.0598623 0.1
0.189125 0.0622825 0.1
0.198811 0.0646285 0.1
0.208514 0.0669001 0.1
0.218234 0.0690974 0.1
0.227971 0.07122 0.1
0.237724 0.073268 0.1
0.247493 0.0752411 0.1
0.257276 0.0771393 0.1
0.267073 0.0789625 0.1
0.276884 0.0807105 0.1
0.286708 0.0823832 0.1
0.296545 0.0839806 0.1
0.306394 0.0855025 0.1
0.316254 0.0869488 0.1
0.326125 0.0883196 0.1
0.336006 0.0896146 0.1
0.345896 0.0908339 0.1
0.355796 0.0919773 0.1
0.365704 0.0930447 0.1
0.375621 0.0940362 0.1
0.385544 0.0949517 0.1
0.395474 0.095791 0.1
0.40541 0.0965542 0.1
0.415352 0.0972412 0.1
0.425299 0.097852 0.1
0.43525 0.0983865 0.1
0.445205 0.0988447 0.1
0.455164 0.0992266 0.1
0.465125 0.0995321 0.1
0.475088 0.0997613 0.1
0.485052 0.0999141 0.1
0.495017 0.0999904 0.1
0.504983 0.0999904 0.1
0.514948 0.0999141 0.1
0.524912 0.0997613 0.1
0.534875 0.0995321 0.1
0.544836 0.0992266 0.1
0.554795 0.0988447 0.1
0.56475 0.0983865 0.1
0.574701 0.097852 0.1
0.584648 0.0972412 0.1
0.59459 0.0965542 0.1
0.604526 0.095791 0.1
0.614456 0.0949517 0.1
0.624379 0.0940362 0.1
0.634296 0.0930447 0.1
0.644204 0.0919773 0.1
0.654104 0.0908339 0.1
0.663994 0.0896146 0.1
0.673875 0.0883196 0.1
0.683746 0.0869488 0.1
0.693606 0.0855025 0.1
0.703455 0.0839806 0.1
0.713292 0.0823832 0.1
0.723116 0.0807105 0.1
0.732927 0.0789625 0.1
0.742724 0.0771393 0.1
0.752508 0.0752411 0.1
0.762276 0.073268 0.1
0.772029 0.07122 0.1
0.781766 0.0690974 0.1
0.791486 0.0669001 0.1
0.801189 0.0646285 0.1
0.810875 0.0622825 0.1
0.820542 0.0598623 0.1
0.83019 0.0573681 0.1
0.839819 0.0547999 0.1
0.849428 0.0521581 0.1
0.859017 0.0494427 0.1
0.868584 0.0466538 0.1
0.87813 0.0437917 0.1
0.887653 0.0408565 0.1
0.897154 0.0378484 0.1
0.906631 0.0347675 0.1
0.916085 0.0316141 0.1
0.925514 0.0283883 0.1
0.934918 0.0250903 0.1
0.944297 0.0217203 0.1
0.953649 0.0182786 0.1
0.962975 0.0147652 0.1
0.972273 0.0111804 0.1
0.981544 0.00752451 0.1
0.990786 0.00379763 0.1
1.01 0 0.1
1.02 0 0.1
1.03 0 0.1
[...]
CELL_DATA 14313
SCALARS rho float
LOOKUP_TABLE default
0.833212
0.835964
0.821097
0.707221
0.831797
0.862841
0.864831
0.864612
0.820202
0.824794
0.863102
0.811118
0.80189
0.73869
0.865268
0.873352
0.815823
0.820227
0.862225
0.820765
0.861986
0.83169
0.864714
0.83174
0.864416
0.824231
0.803558
0.757952
0.835399
0.867755
0.863695
0.808971
0.807288
0.864376
0.808286
0.862756
0.779926
0.816067
0.863929
0.805233
0.815423
0.861787
0.709235
0.791226
0.866547
0.870935
0.863164
0.807922
0.851028
0.864716
0.777532
0.747387
0.755026
0.862663
0.866295
0.806993
0.866534
0.832365
0.820008
0.864717
0.863124
0.867064
0.808998
0.873463
0.861742
0.865481
0.866412
0.808635
0.87846
0.865258
0.810983
0.873083
0.726887
0.875289
0.811713
0.85775
0.837378
0.807167
0.773519
0.86309
0.719822
0.868047
0.868825
0.805458
0.856572
0.867179
0.862865
0.807844
0.864177
0.820024
0.806316
0.740134
0.813482
0.803562
0.811798
0.807511
0.865928
0.860984
0.806159
0.728473
0.85524
0.86185
0.864773
0.856003
0.812649
0.816482
0.805948
0.774714
0.874054
0.862123
0.825481
0.869455
0.863495
0.867216
0.806844
0.870222
0.866419
0.874642
0.805965
0.804004
0.863902
0.860991
0.888527
0.808918
0.856263
0.822249
0.842013
0.807911
0.866029
0.855972
0.861692
0.863785
0.88941
0.864454
0.86904
0.806774
0.829515
0.810545
0.866596
0.866789
0.86483
0.86466
0.804561
0.806426
0.81455
0.877556
0.810682
0.801522
0.842741
0.866778
0.803204
0.805379
0.864717
0.794097
0.865772
0.807628
0.791148
0.86811
0.864338
0.820407
0.867042
0.815431
0.776297
0.8006
0.868972
0.837006
0.780337
0.864924
0.870992
0.827085
0.78414
0.828515
0.790145
0.841065
0.860268
0.838887
0.859986
0.856985
0.86805
0.798014
0.863008
0.861771
0.826933
0.801953
0.810524
0.832922
0.865252
0.814838
0.715322
0.837036
0.80152
0.7983
0.80464
0.794487
0.864685
0.864954
0.813381
0.805242
0.858119
0.866635
0.820208
0.806007
0.871285
0.866116
0.873469
0.806595
0.829279
0.825832
0.864267
0.870228
0.810918
0.857608
0.843275
0.77597
0.865462
0.840914
0.861789
0.815834
0.873748
0.807881
0.805298
0.830304
0.858032
0.888103
0.855871
0.806017
0.866971
0.803851
0.864615
0.818056
0.77532
0.824664
0.77446
0.870408
0.803838
0.809233
0.863948
0.865402
0.864864
0.839123
0.815263
0.756752
0.819772
0.759816
0.865865
0.79167
0.806751
0.81283
0.875317
0.826682
0.721998
0.806809
0.788443
0.876665
0.806232
0.786707
0.857968
0.869922
0.865944
0.735379
0.823799
0.806157
0.851075
0.855098
0.837809
0.827219
0.828826
0.82811
0.737816
0.866026
0.865385
0.805887
0.815045
0.862966
0.809167
0.864873
0.840291
0.798677
0.820038
0.810504
0.71893
0.70754
0.801428
0.85986
0.867862
0.810083
0.862546
0.866115
0.807416
0.810877
0.805501
0.866604
0.872138
0.844496
0.816545
0.822428
0.772596
0.858413
0.791861
0.803264
0.808757
0.80629
0.874451
0.816423
0.801694
0.783064
0.780107
0.850474
0.813686
0.830749
0.811182
0.80531
0.746659
0.865856
0.833633
0.828868
0.863057
0.864695
0.806922
0.837882
0.86593
0.757345
0.860195
0.864303
0.865891
0.864886
0.825375
0.865791
0.803684
0.865938
0.864689
0.788107
0.800015
0.80475
0.804635
0.730956
0.864815
0.822527
0.815677
0.863879
0.807994
0.809538
0.787861
0.7893
0.865899
0.80802
0.801605
0.839091
0.876743
0.865747
0.807979
0.816405
0.864531
0.811332
0.866712
0.840005
0.866692
0.820231
0.86305
0.842644
0.86263
0.843885
0.863319
0.718412
0.802962
0.804197
0.82284
0.854718
0.825015
0.814526
0.864402
0.864772
0.867004
0.804768
0.828897
0.854831
0.823525
0.794003
0.823378
0.856771
0.872005
0.869665
0.834676
0.811006
0.75881
0.835334
0.747813
0.811878
0.823424
0.85318
0.865441
0.90079
0.710207
0.751547
0.875822
0.8991
0.86345
0.76874
0.809
0.794277
0.85689
0.827032
0.779384
0.755972
0.816751
0.864775
0.731097
0.900405
0.869357
0.85077
0.815645
0.724613
0.81866
0.833554
0.866874
0.812017
0.805694
0.872423
0.864551
0.796647
0.784705
0.80372
0.811397
0.860938
0.86299
0.824097
0.863137
0.810605
0.814911
0.811072
0.805167
0.824257
0.866889
0.823195
0.86529
0.863094
0.825048
0.810147
0.806957
0.845895
0.86405
0.862726
0.856106
0.770907
0.809662
0.862052
0.824346
0.862372
0.81318
0.864717
0.814672
0.865201
0.86608
0.750133
0.887965
0.804718
0.867934
0.85375
0.785155
0.86264
0.808514
0.869784
0.709561
0.807359
0.781868
0.863305
0.816239
0.736415
0.823344
0.808165
0.811285
0.819457
0.853081
0.827748
0.863246
0.750234
0.810826
0.811083
0.823024
0.866018
0.822986
0.863344
0.86149
0.804047
0.866429
0.80159
0.804491
0.864602
0.736658
0.825495
0.810021
0.71709
0.869658
0.729882
0.813706
0.867192
0.889045
0.779041
0.81865
0.864052
0.811147
0.805813
0.846158
0.829042
0.863245
0.864719
0.821568
0.865456
0.827128
0.729367
0.864788
0.865466
0.814053
0.861554
0.749803
0.864861
0.867696
0.788761
0.810158
0.865493
0.809517
0.842572
0.867933
0.808237
0.779767
0.723882
0.86544
0.717416
0.804538
0.804235
0.804159
0.863001
0.798355
0.863195
0.825677
0.804347
0.715538
0.865488
0.870749
0.872757
0.856717
0.80536
0.804495
0.864819
0.791825
0.882206
0.853851
0.788673
0.803889
0.748299
0.807868
0.769415
0.863018
0.854085
0.806369
0.770148
0.829062
0.865686
0.869305
0.870853
0.855855
0.785225
0.709718
0.811913
0.865708
0.806423
0.827657
0.851046
0.805757
0.864489
0.864977
0.806936
0.865819
0.810581
0.78089
0.804769
0.821891
0.734977
0.768248
0.812442
0.862092
0.808164
0.716249
0.863972
0.724754
0.864736
0.804277
0.861592
0.865733
0.793576
0.856749
0.842602
0.809459
0.850015
0.854964
0.867591
0.80975
0.8664
0.732287
0.864826
0.889209
0.863177
0.871625
0.806981
0.867413
0.802912
0.874115
0.828146
0.829891
0.786077
0.771768
0.875726
0.865583
0.874531
0.80507
0.806352
0.802759
0.802305
0.828893
0.843116
0.857666
0.865469
0.868814
0.870645
0.87249
0.813657
0.785526
0.854551
0.800551
0.847507
0.865217
0.804351
0.824762
0.801653
0.813747
0.811537
0.881906
0.860421
0.804468
0.813777
0.874881
0.870157
0.805351
0.888839
0.820654
0.867193
0.78385
0.80438
0.810769
0.805865
0.8734
0.727274
0.814341
0.810285
0.771996
0.866032
0.871721
0.865752
0.804257
0.811334
0.812404
0.865787
0.805984
0.763173
0.708763
0.865644
0.856853
0.805461
0.809035
0.808045
0.812281
0.863074
0.804862
0.865782
0.721991
0.864784
0.818327
0.864121
0.877608
0.865713
0.846702
0.862811
0.80328
0.865246
0.763124
0.811753
0.864025
0.865277
0.80863
0.865756
0.745236
0.810542
0.754818
0.783854
0.78678
0.818165
0.865627
0.82397
0.716657
0.772599
0.805249
0.872751
0.808564
0.849342
0.809539
0.815055
0.849469
0.753716
0.800132
0.731994
0.805239
0.86262
0.811426
0.86182
0.756381
0.75154
0.86718
0.806695
0.865693
0.80043
0.865715
0.711578
0.867512
0.752956
0.865733
0.865509
0.80387
0.805578
0.86995
0.841126
0.812844
0.854577
0.743891
0.825824
0.77506
0.804615
0.805079
0.86578
0.830792
0.797521
0.864604
0.791101
0.804647
0.763533
0.812557
0.781957
0.757354
0.869398
0.864759
0.806562
0.806668
0.821397
0.759532
0.862569
0.804564
0.769696
0.870279
0.865832
0.774019
0.773797
0.87026
0.805642
0.805906
0.84605
0.875147
0.875975
0.862976
0.707917
0.810851
0.860083
0.867331
0.743645
0.745622
0.826722
0.86486
0.795517
0.808087
0.86357
0.855899
0.801565
0.864605
0.865696
0.805194
0.796507
0.812289
0.849443
0.86223
0.730217
0.809951
0.868361
0.714865
0.865881
0.85942
0.863136
0.759425
0.863136
0.86401
0.863434
0.808404
0.867178
0.823749
0.815343
0.809772
0.80435
0.865332
0.734512
0.85987
0.818608
0.795912
0.753471
0.809435
0.805237
0.863816
0.793166
0.756084
0.863466
0.838209
0.863637
0.867742
0.865623
0.869919
0.807431
0.756259
0.862746
0.852247
0.863125
0.749443
0.852679
0.799079
0.865243
0.862775
0.862967
0.866634
0.813196
0.865467
0.814828
0.795171
0.86479
0.865089
0.817484
0.810338
0.803539
0.754091
0.793652
0.836754
0.864625
0.863242
0.820949
0.862389
0.804366
0.846304
0.81524
0.748082
0.791792
0.86326
0.805321
0.808302
0.829143
0.754763
0.865657
0.807936
0.878111
0.860104
0.768936
0.816352
0.806621
0.875935
0.795271
0.735071
0.720197
0.737473
0.865418
0.820883
0.737335
0.756943
0.867683
0.864258
0.91131
0.808331
0.866498
0.864836
0.80204
0.863148
0.86502
0.863768
0.862958
0.863122
0.802717
0.863623
0.774982
0.865718
0.80564
0.859759
0.791866
0.866556
0.725292
0.868409
0.806733
0.869024
0.862979
0.814801
0.78619
0.836457
0.863839
0.850739
0.863098
0.864684
0.774109
0.868735
0.861495
0.864814
0.871812
0.86876
0.710128
0.801599
0.809272
0.823627
0.827652
0.806725
0.803077
0.866216
0.803105
0.812412
0.86633
0.891583
0.873086
0.753935
0.846686
0.799263
0.865805
0.802394
0.866959
0.808343
0.814854
0.864489
0.836407
0.854231
0.829729
0.833193
0.807365
0.784476
0.815
0.794272
0.864875
0.850128
0.850988
0.814672
0.86042
0.792264
0.750535
0.863489
0.803047
0.862902
0.805196
0.768665
0.814163
0.806527
0.782082
0.862291
0.786692
0.816517
0.864971
0.891207
0.827665
0.82252
0.801598
0.864919
0.827019
0.876163
0.907214
0.802905
0.71084
0.805053
0.749286
0.803796
0.751021
0.810619
0.729189
0.866157
0.863751
0.814147
0.861983
0.867108
0.812717
0.804749
0.788243
0.837161
0.864212
0.809171
0.857519
0.810838
0.805288
0.85537
0.767562
0.866556
0.807825
0.859391
0.860021
0.819811
0.806614
0.864611
0.864766
0.859311
0.805209
0.838905
0.864115
0.841327
0.808638
0.865492
0.830671
0.71768
0.865118
0.867044
0.820194
0.766547
0.810124
0.856692
0.804867
0.798516
0.885798
0.862571
0.864833
0.863493
0.860845
0.82975
0.863974
0.838792
0.864775
0.868477
0.758661
0.864079
0.799993
0.829646
0.802353
0.807203
0.800059
0.808055
0.739014
0.861414
0.774814
0.72179
0.861298
0.757459
0.801667
0.866402
0.864554
0.830299
0.863243
0.802209
0.744091
0.869447
0.73069
0.866567
0.828396
0.803813
0.815385
0.865524
0.747413
0.807831
0.804219
0.861104
0.863917
0.843191
0.814613
0.782916
0.812594
0.773655
0.805002
0.812942
0.863141
0.864741
0.820557
0.862737
0.860876
0.766702
0.79934
0.73552
0.797561
0.865818
0.817223
0.874109
0.816708
0.866036
0.744983
0.886799
0.866206
0.870218
0.732263
0.868513
0.864202
0.878579
0.879411
0.86443
0.843078
0.867766
0.714746
0.815233
0.863372
0.758403
0.865888
0.81028
0.86397
0.814265
0.865006
0.864758
0.831442
0.764232
0.803679
0.803197
0.733631
0.865792
0.890595
0.865925
0.782705
0.835027
0.865368
0.867519
0.84957
0.731861
0.719768
0.80841
0.876576
0.811252
0.808881
0.865835
0.813401
0.8226
0.861715
0.803107
0.80699
0.809919
0.864867
0.809932
0.819508
0.805574
0.849985
0.872357
0.886626
0.865322
0.859171
0.865744
0.865389
0.86357
0.863341
0.864884
0.869514
0.816501
0.863435
0.763577
0.872314
0.746393
0.896433
0.80574
0.869057
0.806726
0.807637
0.83942
0.783359
0.833514
0.827934
0.824055
0.865591
0.806482
0.860076
0.723495
0.815168
0.865399
0.86526
0.81283
0.864109
0.726358
0.808349
0.709603
0.865751
0.802135
0.825876
0.808876
0.865394
0.864778
0.864855
0.777426
0.860174
0.863554
0.820568
0.805738
0.810681
0.782839
0.83137
0.818553
0.80807
0.793692
0.736642
0.713944
0.876991
0.811064
0.82996
0.809217
0.837991
0.80527
0.806421
0.867006
0.80819
0.794629
0.866454
0.81628
0.821031
0.871983
0.819718
0.86301
0.815266
0.717802
0.805257
0.863451
0.828212
0.866424
0.865854
0.869893
0.762458
0.759025
0.735589
0.865305
0.865
0.812607
0.828365
0.770697
0.826929
0.819667
0.863038
0.808245
0.820231
0.718949
0.785869
0.854911
0.86559
0.817412
0.853651
0.868754
0.805725
0.80611
0.775316
0.857038
0.863088
0.807734
0.864487
0.805525
0.751857
0.82755
0.86466
0.720511
0.792167
0.847489
0.841118
0.798079
0.810786
0.812743
0.863976
0.795714
0.771632
0.862007
0.811047
0.804213
0.803146
0.726349
0.865605
0.768355
0.799045
0.771851
0.806415
0.802405
0.862846
0.77757
0.804118
0.811314
0.866164
0.721381
0.806272
0.839003
0.857186
0.728501
0.81376
0.810051
0.793512
0.792914
0.811103
0.867373
0.865398
0.860248
0.793057
0.8034
0.748862
0.873743
0.876074
0.865147
0.813372
0.892779
0.797781
0.865611
0.803802
0.816059
0.81315
0.863146
0.808849
0.863222
0.813392
0.800833
0.867602
0.802005
0.878994
0.788976
0.816035
0.812778
0.790571
0.808386
0.865771
0.717542
0.81012
0.806614
0.805389
0.868109
0.803147
0.818481
0.795581
0.863968
0.817253
0.798503
0.863995
0.865496
0.871624
0.818972
0.835262
0.80278
0.810761
0.768217
0.864806
0.808257
0.782784
0.81288
0.807613
0.870144
0.861269
0.866215
0.877859
0.861175
0.798546
0.86576
0.842112
0.807331
0.730411
0.861289
0.855722
0.864287
0.833497
0.884754
0.870052
0.809622
0.856277
0.807906
0.807984
0.804445
0.864296
0.795176
0.744679
0.878742
0.775414
0.816889
0.873807
0.864802
0.776957
0.818144
0.810775
0.806929
0.810222
0.838092
0.809166
0.807993
0.812741
0.811797
0.807678
0.864031
0.832228
0.866489
0.825439
0.8046
0.832871
0.825008
0.864822
0.815034
0.712135
0.836908
0.863578
0.864425
0.795017
0.821992
0.803484
0.807404
0.866389
0.782428
0.866366
0.85166
0.850442
0.823615
0.86343
0.822738
0.812986
0.804354
0.816935
0.864517
0.815492
0.859643
0.857505
0.811231
0.868568
0.809881
0.837347
0.85835
0.86426
0.82869
0.837824
0.782281
0.865655
0.827313
0.8094
0.796047
0.808267
0.748391
0.804293
0.713428
0.804556
0.865992
0.804254
0.874042
0.741769
0.861655
0.802536
0.862069
0.707536
0.810455
0.840695
0.865285
0.867242
0.794231
0.878858
0.733244
0.864072
0.759724
0.806541
0.732383
0.762292
0.864967
0.863556
0.813899
0.809798
0.832212
0.727478
0.862955
0.801209
0.874427
0.863505
0.824753
0.865401
0.807906
0.853018
0.81994
0.811206
0.728573
0.804546
0.879882
0.805152
0.853717
0.804201
0.812865
0.864002
0.864106
0.802071
0.797865
0.86223
0.866132
0.72499
0.807
0.749539
0.866328
0.741473
0.863524
0.828202
0.780276
0.773706
0.810651
0.799791
0.855791
0.823078
0.84325
0.806678
0.782246
0.809873
0.838064
0.803957
0.859038
0.852463
0.772537
0.780506
0.805793
0.805305
0.708233
0.863191
0.784702
0.81309
0.746128
0.866131
0.861644
0.869844
0.853493
0.851135
0.819011
0.754579
0.845184
0.818707
0.80746
0.866272
0.863509
0.864872
0.828939
0.868999
0.866522
0.753042
0.808128
0.808095
0.865342
0.771517
0.810103
0.835803
0.814694
0.773132
0.852892
0.794596
0.80134
0.819521
0.865169
0.762244
0.877442
0.803434
0.80982
0.801527
0.861357
0.880417
0.814903
0.740142
0.866089
0.739839
0.729088
0.806739
0.826864
0.82568
0.864241
0.804776
0.861697
0.862959
0.718133
0.81367
0.848481
0.863962
0.732272
0.798327
0.772376
0.866597
0.862787
0.769679
0.806531
0.864572
0.805255
0.847396
0.756963
0.878498
0.77814
0.864372
0.864881
0.786685
0.864804
0.763181
0.838521
0.762714
0.821999
0.841402
0.757449
0.797707
0.80417
0.870913
0.861572
0.867453
0.868529
0.804264
0.826326
0.809419
0.861673
0.813789
0.793707
0.821402
0.726176
0.833667
0.814081
0.807861
0.86421
0.869424
0.80455
0.791864
0.741428
0.774746
0.845025
0.827587
0.786259
0.759966
0.81694
0.861584
0.810068
0.818069
0.80937
0.861829
0.810794
0.713078
0.758514
0.802983
0.864182
0.89384
0.826121
0.863165
0.883755
0.804943
0.813915
0.865997
0.864581
0.856648
0.80228
0.816565
0.794233
0.892877
0.837563
0.865666
0.758693
0.801977
0.707293
0.716602
0.761689
0.859702
0.805354
0.860633
0.826987
0.805277
0.722744
0.840621
0.8104
0.813821
0.864968
0.809746
0.866158
0.878145
0.737188
0.861345
0.807315
0.86151
0.827388
0.865311
0.864653
0.821188
0.802355
0.815068
0.806669
0.802225
0.862616
0.858428
0.867193
0.805805
0.808119
0.761302
0.86551
0.863641
0.734886
0.80371
0.803789
0.726827
0.841362
0.808043
0.903635
0.804718
0.863645
0.823782
0.810905
0.802453
0.818092
0.806314
0.717136
0.749652
0.771959
0.807529
0.863168
0.805185
0.834133
0.809793
0.853635
0.865247
0.804308
0.885052
0.795525
0.863613
0.807272
0.721622
0.744118
0.865351
0.805485
0.814342
0.71873
0.808952
0.805869
0.752489
0.865633
0.845174
0.818137
0.865521
0.747022
0.765514
0.808166
0.864905
0.845151
0.761147
0.809526
0.759129
0.865577
0.868673
0.807512
0.831914
0.735733
0.86383
0.806077
0.791444
0.865253
0.810663
0.79842
0.804899
0.802689
0.862367
0.710586
0.819376
0.785382
0.808853
0.834281
0.763062
0.805823
0.861112
0.786358
0.828043
0.787612
0.866422
0.803925
0.794341
0.792364
0.85882
0.810667
0.865643
0.761921
0.809818
0.856884
0.863227
0.782981
0.864252
0.817613
0.869632
0.749661
0.866149
0.80555
0.863931
0.813837
0.879529
0.805846
0.867317
0.795144
0.866087
0.877566
0.845425
0.860516
0.858583
0.786967
0.86166
0.840397
0.810317
0.863649
0.810569
0.748244
0.833382
0.865691
0.796987
0.795037
0.805452
0.811104
0.768547
0.803743
0.710936
0.861379
0.793099
0.788116
0.865547
0.804969
0.852545
0.820817
0.852014
0.808814
0.864464
0.848757
0.796787
0.82769
0.736575
0.861509
0.807882
0.852785
0.809458
0.715987
0.804034
0.805871
0.85975
0.80297
0.866422
0.815352
0.748934
0.86859
0.861623
0.774593
0.813005
0.864524
0.809816
0.804832
0.824835
0.800879
0.81387
0.804746
0.818437
0.876373
0.770617
0.764685
0.808482
0.791796
0.805702
0.84462
0.709945
0.788443
0.808803
0.807112
0.804401
0.786269
0.868039
0.858693
0.80553
0.81916
0.865611
0.773257
0.777117
0.81907
0.865823
0.803234
0.884251
0.807104
0.86473
0.808904
0.861054
0.833074
0.815015
0.775909
0.826814
0.866557
0.808206
0.811221
0.804296
0.737704
0.860938
0.862886
0.864851
0.875851
0.86541
0.815346
0.726114
0.849339
0.787178
0.870246
0.81345
0.823008
0.838311
0.860764
0.864494
0.814197
0.714959
0.731947
0.864794
0.861245
0.729537
0.817067
0.865476
0.848353
0.724147
0.816851
0.865188
0.806993
0.816061
0.739372
0.865376
0.81959
0.717396
0.864562
0.866119
0.725261
0.818428
0.864996
0.80476
0.813577
0.853087
0.860953
0.802905
0.869419
0.713646
0.842835
0.829466
0.808257
0.814
0.834765
0.863413
0.816861
0.810443
0.863425
0.808751
0.782578
0.858303
0.740564
0.863107
0.76117
0.797645
0.808985
0.793648
0.805019
0.716507
0.883589
0.864393
0.864641
0.805266
0.805136
0.804727
0.830598
0.865997
0.76354
0.790989
0.792636
0.866079
0.795202
0.751402
0.861221
0.835111
0.869169
0.863335
0.827312
0.801888
0.737141
0.813486
0.843404
0.730639
0.865707
0.865425
0.798759
0.810998
0.823742
0.758192
0.860886
0.824135
0.840326
0.735742
0.813491
0.80939
0.870507
0.865411
0.861752
0.823877
0.865299
0.760305
0.845851
0.866361
0.782498
0.722565
0.815395
0.810149
0.792641
0.865431
0.804362
0.81781
0.809447
0.895974
0.804422
0.811686
0.868432
0.890938
0.807948
0.863177
0.847939
0.866152
0.811728
0.793934
0.82898
0.807107
0.865413
0.806663
0.844433
0.879952
0.803059
0.865218
0.825746
0.808697
0.745436
0.717208
0.812673
0.82264
0.861364
0.810464
0.845585
0.86302
0.806149
0.810902
0.863505
0.833006
0.862113
0.806744
0.738616
0.815044
0.79777
0.805434
0.798541
0.799711
0.812541
0.808132
0.835261
0.812894
0.819157
0.804763
0.82546
0.866305
0.718547
0.810897
0.862824
0.86477
0.863761
0.85315
0.864422
0.853319
0.816587
0.867915
0.818331
0.808546
0.865726
0.806958
0.843938
0.813466
0.812865
0.72642
0.805879
0.815255
0.737849
0.855083
0.81773
0.811423
0.821131
0.792335
0.790361
0.868081
0.805933
0.826461
0.866186
0.764464
0.810038
0.868754
0.800515
0.817886
0.861766
0.807016
0.853899
0.849754
0.81898
0.866758
0.825152
0.810008
0.804148
0.865165
0.808475
0.802624
0.737979
0.866198
0.842714
0.812506
0.870105
0.792846
0.871572
0.860614
0.725573
0.813834
0.807575
0.809533
0.864527
0.865544
0.868881
0.811034
0.856674
0.865924
0.822745
0.80628
0.86455
0.811129
0.795514
0.801892
0.834675
0.865758
0.862927
0.828452
0.815609
0.827596
0.836927
0.8185
0.864606
0.78877
0.72105
0.783443
0.866837
0.814778
0.866231
0.878218
0.8045
0.806209
0.777018
0.806557
0.811755
0.794286
0.865172
0.787454
0.874641
0.801253
0.864006
0.91603
0.827672
0.805708
0.833244
0.819265
0.790017
0.823731
0.859831
0.812695
0.856437
0.808533
0.805492
0.819102
0.839535
0.805379
0.885109
0.807951
0.807293
0.733536
0.807808
0.772817
0.808209
0.809109
0.814373
0.835063
0.789822
0.853838
0.84008
0.881116
0.865616
0.864908
0.863964
0.916126
0.797823
0.813095
0.797179
0.805298
0.804069
0.809179
0.803276
0.805907
0.821687
0.775239
0.858854
0.812705
0.748267
0.882361
0.882818
0.818363
0.828667
0.814347
0.829562
0.81434
0.804661
0.812416
0.801477
0.806362
0.809607
0.808582
0.866255
0.80851
0.739114
0.86355
0.833485
0.861178
0.808216
0.737178
0.806131
0.817299
0.890711
0.73087
0.806607
0.849247
0.826344
0.845793
0.76354
0.802229
0.81826
0.865586
0.866062
0.876351
0.787323
0.800918
0.901604
0.812806
0.860913
0.816797
0.776368
0.764285
0.734062
0.774921
0.758109
0.830128
0.852805
0.808145
0.864572
0.852739
0.821974
0.89126
0.799907
0.868719
0.865859
0.866328
0.866554
0.865821
0.865424
0.863918
0.862993