# vtk DataFile Version 1.0
unstructured grid
ascii
DATASET UNSTRUCTURED_GRID
points 14760 float
-1 0 0
-1 1 0
2 0 0
2 1 0
0 0 0
1 0 0
-1 1 0.1
-1 0 0.1
0 0 0.1
1 0 0.1
2 0 0.1
2 1 0.1
-0.99 0 0
-0.98 0 0
-0.97 0 0
-0.96 0 0
-0.95 0 0
-0.94 0 0
-0.93 0 0
-0.92 0 0
-0.91 0 0
-0.9 0 0
-0.89 0 0
-0.88 0 0
-0.87 0 0
-0.86 0 0
-0.85 0 0
-0.84 0 0
-0.83 0 0
-0.82 0 0
-0.81 0 0
-0.8 0 0
-0.79 0 0
-0.78 0 0
-0.77 0 0
-0.76 0 0
-0.75 0 0
-0.74 0 0
-0.73 0 0
-0.72 0 0
-0.71 0 0
-0.7 0 0
-0.69 0 0
-0.68 0 0
-0.67 0 0
-0.66 0 0
-0.65 0 0
-0.64 0 0
-0.63 0 0
-0.62 0 0
-0.61 0 0
-0.6 0 0
-0.59 0 0
-0.58 0 0
-0.57 0 0
-0.56 0 0
-0.55 0 0
-0.54 0 0
-0.53 0 0
-0.52 0 0
-0.51 0 0
-0.5 0 0
-0.49 0 0
-0.48 0 0
-0.47 0 0
-0.46 0 0
-0.45 0 0
-0.44 0 0
-0.43 0 0
-0.42 0 0
-0.41 0 0
-0.4 0 0
-0.39 0 0
-0.38 0 0
-0.37 0 0
-0.36 0 0
-0.35 0 0
-0.34 0 0
-0.33 0 0
-0.32 0 0
-0.31 0 0
-0.3 0 0
-0.29 0 0
-0.28 0 0
-0.27 0 0
-0.26 0 0
-0.25 0 0
-0.24 0 0
-0.23 0 0
-0.22 0 0
-0.21 0 0
-0.2 0 0
-0.19 0 0
-0.18 0 0
-0.17 0 0
-0.16 0 0
-0.15 0 0
-0.14 0 0
-0.13 0 0
-0.12 0 0
-0.11 0 0
-0.1 0 0
-0.09 0 0
-0.08 0 0
-0.07 0 0
-0.06 0 0
-0.05 0 0
-0.04 0 0
-0.03 0 0
-0.02 0 0
-0.01 0 0
1.01 0 0
1.02 0 0
1.03 0 0
1.04 0 0
1.05 0 0
1.06 0 0
1.07 0 0
1.08 0 0
1.09 0 0
1.1 0 0
1.11 0 0
1.12 0 0
1.13 0 0
1.14 0 0
1.15 0 0
1.16 0 0
1.17 0 0
1.18 0 0
1.19 0 0
1.2 0 0
1.21 0 0
1.22 0 0
1.23 0 0
1.24 0 0
1.25 0 0
1.26 0 0
1.27 0 0
1.28 0 0
1.29 0 0
1.3 0 0
1.31 0 0
1.32 0 0
1.33 0 0
1.34 0 0
1.35 0 0
1.36 0 0
1.37 0 0
1.38 0 0
1.39 0 0
1.4 0 0
1.41 0 0
1.42 0 0
1.43 0 0
1.44 0 0
1.45 0 0
1.46 0 0
1.47 0 0
1.48 0 0
1.49 0 0
1.5 0 0
1.51 0 0
1.52 0 0
1.53 0 0
1.54 0 0
1.55 0 0
1.56 0 0
1.57 0 0
1.58 0 0
1.59 0 0
1.6 0 0
1.61 0 0
1.62 0 0
1.63 0 0
1.64 0 0
1.65 0 0
1.66 0 0
1.67 0 0
1.68 0 0
1.69 0 0
1.7 0 0
1.71 0 0
1.72 0 0
1.73 0 0
1.74 0 0
1.75 0 0
1.76 0 0
1.77 0 0
1.78 0 0
1.79 0 0
1.8 0 0
1.81 0 0
1.82 0 0
1.83 0 0
1.84 0 0
1.85 0 0
1.86 0 0
1.87 0 0
1.88 0 0
1.89 0 0
1.9 0 0
1.91 0 0
1.92 0 0
1.93 0 0
1.94 0 0
1.95 0 0
1.96 0 0
1.97 0 0
1.98 0 0
1.99 0 0
2 0.0100088 0
2 0.0204183 0
2 0.0312446 0
2 0.0425043 0
2 0.0542147 0
2 0.066394 0
2 0.079061 0
2 0.092235 0
2 0.105936 0
2 0.120186 0
2 0.135007 0
2 0.150421 0
2 0.166452 0
2 0.183124 0
2 0.200465 0
2 0.218499 0
2 0.237256 0
2 0.256763 0
2 0.277051 0
2 0.298152 0
2 0.320097 0
2 0.342921 0
2 0.366659 0
2 0.391347 0
2 0.417024 0
2 0.443728 0
2 0.471502 0
2 0.500387 0
2 0.530429 0
2 0.561674 0
2 0.594169 0
2 0.627966 0
2 0.663115 0
2 0.699672 0
2 0.737692 0
2 0.777235 0
2 0.818361 0
2 0.861133 0
2 0.905617 0
2 0.951882 0
1.95 1 0
1.9 1 0
1.85 1 0
1.8 1 0
1.75 1 0
1.7 1 0
1.65 1 0
1.6 1 0
1.55 1 0
1.5 1 0
1.45 1 0
1.4 1 0
1.35 1 0
1.3 1 0
1.25 1 0
1.2 1 0
1.15 1 0
1.1 1 0
1.05 1 0
1 1 0
0.95 1 0
0.9 1 0
0.85 1 0
0.8 1 0
0.75 1 0
0.7 1 0
0.65 1 0
0.6 1 0
0.55 1 0
0.5 1 0
0.45 1 0
0.4 1 0
0.35 1 0
0.3 1 0
0.25 1 0
0.2 1 0
0.15 1 0
0.1 1 0
0.05 1 0
3.69793e-12 1 0
-0.05 1 0
-0.1 1 0
-0.15 1 0
-0.2 1 0
-0.25 1 0
-0.3 1 0
-0.35 1 0
-0.4 1 0
-0.45 1 0
-0.5 1 0
-0.55 1 0
-0.6 1 0
-0.65 1 0
-0.7 1 0
-0.75 1 0
-0.8 1 0
-0.85 1 0
-0.9 1 0
-0.95 1 0
-1 0.951882 0
-1 0.905617 0
-1 0.861133 0
-1 0.818361 0
-1 0.777235 0
-1 0.737692 0
-1 0.699672 0
-1 0.663115 0
-1 0.627966 0
-1 0.594169 0
-1 0.561674 0
-1 0.530429 0
-1 0.500387 0
-1 0.471502 0
-1 0.443728 0
-1 0.417024 0
-1 0.391347 0
-1 0.366659 0
-1 0.342921 0
-1 0.320097 0
-1 0.298152 0
-1 0.277051 0
-1 0.256763 0
-1 0.237256 0
-1 0.218499 0
-1 0.200465 0
-1 0.183124 0
-1 0.166452 0
-1 0.150421 0
-1 0.135007 0
-1 0.120186 0
-1 0.105936 0
-1 0.092235 0
-1 0.079061 0
-1 0.066394 0
-1 0.0542147 0
-1 0.0425043 0
-1 0.0312446 0
-1 0.0204183 0
-1 0.0100088 0
0.00921362 0.00379763 0
0.0184561 0.00752451 0
0.0277268 0.0111804 0
0.0370253 0.0147652 0
0.0463511 0.0182786 0
0.0557034 0.0217203 0
0.0650819 0.0250903 0
0.074486 0.0283883 0
0.083915 0.0316141 0
0.0933685 0.0347675 0
0.102846 0.0378484 0
0.112347 0.0408565 0
0.12187 0.0437917 0
0.131416 0.0466538 0
0.140983 0.0494427 0
0.150572 0.0521581 0
0.160181 0.0547999 0
0.16981 0.0573681 0
0.179458 0.0598623 0
0.189125 0.0622825 0
0.198811 0.0646285 0
0.208514 0.0669001 0
0.218234 0.0690974 0
0.227971 0.07122 0
0.237724 0.073268 0
0.247493 0.0752411 0
0.257276 0.0771393 0
0.267073 0.0789625 0
0.276884 0.0807105 0
0.286708 0.0823832 0
0.296545 0.0839806 0
0.306394 0.0855025 0
0.316254 0.0869488 0
0.326125 0.0883196 0
0.336006 0.0896146 0
0.345896 0.0908339 0
0.355796 0.0919773 0
0.365704 0.0930447 0
0.375621 0.0940362 0
0.385544 0.0949517 0
0.395474 0.095791 0
0.40541 0.0965542 0
0.415352 0.0972412 0
0.425299 0.097852 0
0.43525 0.0983865 0
0.445205 0.0988447 0
0.455164 0.0992266 0
0.465125 0.0995321 0
0.475088 0.0997613 0
0.485052 0.0999141 0
0.495017 0.0999904 0
0.504983 0.0999904 0
0.514948 0.0999141 0
0.524912 0.0997613 0
0.534875 0.0995321 0
0.544836 0.0992266 0
0.554795 0.0988447 0
0.56475 0.0983865 0
0.574701 0.097852 0
0.584648 0.0972412 0
0.59459 0.0965542 0
0.604526 0.095791 0
0.614456 0.0949517 0
0.624379 0.0940362 0
0.634296 0.0930447 0
0.644204 0.0919773 0
0.654104 0.0908339 0
0.663994 0.0896146 0
0.673875 0.0883196 0
0.683746 0.0869488 0
0.693606 0.0855025 0
0.703455 0.0839806 0
0.713292 0.0823832 0
0.723116 0.0807105 0
0.732927 0.0789625 0
0.742724 0.0771393 0
0.752508 0.0752411 0
0.762276 0.073268 0
0.772029 0.07122 0
0.781766 0.0690974 0
0.791486 0.0669001 0
0.801189 0.0646285 0
0.810875 0.0622825 0
0.820542 0.0598623 0
0.83019 0.0573681 0
0.839819 0.0547999 0
0.849428 0.0521581 0
0.859017 0.0494427 0
0.868584 0.0466538 0
0.87813 0.0437917 0
0.887653 0.0408565 0
0.897154 0.0378484 0
0.906631 0.0347675 0
0.916085 0.0316141 0
0.925514 0.0283883 0
0.934918 0.0250903 0
0.944297 0.0217203 0
0.953649 0.0182786 0
0.962975 0.0147652 0
0.972273 0.0111804 0
0.981544 0.00752451 0
0.990786 0.00379763 0
-1 0.951882 0.1
-1 0.905617 0.1
-1 0.861133 0.1
-1 0.818361 0.1
-1 0.777235 0.1
-1 0.737692 0.1
-1 0.699672 0.1
-1 0.663115 0.1
-1 0.627966 0.1
-1 0.594169 0.1
-1 0.561674 0.1
-1 0.530429 0.1
-1 0.500387 0.1
-1 0.471502 0.1
-1 0.443728 0.1
-1 0.417024 0.1
-1 0.391347 0.1
-1 0.366659 0.1
-1 0.342921 0.1
-1 0.320097 0.1
-1 0.298152 0.1
-1 0.277051 0.1
-1 0.256763 0.1
-1 0.237256 0.1
-1 0.218499 0.1
-1 0.200465 0.1
-1 0.183124 0.1
-1 0.166452 0.1
-1 0.150421 0.1
-1 0.135007 0.1
-1 0.120186 0.1
-1 0.105936 0.1
-1 0.092235 0.1
-1 0.079061 0.1
-1 0.066394 0.1
-1 0.0542147 0.1
-1 0.0425043 0.1
-1 0.0312446 0.1
-1 0.0204183 0.1
-1 0.0100088 0.1
-0.99 0 0.1
-0.98 0 0.1
-0.97 0 0.1
-0.96 0 0.1
-0.95 0 0.1
-0.94 0 0.1
-0.93 0 0.1
-0.92 0 0.1
-0.91 0 0.1
-0.9 0 0.1
-0.89 0 0.1
-0.88 0 0.1
-0.87 0 0.1
-0.86 0 0.1
-0.85 0 0.1
-0.84 0 0.1
-0.83 0 0.1
-0.82 0 0.1
-0.81 0 0.1
-0.8 0 0.1
-0.79 0 0.1
-0.78 0 0.1
-0.77 0 0.1
-0.76 0 0.1
-0.75 0 0.1
-0.74 0 0.1
-0.73 0 0.1
-0.72 0 0.1
-0.71 0 0.1
-0.7 0 0.1
-0.69 0 0.1
-0.68 0 0.1
-0.67 0 0.1
-0.66 0 0.1
-0.65 0 0.1
-0.64 0 0.1
-0.63 0 0.1
-0.62 0 0.1
-0.61 0 0.1
-0.6 0 0.1
-0.59 0 0.1
-0.58 0 0.1
-0.57 0 0.1
-0.56 0 0.1
-0.55 0 0.1
-0.54 0 0.1
-0.53 0 0.1
-0.52 0 0.1
-0.51 0 0.1
-0.5 0 0.1
-0.49 0 0.1
-0.48 0 0.1
-0.47 0 0.1
-0.46 0 0.1
-0.45 0 0.1
-0.44 0 0.1
-0.43 0 0.1
-0.42 0 0.1
-0.41 0 0.1
-0.4 0 0.1
-0.39 0 0.1
-0.38 0 0.1
-0.37 0 0.1
-0.36 0 0.1
-0.35 0 0.1
-0.34 0 0.1
-0.33 0 0.1
-0.32 0 0.1
-0.31 0 0.1
-0.3 0 0.1
-0.29 0 0.1
-0.28 0 0.1
-0.27 0 0.1
-0.26 0 0.1
-0.25 0 0.1
-0.24 0 0.1
-0.23 0 0.1
-0.22 0 0.1
-0.21 0 0.1
-0.2 0 0.1
-0.19 0 0.1
-0.18 0 0.1
-0.17 0 0.1
-0.16 0 0.1
-0.15 0 0.1
-0.14 0 0.1
-0.13 0 0.1
-0.12 0 0.1
-0.11 0 0.1
-0.1 0 0.1
-0.09 0 0.1
-0.08 0 0.1
-0.07 0 0.1
-0.06 0 0.1
-0.05 0 0.1
-0.04 0 0.1
-0.03 0 0.1
-0.02 0 0.1
-0.01 0 0.1
0.00921362 0.00379763 0.1
0.0184561 0.00752451 0.1
0.0277268 0.0111804 0.1
0.0370253 0.0147652 0.1
0.0463511 0.0182786 0.1
0.0557034 0.0217203 0.1
0.0650819 0.0250903 0.1
0.074486 0.0283883 0.1
0.083915 0.0316141 0.1
0.0933685 0.0347675 0.1
0.102846 0.0378484 0.1
0.112347 0.0408565 0.1
0.12187 0.0437917 0.1
0.131416 0.0466538 0.1
0.140983 0.0494427 0.1
0.150572 0.0521581 0.1
0.160181 0.0547999 0.1
0.16981 0.0573681 0.1
0.179458 0.0598623 0.1
0.189125 0.0622825 0.1
0.198811 0.0646285 0.1
0.208514 0.0669001 0.1
0.218234 0.0690974 0.1
0.227971 0.07122 0.1
0.237724 0.073268 0.1
0.247493 0.0752411 0.1
0.257276 0.0771393 0.1
0.267073 0.0789625 0.1
0.276884 0.0807105 0.1
0.286708 0.0823832 0.1
0.296545 0.0839806 0.1
0.306394 0.0855025 0.1
0.316254 0.0869488 0.1
0.326125 0.0883196 0.1
0.336006 0.0896146 0.1
0.345896 0.0908339 0.1
0.355796 0.0919773 0.1
0.365704 0.0930447 0.1
0.375621 0.0940362 0.1
0.385544 0.0949517 0.1
0.395474 0.095791 0.1
0.40541 0.0965542 0.1
0.415352 0.0972412 0.1
0.425299 0.097852 0.1
0.43525 0.0983865 0.1
0.445205 0.0988447 0.1
0.455164 0.0992266 0.1
0.465125 0.0995321 0.1
0.475088 0.0997613 0.1
0.485052 0.0999141 0.1
0.495017 0.0999904 0.1
0.504983 0.0999904 0.1
0.514948 0.0999141 0.1
0.524912 0.0997613 0.1
0.534875 0.0995321 0.1
0.544836 0.0992266 0.1
0.554795 0.0988447 0.1
0.56475 0.0983865 0.1
0.574701 0.097852 0.1
0.584648 0.0972412 0.1
0.59459 0.0965542 0.1
0.604526 0.095791 0.1
0.614456 0.0949517 0.1
0.624379 0.0940362 0.1
0.634296 0.0930447 0.1
0.644204 0.0919773 0.1
0.654104 0.0908339 0.1
0.663994 0.0896146 0.1
0.673875 0.0883196 0.1
0.683746 0.0869488 0.1
0.693606 0.0855025 0.1
0.703455 0.0839806 0.1
0.713292 0.0823832 0.1
0.723116 0.0807105 0.1
0.732927 0.0789625 0.1
0.742724 0.0771393 0.1
0.752508 0.0752411 0.1
0.762276 0.073268 0.1
0.772029 0.07122 0.1
0.781766 0.0690974 0.1
0.791486 0.0669001 0.1
0.801189 0.0646285 0.1
0.810875 0.0622825 0.1
0.820542 0.0598623 0.1
0.83019 0.0573681 0.1
0.839819 0.0547999 0.1
0.849428 0.0521581 0.1
0.859017 0.0494427 0.1
0.868584 0.0466538 0.1
0.87813 0.0437917 0.1
0.887653 0.0408565 0.1
0.897154 0.0378484 0.1
0.906631 0.0347675 0.1
0.916085 0.0316141 0.1
0.925514 0.0283883 0.1
0.934918 0.0250903 0.1
0.944297 0.0217203 0.1
0.953649 0.0182786 0.1
0.962975 0.0147652 0.1
0.972273 0.0111804 0.1
0.981544 0.00752451 0.1
0.990786 0.00379763 0.1
1.01 0 0.1
1.02 0 0.1
1.03 0 0.1
[...]
CELL_DATA 14313
SCALARS rho float
LOOKUP_TABLE default
0.781688
0.824469
0.806027
0.538976
0.766877
0.812279
0.812907
0.812798
0.811119
0.815317
0.812514
0.798985
0.797464
0.520244
0.813259
0.83215
0.808951
0.80783
0.810461
0.805485
0.81118
0.814107
0.812842
0.766621
0.812461
0.814821
0.742817
0.70903
0.823979
0.824619
0.812357
0.794604
0.799917
0.812432
0.80479
0.811053
0.680608
0.809084
0.81202
0.802555
0.752992
0.810845
0.54316
0.70277
0.817943
0.835902
0.811273
0.77767
0.804724
0.851744
0.676309
0.653904
0.591531
0.810966
0.819962
0.7829
0.817929
0.81487
0.810907
0.812736
0.812382
0.81872
0.794581
0.839382
0.810805
0.813689
0.853508
0.784124
0.840779
0.813251
0.798422
0.831715
0.489939
0.837424
0.727136
0.807297
0.825128
0.747495
0.696968
0.811837
0.592764
0.824971
0.83332
0.803543
0.805909
0.819592
0.81226
0.804575
0.826773
0.807119
0.780142
0.525513
0.807479
0.798349
0.727079
0.803883
0.814995
0.80936
0.803378
0.491499
0.807347
0.810054
0.812875
0.814466
0.748879
0.809446
0.802847
0.700067
0.834683
0.810376
0.813978
0.825146
0.812453
0.819624
0.804241
0.827662
0.820111
0.83644
0.778984
0.799199
0.811979
0.809418
0.859562
0.72193
0.84401
0.753991
0.789926
0.804575
0.815006
0.843526
0.809845
0.81239
0.860858
0.812671
0.823542
0.782865
0.807193
0.792405
0.81798
0.817643
0.812906
0.817058
0.803404
0.803472
0.796692
0.839258
0.806033
0.761056
0.795822
0.81767
0.79762
0.80359
0.812844
0.709703
0.821464
0.803772
0.723543
0.821387
0.81246
0.81202
0.818737
0.808866
0.651042
0.757902
0.823387
0.824897
0.714938
0.813033
0.828273
0.815914
0.689454
0.816357
0.713505
0.788286
0.80928
0.826607
0.8085
0.815686
0.821238
0.742346
0.811801
0.809913
0.773838
0.771782
0.790678
0.811283
0.813245
0.797141
0.498543
0.787551
0.758059
0.743513
0.770433
0.714826
0.812709
0.815265
0.807439
0.803454
0.806478
0.817146
0.760518
0.803082
0.828746
0.815217
0.833678
0.803386
0.816699
0.814354
0.812412
0.834765
0.804449
0.811486
0.796259
0.701425
0.814426
0.821046
0.81
0.80762
0.834743
0.803246
0.802793
0.819383
0.80639
0.8555
0.809903
0.803271
0.818264
0.802574
0.812799
0.757659
0.63983
0.815218
0.698018
0.827126
0.802493
0.722443
0.812357
0.814396
0.815216
0.826776
0.791853
0.70916
0.748322
0.59763
0.81538
0.724255
0.799696
0.807237
0.837924
0.815574
0.576251
0.804134
0.72939
0.83756
0.801654
0.695474
0.811674
0.827305
0.814968
0.558776
0.813379
0.801599
0.799284
0.806364
0.788705
0.774222
0.81586
0.815671
0.531775
0.815003
0.814156
0.772432
0.802162
0.812495
0.780731
0.817585
0.783459
0.71002
0.802961
0.805908
0.568703
0.544774
0.756828
0.808352
0.820762
0.790254
0.812144
0.815192
0.776319
0.806099
0.803564
0.817039
0.829737
0.793508
0.808392
0.812037
0.633993
0.819126
0.701587
0.797672
0.793419
0.777786
0.835841
0.809474
0.797087
0.677424
0.669283
0.80392
0.806147
0.819807
0.804306
0.798795
0.652768
0.815488
0.822345
0.818274
0.812516
0.813272
0.799835
0.791235
0.814567
0.577477
0.808372
0.812675
0.814804
0.813003
0.765743
0.821821
0.801722
0.814604
0.813456
0.754017
0.753028
0.803424
0.803503
0.600844
0.812885
0.812407
0.807571
0.812222
0.803629
0.801028
0.728802
0.712507
0.814776
0.748771
0.758565
0.818844
0.837711
0.814581
0.802653
0.808583
0.812711
0.803537
0.817403
0.782999
0.817335
0.811931
0.811174
0.795426
0.810858
0.792514
0.812313
0.590566
0.799967
0.800798
0.812408
0.813714
0.768009
0.801727
0.81266
0.812873
0.818376
0.770456
0.818462
0.808674
0.753218
0.761933
0.812998
0.80618
0.82946
0.82503
0.823436
0.804741
0.596755
0.779424
0.601842
0.80347
0.803065
0.801174
0.814658
0.874165
0.527673
0.595216
0.838536
0.872129
0.812251
0.690703
0.802488
0.717759
0.807202
0.816184
0.707502
0.651655
0.751635
0.81333
0.481513
0.873697
0.82468
0.798879
0.808935
0.481767
0.740613
0.782081
0.817947
0.805117
0.801037
0.830509
0.81277
0.706469
0.685879
0.801759
0.806244
0.809784
0.812066
0.80893
0.812391
0.736209
0.791353
0.797316
0.802684
0.764515
0.818021
0.808018
0.813289
0.812101
0.755788
0.805679
0.804131
0.79363
0.812604
0.816027
0.807293
0.658297
0.787668
0.817797
0.812957
0.812633
0.807498
0.813117
0.804591
0.821459
0.821819
0.638859
0.85534
0.74445
0.820943
0.805295
0.746655
0.824723
0.800962
0.825762
0.549737
0.799894
0.680103
0.812467
0.809378
0.524496
0.800414
0.804755
0.798131
0.802235
0.801059
0.772646
0.812326
0.594202
0.805899
0.80624
0.799704
0.818661
0.765367
0.812462
0.809805
0.798318
0.81659
0.796947
0.802947
0.81279
0.634892
0.769678
0.734618
0.492486
0.825035
0.569525
0.802722
0.819165
0.856802
0.704765
0.740555
0.812601
0.806247
0.801379
0.794093
0.766444
0.811339
0.812852
0.797344
0.813538
0.816759
0.477247
0.812802
0.813677
0.806426
0.810583
0.605739
0.815551
0.821861
0.707492
0.788979
0.813591
0.801116
0.828635
0.831544
0.804138
0.742465
0.476043
0.814266
0.572198
0.799223
0.803357
0.774673
0.812499
0.750955
0.811772
0.806729
0.80339
0.488291
0.814654
0.827719
0.830854
0.815033
0.80354
0.80327
0.812835
0.758738
0.847543
0.83755
0.710991
0.799101
0.654098
0.778305
0.668357
0.816408
0.836606
0.799364
0.639477
0.76634
0.814081
0.824751
0.832824
0.813908
0.673334
0.53918
0.805069
0.816275
0.801781
0.816336
0.805046
0.77191
0.851893
0.8156
0.804096
0.817112
0.799114
0.744031
0.798413
0.811863
0.597721
0.68971
0.803409
0.811235
0.804893
0.576145
0.812027
0.605656
0.812855
0.767922
0.817195
0.816672
0.753559
0.806926
0.792751
0.805218
0.837484
0.837702
0.83152
0.804854
0.816507
0.580913
0.812885
0.85698
0.825315
0.829566
0.804281
0.821111
0.799759
0.84002
0.808926
0.814541
0.674213
0.633016
0.836002
0.813785
0.840869
0.716941
0.801682
0.763855
0.797666
0.80975
0.793502
0.807427
0.813511
0.823021
0.828394
0.83036
0.805506
0.750253
0.804481
0.73066
0.793616
0.821814
0.801272
0.815221
0.758771
0.805158
0.804823
0.847196
0.809478
0.803426
0.806459
0.834566
0.831599
0.803627
0.856501
0.796193
0.820402
0.664056
0.80321
0.800342
0.799237
0.831998
0.609619
0.806426
0.80563
0.659615
0.814973
0.829623
0.814255
0.803411
0.806224
0.802602
0.816445
0.79931
0.719671
0.515304
0.813817
0.806027
0.80211
0.804726
0.803356
0.803773
0.811169
0.798505
0.814137
0.584337
0.813229
0.809511
0.812349
0.842568
0.814132
0.834573
0.811895
0.798101
0.813232
0.682989
0.803815
0.850869
0.813264
0.793156
0.814589
0.634712
0.805663
0.570834
0.665104
0.67503
0.809655
0.815881
0.812556
0.499331
0.695038
0.803525
0.831067
0.747772
0.832024
0.805228
0.805156
0.797125
0.69856
0.751923
0.549163
0.802916
0.812173
0.804754
0.82113
0.670495
0.643133
0.854784
0.801988
0.81444
0.730326
0.81397
0.528004
0.821167
0.704854
0.814253
0.817866
0.801873
0.802401
0.825485
0.795173
0.803698
0.804277
0.632139
0.806733
0.654617
0.799264
0.798645
0.814145
0.815487
0.729611
0.815762
0.755586
0.80322
0.720611
0.805455
0.745718
0.672122
0.824858
0.812862
0.799535
0.727126
0.81181
0.659172
0.81133
0.803009
0.727462
0.826173
0.816728
0.639858
0.696599
0.8261
0.803698
0.726375
0.833996
0.835001
0.836387
0.812257
0.549552
0.751472
0.821256
0.82066
0.525819
0.640766
0.816051
0.812919
0.723248
0.778659
0.812542
0.807425
0.758557
0.812639
0.813929
0.803604
0.72994
0.802336
0.79731
0.81247
0.578279
0.805647
0.82212
0.57532
0.818511
0.845917
0.812516
0.677206
0.81224
0.812076
0.812342
0.801228
0.819077
0.803382
0.806784
0.804928
0.803347
0.813928
0.491885
0.81027
0.810065
0.693785
0.604862
0.786315
0.798759
0.812577
0.753279
0.571704
0.811913
0.783919
0.812552
0.821833
0.813917
0.82541
0.748732
0.592738
0.812034
0.839475
0.812512
0.707504
0.803838
0.727849
0.813571
0.811493
0.812422
0.817728
0.801367
0.81351
0.808486
0.757527
0.816602
0.813087
0.752291
0.792071
0.712027
0.562992
0.734425
0.78198
0.816182
0.811805
0.811139
0.811001
0.803334
0.795755
0.80816
0.70564
0.753334
0.81208
0.803497
0.804916
0.818524
0.605873
0.813986
0.803951
0.843749
0.80829
0.638009
0.79385
0.803926
0.84266
0.692634
0.563623
0.578144
0.635993
0.81796
0.804647
0.562309
0.588084
0.820302
0.812667
0.889388
0.80488
0.829666
0.812892
0.769455
0.811258
0.81304
0.81257
0.811095
0.812517
0.79848
0.812582
0.64573
0.816105
0.803674
0.810018
0.756496
0.817528
0.611692
0.856232
0.803982
0.827287
0.812514
0.808098
0.74781
0.822695
0.812344
0.837602
0.812296
0.812946
0.643266
0.827043
0.810653
0.812841
0.836807
0.822897
0.555111
0.796909
0.803249
0.811329
0.817122
0.803992
0.800539
0.815606
0.765554
0.80541
0.816241
0.863602
0.831433
0.589101
0.796426
0.754554
0.814444
0.761975
0.819736
0.80494
0.806484
0.812708
0.789437
0.805963
0.815618
0.822096
0.787541
0.671541
0.73475
0.700033
0.814521
0.836429
0.83845
0.734459
0.809261
0.753858
0.611104
0.81253
0.799884
0.8123
0.803621
0.632787
0.802334
0.776806
0.73655
0.81126
0.744521
0.808055
0.816807
0.859921
0.80978
0.807228
0.740398
0.81295
0.776206
0.839611
0.88386
0.797443
0.522175
0.800151
0.609046
0.769689
0.657974
0.799264
0.497404
0.815392
0.850367
0.806023
0.811119
0.820044
0.803237
0.803274
0.697465
0.823376
0.812403
0.804214
0.806994
0.792607
0.803611
0.807167
0.630353
0.816905
0.802476
0.845746
0.808412
0.804512
0.801928
0.813381
0.813497
0.807957
0.803572
0.787896
0.812634
0.795575
0.802237
0.813688
0.77224
0.568345
0.813112
0.81851
0.804127
0.723951
0.801572
0.808063
0.803507
0.700008
0.873898
0.812117
0.817066
0.812532
0.848434
0.778513
0.812593
0.787987
0.816193
0.822363
0.66393
0.812627
0.729114
0.819181
0.719822
0.799888
0.751827
0.802943
0.635387
0.809669
0.734414
0.479084
0.820422
0.662528
0.769092
0.817583
0.812772
0.776916
0.811722
0.720318
0.638862
0.826452
0.704785
0.817071
0.767841
0.801811
0.808019
0.813685
0.652936
0.804452
0.774821
0.810078
0.812471
0.829492
0.80621
0.688365
0.755844
0.652822
0.798591
0.803408
0.812446
0.815765
0.812051
0.812021
0.809861
0.664263
0.73177
0.496603
0.698023
0.814292
0.808567
0.833233
0.809558
0.815083
0.707585
0.874816
0.815549
0.826482
0.573002
0.823188
0.812639
0.84091
0.845733
0.826774
0.830587
0.820512
0.542027
0.805833
0.815262
0.714893
0.817114
0.801706
0.812579
0.808086
0.813025
0.813072
0.767733
0.720102
0.798446
0.800661
0.573201
0.81441
0.859184
0.815681
0.661713
0.822998
0.813533
0.819866
0.835673
0.698399
0.48896
0.804922
0.840063
0.806147
0.804188
0.814602
0.801679
0.812538
0.809964
0.80032
0.804317
0.804756
0.812907
0.805636
0.806293
0.798997
0.836469
0.830947
0.853397
0.813316
0.807793
0.814843
0.813401
0.812543
0.811454
0.815925
0.83417
0.808699
0.811535
0.60378
0.830794
0.707943
0.868315
0.803691
0.83347
0.799435
0.786299
0.786104
0.739818
0.821662
0.811085
0.811932
0.813789
0.776139
0.808288
0.585344
0.806171
0.81341
0.813549
0.795838
0.812513
0.61185
0.783731
0.559469
0.821071
0.797339
0.774874
0.802399
0.814065
0.812868
0.812898
0.737344
0.808666
0.812385
0.810846
0.803714
0.803893
0.747066
0.767847
0.8097
0.803783
0.698504
0.599057
0.491997
0.841237
0.806148
0.778932
0.781451
0.824454
0.803619
0.804014
0.818376
0.7795
0.756975
0.816516
0.807941
0.811574
0.837399
0.804969
0.812211
0.808351
0.485913
0.803506
0.812358
0.774104
0.819735
0.814597
0.825886
0.602417
0.709742
0.574521
0.828472
0.815955
0.743863
0.81198
0.677475
0.814146
0.810988
0.812366
0.803469
0.811996
0.578002
0.687347
0.806479
0.81371
0.793826
0.801688
0.831255
0.79912
0.803187
0.645029
0.808129
0.812428
0.804417
0.812704
0.802769
0.618277
0.814687
0.812817
0.57365
0.69936
0.793551
0.828711
0.699114
0.804075
0.793814
0.812592
0.756621
0.685596
0.810901
0.796042
0.799792
0.76661
0.542437
0.820543
0.674237
0.748364
0.730984
0.804022
0.797765
0.811924
0.661483
0.767919
0.804053
0.81537
0.593527
0.79933
0.825954
0.807554
0.541113
0.805691
0.78365
0.709047
0.707809
0.8005
0.819461
0.813422
0.80906
0.701675
0.740093
0.64224
0.832585
0.843068
0.817233
0.788351
0.865353
0.698568
0.813758
0.767155
0.790458
0.795689
0.812442
0.804048
0.812056
0.787191
0.755809
0.820082
0.797193
0.84235
0.719835
0.791493
0.805606
0.723731
0.803595
0.814868
0.577062
0.802027
0.799374
0.802821
0.82151
0.76471
0.800325
0.723172
0.812604
0.808927
0.72577
0.812605
0.816564
0.828935
0.805716
0.787433
0.798121
0.80582
0.725909
0.812896
0.801674
0.67865
0.807079
0.78055
0.832125
0.821131
0.819331
0.839543
0.848961
0.700917
0.814126
0.795846
0.787505
0.618307
0.817239
0.804063
0.812681
0.776606
0.853635
0.833021
0.782046
0.842573
0.779996
0.800698
0.772337
0.812672
0.722256
0.636594
0.844402
0.662197
0.792932
0.839914
0.812877
0.672163
0.809336
0.75231
0.804088
0.799108
0.781793
0.804224
0.801571
0.802896
0.801993
0.785835
0.812482
0.781772
0.816635
0.807612
0.71391
0.78418
0.815317
0.812899
0.805589
0.565218
0.825384
0.813241
0.812485
0.705467
0.804917
0.801361
0.801809
0.816274
0.746271
0.816356
0.80096
0.804897
0.755848
0.811945
0.812863
0.806298
0.769395
0.808388
0.813379
0.80814
0.816121
0.808697
0.806145
0.823251
0.804672
0.789081
0.806656
0.812648
0.81833
0.779234
0.704143
0.814178
0.81232
0.801177
0.743148
0.788998
0.654803
0.803419
0.541799
0.803225
0.814818
0.775195
0.834845
0.519036
0.809897
0.738909
0.810955
0.535809
0.804746
0.828393
0.813733
0.819084
0.73516
0.841175
0.55558
0.823796
0.703821
0.800039
0.48392
0.670585
0.812994
0.812533
0.742388
0.801409
0.821124
0.612853
0.82226
0.770835
0.833766
0.812539
0.814566
0.813563
0.803884
0.837497
0.811041
0.803842
0.479453
0.803173
0.843714
0.802451
0.801764
0.767949
0.805865
0.812463
0.81262
0.79706
0.734771
0.810844
0.815882
0.60386
0.804263
0.545941
0.816044
0.542101
0.812477
0.77084
0.683405
0.733112
0.783165
0.713918
0.842071
0.813906
0.797201
0.804074
0.703942
0.802633
0.789789
0.80256
0.815272
0.802108
0.730641
0.700063
0.801102
0.772644
0.520576
0.81168
0.665802
0.79428
0.7041
0.825308
0.809901
0.825368
0.810488
0.8376
0.807673
0.582483
0.829619
0.807429
0.802044
0.815825
0.812469
0.813027
0.814719
0.825433
0.81677
0.619412
0.804824
0.800721
0.813338
0.692776
0.802394
0.823783
0.756797
0.689225
0.807834
0.690266
0.73222
0.810486
0.813158
0.669272
0.841695
0.767391
0.805465
0.796913
0.810287
0.844717
0.801195
0.541377
0.815291
0.705774
0.604219
0.77819
0.758798
0.769947
0.81267
0.803541
0.816702
0.812513
0.586784
0.787605
0.831899
0.812573
0.592414
0.723035
0.63706
0.817037
0.810914
0.691524
0.804068
0.812623
0.799821
0.834828
0.607939
0.840587
0.740114
0.812413
0.812929
0.67184
0.812966
0.720051
0.79213
0.715346
0.812329
0.784916
0.635029
0.724749
0.713598
0.833382
0.809877
0.819677
0.822368
0.803376
0.808664
0.803322
0.817938
0.803361
0.68909
0.803587
0.604357
0.777167
0.807267
0.802772
0.812642
0.824583
0.803346
0.718449
0.707545
0.668221
0.790723
0.817074
0.748731
0.585945
0.752016
0.810749
0.801936
0.760616
0.803987
0.823384
0.753635
0.569915
0.703358
0.799112
0.812642
0.864459
0.81513
0.812263
0.852002
0.800073
0.801968
0.814815
0.812726
0.805756
0.718476
0.809257
0.696656
0.862409
0.779162
0.813862
0.58198
0.796965
0.530717
0.584213
0.590518
0.808339
0.803666
0.809683
0.758823
0.803588
0.53411
0.782712
0.803449
0.735418
0.814733
0.802125
0.81623
0.843105
0.58182
0.812417
0.802133
0.810079
0.816888
0.813322
0.812816
0.754727
0.797633
0.798942
0.803278
0.798067
0.811152
0.846012
0.81893
0.724527
0.804784
0.618807
0.813643
0.812552
0.587969
0.767278
0.767341
0.538227
0.784739
0.803698
0.878394
0.798835
0.813505
0.755846
0.794574
0.797519
0.809627
0.782928
0.543585
0.708591
0.681136
0.781322
0.815021
0.803025
0.822015
0.790422
0.802235
0.813249
0.798549
0.852349
0.706597
0.812362
0.78095
0.53278
0.523251
0.81336
0.803609
0.80554
0.561748
0.797088
0.803802
0.659835
0.81416
0.791053
0.806974
0.815218
0.5475
0.723829
0.720138
0.812917
0.832613
0.631348
0.79002
0.715829
0.814035
0.827542
0.779714
0.773632
0.53751
0.811979
0.802444
0.724143
0.852803
0.805895
0.724183
0.740336
0.764373
0.811315
0.56456
0.796822
0.738
0.800403
0.822385
0.718839
0.79966
0.812141
0.717023
0.813158
0.706623
0.81639
0.79869
0.759542
0.692218
0.8093
0.800104
0.813818
0.670284
0.805448
0.805289
0.812103
0.700117
0.812643
0.808874
0.831996
0.671117
0.815901
0.741236
0.812436
0.806212
0.842448
0.80375
0.819293
0.749386
0.815599
0.839053
0.833113
0.81676
0.846303
0.75236
0.848399
0.826469
0.804295
0.825984
0.805792
0.647357
0.778499
0.814359
0.747392
0.696446
0.798903
0.804567
0.684293
0.797889
0.539559
0.849158
0.69836
0.706878
0.814008
0.774821
0.807218
0.799063
0.807272
0.803951
0.812497
0.836259
0.7312
0.772555
0.58965
0.810536
0.777222
0.81118
0.805187
0.571198
0.802966
0.802565
0.807953
0.799134
0.817127
0.808252
0.707863
0.823465
0.848612
0.685139
0.744207
0.812669
0.801357
0.713797
0.814694
0.754968
0.796946
0.80301
0.805494
0.837415
0.669568
0.722489
0.800871
0.702833
0.772843
0.832407
0.533565
0.692245
0.799662
0.804359
0.803399
0.74169
0.822721
0.807326
0.803716
0.808244
0.813757
0.696658
0.651188
0.80978
0.814248
0.799721
0.872373
0.803055
0.812854
0.799133
0.81038
0.811637
0.808517
0.654638
0.814886
0.816985
0.803498
0.802307
0.799886
0.618161
0.810137
0.810998
0.812914
0.863006
0.814849
0.801621
0.483556
0.836678
0.695155
0.826715
0.806233
0.813965
0.824484
0.809621
0.81256
0.732099
0.552758
0.49502
0.812818
0.809429
0.536143
0.795733
0.814915
0.833694
0.506379
0.809748
0.813874
0.802661
0.809252
0.532825
0.813578
0.808364
0.561292
0.81271
0.815684
0.540593
0.809279
0.813132
0.776188
0.806676
0.811454
0.810039
0.799481
0.826196
0.535412
0.830706
0.815956
0.804129
0.742738
0.786529
0.811871
0.809582
0.802613
0.816311
0.800779
0.659804
0.806618
0.645125
0.812503
0.660644
0.74697
0.797104
0.718875
0.803574
0.580746
0.849951
0.812714
0.812803
0.799772
0.802862
0.803203
0.813812
0.814805
0.670828
0.719157
0.727372
0.815212
0.722829
0.597096
0.817717
0.784094
0.82817
0.812135
0.809538
0.73304
0.538217
0.798863
0.79047
0.49894
0.814296
0.81348
0.736055
0.806082
0.768915
0.608938
0.810378
0.81483
0.789038
0.61073
0.802423
0.78322
0.82668
0.81345
0.810924
0.812023
0.813312
0.714224
0.800401
0.816161
0.697185
0.483295
0.734057
0.798912
0.731739
0.813485
0.798594
0.805651
0.782821
0.867495
0.803574
0.801773
0.826088
0.859527
0.804691
0.816068
0.794778
0.816323
0.78937
0.744488
0.812072
0.804338
0.816627
0.803294
0.791251
0.843051
0.766375
0.813214
0.773751
0.804045
0.643302
0.511439
0.801103
0.80231
0.810055
0.798269
0.800008
0.812465
0.773151
0.805021
0.812538
0.78257
0.817255
0.777211
0.594726
0.805153
0.760941
0.776539
0.751033
0.763742
0.794099
0.788776
0.823235
0.787712
0.809529
0.803389
0.76562
0.815946
0.543931
0.730435
0.811019
0.814427
0.811912
0.80274
0.813284
0.810826
0.805868
0.821528
0.809798
0.783211
0.817009
0.802171
0.790914
0.79606
0.805259
0.587285
0.80371
0.792359
0.576097
0.813478
0.807348
0.806129
0.810875
0.703206
0.754655
0.821484
0.774971
0.811535
0.816741
0.720971
0.804558
0.824449
0.720792
0.79959
0.80999
0.778918
0.805113
0.837556
0.802064
0.817733
0.772908
0.80541
0.800735
0.81354
0.802634
0.798405
0.590187
0.815652
0.787199
0.806724
0.825966
0.693488
0.828877
0.820252
0.507628
0.806792
0.804527
0.801981
0.812738
0.824541
0.824406
0.804992
0.80633
0.81462
0.813538
0.803563
0.813028
0.805135
0.749638
0.71001
0.781325
0.814127
0.81252
0.776248
0.758216
0.814072
0.825229
0.81068
0.812725
0.694128
0.503007
0.747751
0.81794
0.807175
0.81666
0.844413
0.800378
0.716327
0.655877
0.800154
0.805162
0.695522
0.81316
0.673277
0.837078
0.729817
0.813291
0.895354
0.815752
0.801301
0.778179
0.811268
0.683074
0.814364
0.808666
0.791711
0.80603
0.779487
0.801146
0.810139
0.780985
0.803619
0.85228
0.777213
0.802184
0.496254
0.803498
0.694502
0.804161
0.794588
0.788703
0.784003
0.722728
0.802526
0.78859
0.844713
0.813758
0.812943
0.812298
0.89561
0.747097
0.802842
0.732038
0.803186
0.798867
0.80473
0.717705
0.801419
0.805649
0.641571
0.809076
0.74909
0.542624
0.846759
0.847577
0.750648
0.810932
0.794852
0.772489
0.732827
0.776335
0.785693
0.736722
0.80394
0.804717
0.720859
0.815746
0.805068
0.558974
0.81253
0.821933
0.813629
0.803567
0.611662
0.716532
0.80639
0.859379
0.487109
0.725384
0.806755
0.816133
0.796826
0.712715
0.712488
0.809128
0.813708
0.815446
0.837364
0.745074
0.755026
0.875891
0.807066
0.809759
0.795345
0.641046
0.60407
0.587431
0.658373
0.589071
0.76484
0.801157
0.803704
0.812743
0.809441
0.811593
0.860358
0.717163
0.824215
0.814351
0.817496
0.817056
0.814281
0.813447
0.812055
0.81249
0.661265
0.802745
0.741591