# vtk DataFile Version 1.0
unstructured grid
ascii
DATASET UNSTRUCTURED_GRID
points 14760 float
-1 0 0
-1 1 0
2 0 0
2 1 0
0 0 0
1 0 0
-1 1 0.1
-1 0 0.1
0 0 0.1
1 0 0.1
2 0 0.1
2 1 0.1
-0.99 0 0
-0.98 0 0
-0.97 0 0
-0.96 0 0
-0.95 0 0
-0.94 0 0
-0.93 0 0
-0.92 0 0
-0.91 0 0
-0.9 0 0
-0.89 0 0
-0.88 0 0
-0.87 0 0
-0.86 0 0
-0.85 0 0
-0.84 0 0
-0.83 0 0
-0.82 0 0
-0.81 0 0
-0.8 0 0
-0.79 0 0
-0.78 0 0
-0.77 0 0
-0.76 0 0
-0.75 0 0
-0.74 0 0
-0.73 0 0
-0.72 0 0
-0.71 0 0
-0.7 0 0
-0.69 0 0
-0.68 0 0
-0.67 0 0
-0.66 0 0
-0.65 0 0
-0.64 0 0
-0.63 0 0
-0.62 0 0
-0.61 0 0
-0.6 0 0
-0.59 0 0
-0.58 0 0
-0.57 0 0
-0.56 0 0
-0.55 0 0
-0.54 0 0
-0.53 0 0
-0.52 0 0
-0.51 0 0
-0.5 0 0
-0.49 0 0
-0.48 0 0
-0.47 0 0
-0.46 0 0
-0.45 0 0
-0.44 0 0
-0.43 0 0
-0.42 0 0
-0.41 0 0
-0.4 0 0
-0.39 0 0
-0.38 0 0
-0.37 0 0
-0.36 0 0
-0.35 0 0
-0.34 0 0
-0.33 0 0
-0.32 0 0
-0.31 0 0
-0.3 0 0
-0.29 0 0
-0.28 0 0
-0.27 0 0
-0.26 0 0
-0.25 0 0
-0.24 0 0
-0.23 0 0
-0.22 0 0
-0.21 0 0
-0.2 0 0
-0.19 0 0
-0.18 0 0
-0.17 0 0
-0.16 0 0
-0.15 0 0
-0.14 0 0
-0.13 0 0
-0.12 0 0
-0.11 0 0
-0.1 0 0
-0.09 0 0
-0.08 0 0
-0.07 0 0
-0.06 0 0
-0.05 0 0
-0.04 0 0
-0.03 0 0
-0.02 0 0
-0.01 0 0
1.01 0 0
1.02 0 0
1.03 0 0
1.04 0 0
1.05 0 0
1.06 0 0
1.07 0 0
1.08 0 0
1.09 0 0
1.1 0 0
1.11 0 0
1.12 0 0
1.13 0 0
1.14 0 0
1.15 0 0
1.16 0 0
1.17 0 0
1.18 0 0
1.19 0 0
1.2 0 0
1.21 0 0
1.22 0 0
1.23 0 0
1.24 0 0
1.25 0 0
1.26 0 0
1.27 0 0
1.28 0 0
1.29 0 0
1.3 0 0
1.31 0 0
1.32 0 0
1.33 0 0
1.34 0 0
1.35 0 0
1.36 0 0
1.37 0 0
1.38 0 0
1.39 0 0
1.4 0 0
1.41 0 0
1.42 0 0
1.43 0 0
1.44 0 0
1.45 0 0
1.46 0 0
1.47 0 0
1.48 0 0
1.49 0 0
1.5 0 0
1.51 0 0
1.52 0 0
1.53 0 0
1.54 0 0
1.55 0 0
1.56 0 0
1.57 0 0
1.58 0 0
1.59 0 0
1.6 0 0
1.61 0 0
1.62 0 0
1.63 0 0
1.64 0 0
1.65 0 0
1.66 0 0
1.67 0 0
1.68 0 0
1.69 0 0
1.7 0 0
1.71 0 0
1.72 0 0
1.73 0 0
1.74 0 0
1.75 0 0
1.76 0 0
1.77 0 0
1.78 0 0
1.79 0 0
1.8 0 0
1.81 0 0
1.82 0 0
1.83 0 0
1.84 0 0
1.85 0 0
1.86 0 0
1.87 0 0
1.88 0 0
1.89 0 0
1.9 0 0
1.91 0 0
1.92 0 0
1.93 0 0
1.94 0 0
1.95 0 0
1.96 0 0
1.97 0 0
1.98 0 0
1.99 0 0
2 0.0100088 0
2 0.0204183 0
2 0.0312446 0
2 0.0425043 0
2 0.0542147 0
2 0.066394 0
2 0.079061 0
2 0.092235 0
2 0.105936 0
2 0.120186 0
2 0.135007 0
2 0.150421 0
2 0.166452 0
2 0.183124 0
2 0.200465 0
2 0.218499 0
2 0.237256 0
2 0.256763 0
2 0.277051 0
2 0.298152 0
2 0.320097 0
2 0.342921 0
2 0.366659 0
2 0.391347 0
2 0.417024 0
2 0.443728 0
2 0.471502 0
2 0.500387 0
2 0.530429 0
2 0.561674 0
2 0.594169 0
2 0.627966 0
2 0.663115 0
2 0.699672 0
2 0.737692 0
2 0.777235 0
2 0.818361 0
2 0.861133 0
2 0.905617 0
2 0.951882 0
1.95 1 0
1.9 1 0
1.85 1 0
1.8 1 0
1.75 1 0
1.7 1 0
1.65 1 0
1.6 1 0
1.55 1 0
1.5 1 0
1.45 1 0
1.4 1 0
1.35 1 0
1.3 1 0
1.25 1 0
1.2 1 0
1.15 1 0
1.1 1 0
1.05 1 0
1 1 0
0.95 1 0
0.9 1 0
0.85 1 0
0.8 1 0
0.75 1 0
0.7 1 0
0.65 1 0
0.6 1 0
0.55 1 0
0.5 1 0
0.45 1 0
0.4 1 0
0.35 1 0
0.3 1 0
0.25 1 0
0.2 1 0
0.15 1 0
0.1 1 0
0.05 1 0
3.69793e-12 1 0
-0.05 1 0
-0.1 1 0
-0.15 1 0
-0.2 1 0
-0.25 1 0
-0.3 1 0
-0.35 1 0
-0.4 1 0
-0.45 1 0
-0.5 1 0
-0.55 1 0
-0.6 1 0
-0.65 1 0
-0.7 1 0
-0.75 1 0
-0.8 1 0
-0.85 1 0
-0.9 1 0
-0.95 1 0
-1 0.951882 0
-1 0.905617 0
-1 0.861133 0
-1 0.818361 0
-1 0.777235 0
-1 0.737692 0
-1 0.699672 0
-1 0.663115 0
-1 0.627966 0
-1 0.594169 0
-1 0.561674 0
-1 0.530429 0
-1 0.500387 0
-1 0.471502 0
-1 0.443728 0
-1 0.417024 0
-1 0.391347 0
-1 0.366659 0
-1 0.342921 0
-1 0.320097 0
-1 0.298152 0
-1 0.277051 0
-1 0.256763 0
-1 0.237256 0
-1 0.218499 0
-1 0.200465 0
-1 0.183124 0
-1 0.166452 0
-1 0.150421 0
-1 0.135007 0
-1 0.120186 0
-1 0.105936 0
-1 0.092235 0
-1 0.079061 0
-1 0.066394 0
-1 0.0542147 0
-1 0.0425043 0
-1 0.0312446 0
-1 0.0204183 0
-1 0.0100088 0
0.00921362 0.00379763 0
0.0184561 0.00752451 0
0.0277268 0.0111804 0
0.0370253 0.0147652 0
0.0463511 0.0182786 0
0.0557034 0.0217203 0
0.0650819 0.0250903 0
0.074486 0.0283883 0
0.083915 0.0316141 0
0.0933685 0.0347675 0
0.102846 0.0378484 0
0.112347 0.0408565 0
0.12187 0.0437917 0
0.131416 0.0466538 0
0.140983 0.0494427 0
0.150572 0.0521581 0
0.160181 0.0547999 0
0.16981 0.0573681 0
0.179458 0.0598623 0
0.189125 0.0622825 0
0.198811 0.0646285 0
0.208514 0.0669001 0
0.218234 0.0690974 0
0.227971 0.07122 0
0.237724 0.073268 0
0.247493 0.0752411 0
0.257276 0.0771393 0
0.267073 0.0789625 0
0.276884 0.0807105 0
0.286708 0.0823832 0
0.296545 0.0839806 0
0.306394 0.0855025 0
0.316254 0.0869488 0
0.326125 0.0883196 0
0.336006 0.0896146 0
0.345896 0.0908339 0
0.355796 0.0919773 0
0.365704 0.0930447 0
0.375621 0.0940362 0
0.385544 0.0949517 0
0.395474 0.095791 0
0.40541 0.0965542 0
0.415352 0.0972412 0
0.425299 0.097852 0
0.43525 0.0983865 0
0.445205 0.0988447 0
0.455164 0.0992266 0
0.465125 0.0995321 0
0.475088 0.0997613 0
0.485052 0.0999141 0
0.495017 0.0999904 0
0.504983 0.0999904 0
0.514948 0.0999141 0
0.524912 0.0997613 0
0.534875 0.0995321 0
0.544836 0.0992266 0
0.554795 0.0988447 0
0.56475 0.0983865 0
0.574701 0.097852 0
0.584648 0.0972412 0
0.59459 0.0965542 0
0.604526 0.095791 0
0.614456 0.0949517 0
0.624379 0.0940362 0
0.634296 0.0930447 0
0.644204 0.0919773 0
0.654104 0.0908339 0
0.663994 0.0896146 0
0.673875 0.0883196 0
0.683746 0.0869488 0
0.693606 0.0855025 0
0.703455 0.0839806 0
0.713292 0.0823832 0
0.723116 0.0807105 0
0.732927 0.0789625 0
0.742724 0.0771393 0
0.752508 0.0752411 0
0.762276 0.073268 0
0.772029 0.07122 0
0.781766 0.0690974 0
0.791486 0.0669001 0
0.801189 0.0646285 0
0.810875 0.0622825 0
0.820542 0.0598623 0
0.83019 0.0573681 0
0.839819 0.0547999 0
0.849428 0.0521581 0
0.859017 0.0494427 0
0.868584 0.0466538 0
0.87813 0.0437917 0
0.887653 0.0408565 0
0.897154 0.0378484 0
0.906631 0.0347675 0
0.916085 0.0316141 0
0.925514 0.0283883 0
0.934918 0.0250903 0
0.944297 0.0217203 0
0.953649 0.0182786 0
0.962975 0.0147652 0
0.972273 0.0111804 0
0.981544 0.00752451 0
0.990786 0.00379763 0
-1 0.951882 0.1
-1 0.905617 0.1
-1 0.861133 0.1
-1 0.818361 0.1
-1 0.777235 0.1
-1 0.737692 0.1
-1 0.699672 0.1
-1 0.663115 0.1
-1 0.627966 0.1
-1 0.594169 0.1
-1 0.561674 0.1
-1 0.530429 0.1
-1 0.500387 0.1
-1 0.471502 0.1
-1 0.443728 0.1
-1 0.417024 0.1
-1 0.391347 0.1
-1 0.366659 0.1
-1 0.342921 0.1
-1 0.320097 0.1
-1 0.298152 0.1
-1 0.277051 0.1
-1 0.256763 0.1
-1 0.237256 0.1
-1 0.218499 0.1
-1 0.200465 0.1
-1 0.183124 0.1
-1 0.166452 0.1
-1 0.150421 0.1
-1 0.135007 0.1
-1 0.120186 0.1
-1 0.105936 0.1
-1 0.092235 0.1
-1 0.079061 0.1
-1 0.066394 0.1
-1 0.0542147 0.1
-1 0.0425043 0.1
-1 0.0312446 0.1
-1 0.0204183 0.1
-1 0.0100088 0.1
-0.99 0 0.1
-0.98 0 0.1
-0.97 0 0.1
-0.96 0 0.1
-0.95 0 0.1
-0.94 0 0.1
-0.93 0 0.1
-0.92 0 0.1
-0.91 0 0.1
-0.9 0 0.1
-0.89 0 0.1
-0.88 0 0.1
-0.87 0 0.1
-0.86 0 0.1
-0.85 0 0.1
-0.84 0 0.1
-0.83 0 0.1
-0.82 0 0.1
-0.81 0 0.1
-0.8 0 0.1
-0.79 0 0.1
-0.78 0 0.1
-0.77 0 0.1
-0.76 0 0.1
-0.75 0 0.1
-0.74 0 0.1
-0.73 0 0.1
-0.72 0 0.1
-0.71 0 0.1
-0.7 0 0.1
-0.69 0 0.1
-0.68 0 0.1
-0.67 0 0.1
-0.66 0 0.1
-0.65 0 0.1
-0.64 0 0.1
-0.63 0 0.1
-0.62 0 0.1
-0.61 0 0.1
-0.6 0 0.1
-0.59 0 0.1
-0.58 0 0.1
-0.57 0 0.1
-0.56 0 0.1
-0.55 0 0.1
-0.54 0 0.1
-0.53 0 0.1
-0.52 0 0.1
-0.51 0 0.1
-0.5 0 0.1
-0.49 0 0.1
-0.48 0 0.1
-0.47 0 0.1
-0.46 0 0.1
-0.45 0 0.1
-0.44 0 0.1
-0.43 0 0.1
-0.42 0 0.1
-0.41 0 0.1
-0.4 0 0.1
-0.39 0 0.1
-0.38 0 0.1
-0.37 0 0.1
-0.36 0 0.1
-0.35 0 0.1
-0.34 0 0.1
-0.33 0 0.1
-0.32 0 0.1
-0.31 0 0.1
-0.3 0 0.1
-0.29 0 0.1
-0.28 0 0.1
-0.27 0 0.1
-0.26 0 0.1
-0.25 0 0.1
-0.24 0 0.1
-0.23 0 0.1
-0.22 0 0.1
-0.21 0 0.1
-0.2 0 0.1
-0.19 0 0.1
-0.18 0 0.1
-0.17 0 0.1
-0.16 0 0.1
-0.15 0 0.1
-0.14 0 0.1
-0.13 0 0.1
-0.12 0 0.1
-0.11 0 0.1
-0.1 0 0.1
-0.09 0 0.1
-0.08 0 0.1
-0.07 0 0.1
-0.06 0 0.1
-0.05 0 0.1
-0.04 0 0.1
-0.03 0 0.1
-0.02 0 0.1
-0.01 0 0.1
0.00921362 0.00379763 0.1
0.0184561 0.00752451 0.1
0.0277268 0.0111804 0.1
0.0370253 0.0147652 0.1
0.0463511 0.0182786 0.1
0.0557034 0.0217203 0.1
0.0650819 0.0250903 0.1
0.074486 0.0283883 0.1
0.083915 0.0316141 0.1
0.0933685 0.0347675 0.1
0.102846 0.0378484 0.1
0.112347 0.0408565 0.1
0.12187 0.0437917 0.1
0.131416 0.0466538 0.1
0.140983 0.0494427 0.1
0.150572 0.0521581 0.1
0.160181 0.0547999 0.1
0.16981 0.0573681 0.1
0.179458 0.0598623 0.1
0.189125 0.0622825 0.1
0.198811 0.0646285 0.1
0.208514 0.0669001 0.1
0.218234 0.0690974 0.1
0.227971 0.07122 0.1
0.237724 0.073268 0.1
0.247493 0.0752411 0.1
0.257276 0.0771393 0.1
0.267073 0.0789625 0.1
0.276884 0.0807105 0.1
0.286708 0.0823832 0.1
0.296545 0.0839806 0.1
0.306394 0.0855025 0.1
0.316254 0.0869488 0.1
0.326125 0.0883196 0.1
0.336006 0.0896146 0.1
0.345896 0.0908339 0.1
0.355796 0.0919773 0.1
0.365704 0.0930447 0.1
0.375621 0.0940362 0.1
0.385544 0.0949517 0.1
0.395474 0.095791 0.1
0.40541 0.0965542 0.1
0.415352 0.0972412 0.1
0.425299 0.097852 0.1
0.43525 0.0983865 0.1
0.445205 0.0988447 0.1
0.455164 0.0992266 0.1
0.465125 0.0995321 0.1
0.475088 0.0997613 0.1
0.485052 0.0999141 0.1
0.495017 0.0999904 0.1
0.504983 0.0999904 0.1
0.514948 0.0999141 0.1
0.524912 0.0997613 0.1
0.534875 0.0995321 0.1
0.544836 0.0992266 0.1
0.554795 0.0988447 0.1
0.56475 0.0983865 0.1
0.574701 0.097852 0.1
0.584648 0.0972412 0.1
0.59459 0.0965542 0.1
0.604526 0.095791 0.1
0.614456 0.0949517 0.1
0.624379 0.0940362 0.1
0.634296 0.0930447 0.1
0.644204 0.0919773 0.1
0.654104 0.0908339 0.1
0.663994 0.0896146 0.1
0.673875 0.0883196 0.1
0.683746 0.0869488 0.1
0.693606 0.0855025 0.1
0.703455 0.0839806 0.1
0.713292 0.0823832 0.1
0.723116 0.0807105 0.1
0.732927 0.0789625 0.1
0.742724 0.0771393 0.1
0.752508 0.0752411 0.1
0.762276 0.073268 0.1
0.772029 0.07122 0.1
0.781766 0.0690974 0.1
0.791486 0.0669001 0.1
0.801189 0.0646285 0.1
0.810875 0.0622825 0.1
0.820542 0.0598623 0.1
0.83019 0.0573681 0.1
0.839819 0.0547999 0.1
0.849428 0.0521581 0.1
0.859017 0.0494427 0.1
0.868584 0.0466538 0.1
0.87813 0.0437917 0.1
0.887653 0.0408565 0.1
0.897154 0.0378484 0.1
0.906631 0.0347675 0.1
0.916085 0.0316141 0.1
0.925514 0.0283883 0.1
0.934918 0.0250903 0.1
0.944297 0.0217203 0.1
0.953649 0.0182786 0.1
0.962975 0.0147652 0.1
0.972273 0.0111804 0.1
0.981544 0.00752451 0.1
0.990786 0.00379763 0.1
1.01 0 0.1
1.02 0 0.1
1.03 0 0.1
[...]
CELL_DATA 14313
SCALARS rho float
LOOKUP_TABLE default
0.783857
0.825875
0.806979
0.548405
0.770428
0.815276
0.815639
0.81557
0.811867
0.816408
0.815504
0.799784
0.799586
0.547403
0.815889
0.833811
0.809964
0.80867
0.813008
0.80645
0.81416
0.815157
0.815593
0.770193
0.815152
0.815907
0.74538
0.70383
0.825354
0.826386
0.815236
0.795501
0.802482
0.815124
0.80539
0.813575
0.686225
0.810087
0.814723
0.803374
0.755828
0.813811
0.552442
0.707644
0.820086
0.837161
0.813903
0.779492
0.806652
0.854735
0.68196
0.6582
0.607363
0.813489
0.821936
0.78456
0.820072
0.81596
0.811638
0.815406
0.815353
0.820844
0.795478
0.840591
0.813771
0.816214
0.856607
0.785745
0.842234
0.815881
0.799244
0.833384
0.525967
0.838881
0.734321
0.809563
0.827152
0.750007
0.700364
0.814732
0.598453
0.826735
0.8346
0.803895
0.808186
0.821659
0.815252
0.805168
0.82815
0.807988
0.781983
0.553214
0.808428
0.800575
0.7343
0.804244
0.817365
0.812172
0.804081
0.531714
0.809395
0.812786
0.815617
0.816084
0.751775
0.810302
0.803755
0.703349
0.83623
0.812919
0.814808
0.826993
0.814838
0.82169
0.804662
0.829399
0.822084
0.837915
0.780902
0.80121
0.814675
0.812249
0.860513
0.729047
0.846466
0.757727
0.792245
0.805173
0.817388
0.846007
0.812505
0.815258
0.861788
0.815451
0.825467
0.78452
0.809968
0.793583
0.820124
0.819831
0.815639
0.819119
0.803522
0.803755
0.797803
0.84075
0.806574
0.763614
0.797734
0.819855
0.800022
0.803887
0.815596
0.714245
0.823302
0.804146
0.726467
0.823394
0.815199
0.812928
0.820857
0.809711
0.674846
0.760757
0.825317
0.82687
0.720188
0.8156
0.830022
0.817858
0.694691
0.817238
0.717069
0.790659
0.811638
0.828668
0.810944
0.817296
0.823251
0.747356
0.814705
0.812572
0.77605
0.772061
0.791959
0.814182
0.815881
0.798243
0.513136
0.789603
0.761729
0.748452
0.772034
0.724305
0.815378
0.817498
0.808404
0.803788
0.808925
0.819365
0.763193
0.803894
0.830485
0.817582
0.83525
0.803689
0.817595
0.815204
0.81516
0.836053
0.806137
0.813419
0.798182
0.704707
0.816811
0.824073
0.81273
0.809364
0.836266
0.804574
0.803515
0.820352
0.808837
0.856672
0.811822
0.803976
0.820417
0.802962
0.81557
0.760357
0.664132
0.816152
0.70141
0.82891
0.802916
0.729565
0.814844
0.816776
0.817445
0.828818
0.793081
0.703043
0.752413
0.615512
0.817696
0.727167
0.802221
0.807992
0.839351
0.817522
0.584148
0.804606
0.733804
0.839098
0.803231
0.700472
0.813621
0.829044
0.817344
0.571252
0.814182
0.803177
0.801609
0.808473
0.790731
0.776429
0.816771
0.816559
0.551361
0.817385
0.816569
0.774476
0.803021
0.8155
0.782398
0.819623
0.786178
0.715601
0.803995
0.806445
0.576951
0.5537
0.760607
0.810801
0.822795
0.791545
0.815165
0.81756
0.778149
0.806918
0.803919
0.819264
0.831469
0.795754
0.809055
0.814038
0.649964
0.820597
0.713421
0.800071
0.794384
0.779607
0.837342
0.810275
0.799296
0.684563
0.676945
0.805863
0.807897
0.820809
0.804863
0.801291
0.657073
0.817791
0.823701
0.819229
0.815513
0.815719
0.802356
0.793077
0.817
0.629374
0.810966
0.815496
0.817195
0.815569
0.76852
0.823635
0.802482
0.817031
0.81587
0.754421
0.756736
0.803566
0.80363
0.688948
0.815612
0.814256
0.809304
0.814724
0.804811
0.801605
0.733143
0.716074
0.817172
0.751261
0.762295
0.821813
0.839246
0.816984
0.804303
0.809231
0.815479
0.804136
0.819605
0.785733
0.819541
0.812783
0.813875
0.79736
0.813405
0.794789
0.815247
0.596235
0.801337
0.802142
0.814389
0.815276
0.770528
0.802584
0.815451
0.815615
0.820522
0.772115
0.819502
0.810602
0.757335
0.762658
0.813797
0.808451
0.831201
0.826899
0.824788
0.806315
0.614217
0.782019
0.611525
0.804102
0.80404
0.803544
0.817009
0.875015
0.538319
0.606694
0.839958
0.872995
0.81466
0.694157
0.804528
0.726664
0.809393
0.817917
0.710623
0.656575
0.754778
0.815781
0.69492
0.874551
0.826552
0.801211
0.809779
0.557784
0.746161
0.784249
0.820118
0.806824
0.802737
0.832211
0.815551
0.712113
0.691869
0.802508
0.807154
0.812728
0.815015
0.80986
0.815362
0.740251
0.792604
0.798212
0.803413
0.767283
0.820186
0.80896
0.815909
0.81504
0.759796
0.806173
0.804476
0.795978
0.815463
0.818016
0.809411
0.665053
0.789103
0.819619
0.813786
0.814861
0.808254
0.815601
0.807279
0.823258
0.823654
0.689943
0.856514
0.746988
0.822968
0.807379
0.74592
0.826131
0.801453
0.827592
0.5584
0.802476
0.686231
0.815424
0.810227
0.544705
0.802073
0.805352
0.798991
0.803275
0.803429
0.775041
0.815273
0.605497
0.806809
0.806992
0.801578
0.820707
0.767905
0.815413
0.812588
0.800684
0.81884
0.799193
0.803328
0.815561
0.639542
0.772097
0.738803
0.508302
0.826904
0.57853
0.803487
0.821264
0.857956
0.713239
0.746098
0.815459
0.806991
0.802955
0.796427
0.76964
0.813969
0.815605
0.799772
0.816106
0.81825
0.694126
0.815461
0.816202
0.807051
0.813549
0.615289
0.817749
0.823805
0.717733
0.790349
0.816152
0.801692
0.831687
0.83288
0.804537
0.74238
0.620476
0.81667
0.579606
0.801372
0.803514
0.775104
0.815501
0.754343
0.814633
0.807718
0.803556
0.504561
0.817012
0.829488
0.832556
0.816668
0.803854
0.803496
0.815519
0.759388
0.848823
0.840482
0.720346
0.801115
0.65844
0.780161
0.673496
0.818391
0.840156
0.801906
0.65014
0.76955
0.816559
0.826615
0.834276
0.815557
0.689757
0.549304
0.806779
0.818486
0.803349
0.818324
0.806954
0.773924
0.8548
0.817804
0.80444
0.819262
0.799867
0.743736
0.800914
0.813714
0.605145
0.693202
0.804073
0.814208
0.80537
0.582938
0.814688
0.611018
0.815605
0.770229
0.819026
0.818851
0.754267
0.809126
0.794895
0.805675
0.839782
0.841194
0.832828
0.805336
0.818762
0.589698
0.815606
0.858134
0.826721
0.831276
0.804709
0.823087
0.80121
0.841236
0.809931
0.81552
0.684003
0.64875
0.837576
0.81631
0.84206
0.723363
0.803281
0.766379
0.799828
0.810787
0.795632
0.809673
0.816096
0.824966
0.830112
0.832077
0.806148
0.750533
0.806688
0.738143
0.796096
0.82359
0.802447
0.816236
0.762106
0.805825
0.806523
0.848479
0.811832
0.803537
0.808083
0.836174
0.833082
0.80386
0.857659
0.798581
0.822411
0.67852
0.803428
0.801045
0.801718
0.833671
0.614854
0.807067
0.806131
0.666417
0.81736
0.831335
0.816712
0.803555
0.807146
0.803302
0.818649
0.801796
0.715017
0.526539
0.81635
0.808323
0.80323
0.805694
0.804688
0.804411
0.813824
0.800996
0.816623
0.591118
0.815703
0.810214
0.815127
0.843856
0.816605
0.836244
0.814846
0.800352
0.815875
0.686523
0.804422
0.854473
0.8159
0.794129
0.816991
0.639741
0.806628
0.604766
0.681187
0.684904
0.810344
0.818121
0.813364
0.513863
0.698479
0.803813
0.832756
0.750366
0.83484
0.805684
0.807767
0.799487
0.69824
0.755947
0.561551
0.803551
0.815188
0.806456
0.82272
0.674344
0.690328
0.857829
0.803545
0.816855
0.737848
0.816479
0.538608
0.823145
0.698718
0.816706
0.819932
0.802609
0.803419
0.827345
0.796986
0.804369
0.806503
0.63725
0.807695
0.663684
0.801416
0.801139
0.816629
0.816463
0.732611
0.817919
0.755297
0.803504
0.716828
0.807172
0.746538
0.675929
0.826721
0.815605
0.802068
0.731729
0.813473
0.6639
0.813743
0.803379
0.724508
0.82801
0.818911
0.654623
0.700024
0.827941
0.80395
0.730946
0.835607
0.8366
0.837954
0.815234
0.558244
0.753984
0.822705
0.822661
0.587535
0.645419
0.817762
0.815642
0.731311
0.780489
0.815471
0.809517
0.762292
0.815321
0.816444
0.803804
0.736862
0.803037
0.799655
0.8147
0.586852
0.806168
0.824093
0.582061
0.820558
0.849429
0.815502
0.680834
0.815191
0.814747
0.815262
0.801703
0.821182
0.804327
0.807458
0.805411
0.803522
0.81637
0.687298
0.812473
0.811558
0.704609
0.615626
0.787822
0.801253
0.815473
0.753899
0.627696
0.814747
0.786398
0.815473
0.823782
0.816418
0.827272
0.751186
0.608988
0.815015
0.841358
0.8155
0.698204
0.805948
0.731142
0.816068
0.813916
0.81542
0.819896
0.802169
0.816095
0.809277
0.758008
0.818707
0.815763
0.755454
0.793257
0.719199
0.600446
0.739614
0.784485
0.818307
0.814666
0.812988
0.813441
0.803516
0.797973
0.80879
0.696845
0.753544
0.814988
0.803836
0.805403
0.819522
0.616825
0.816479
0.804345
0.844996
0.810882
0.648545
0.795027
0.804458
0.843831
0.703444
0.575056
0.58539
0.640644
0.820012
0.805643
0.575041
0.607037
0.822355
0.815495
0.889992
0.805331
0.831025
0.815611
0.770044
0.813937
0.815662
0.815472
0.813796
0.815505
0.800429
0.814966
0.670825
0.818333
0.803936
0.812232
0.756173
0.819706
0.616444
0.859435
0.804312
0.828968
0.815521
0.808733
0.747066
0.825637
0.814808
0.839435
0.815261
0.815464
0.655871
0.82872
0.813638
0.815531
0.838071
0.824846
0.563534
0.799165
0.805018
0.814105
0.818076
0.804326
0.801677
0.817936
0.768478
0.807116
0.818516
0.864505
0.833121
0.604608
0.798625
0.757532
0.816877
0.764989
0.821775
0.805475
0.807152
0.815489
0.791294
0.808036
0.816571
0.823438
0.788859
0.688155
0.740418
0.711881
0.816821
0.839569
0.840785
0.740098
0.811646
0.754067
0.620223
0.815469
0.801326
0.815292
0.803869
0.644765
0.803142
0.77883
0.736352
0.8142
0.744556
0.80982
0.818911
0.861023
0.810757
0.808174
0.742982
0.815656
0.77826
0.840988
0.884536
0.799836
0.532697
0.802062
0.618048
0.772308
0.662261
0.800015
0.521645
0.817741
0.854079
0.806674
0.814093
0.822072
0.805911
0.803414
0.702483
0.826321
0.815169
0.804666
0.809266
0.793783
0.803882
0.809238
0.642339
0.819138
0.804167
0.849307
0.810888
0.805483
0.803494
0.815796
0.815918
0.810363
0.803799
0.790097
0.815485
0.797376
0.804287
0.816218
0.775012
0.576568
0.81578
0.820649
0.805128
0.720994
0.804212
0.810169
0.803664
0.709933
0.878519
0.815131
0.819139
0.815471
0.851138
0.780611
0.815464
0.790173
0.818329
0.824328
0.668279
0.815485
0.732392
0.820214
0.728875
0.802445
0.755832
0.804479
0.691518
0.812428
0.732502
0.501834
0.822023
0.666881
0.769694
0.819743
0.815553
0.7792
0.814563
0.729305
0.643513
0.828214
0.684051
0.819289
0.770782
0.802563
0.808645
0.816223
0.657293
0.805108
0.775172
0.813042
0.814926
0.832453
0.806875
0.693541
0.758201
0.661822
0.801087
0.80608
0.815423
0.817934
0.812904
0.815001
0.812832
0.669371
0.734766
0.684353
0.70743
0.816754
0.810335
0.834875
0.810369
0.817456
0.693226
0.879569
0.817885
0.828295
0.582392
0.8251
0.815473
0.842365
0.846943
0.828176
0.83271
0.822556
0.552114
0.806544
0.817357
0.708224
0.819269
0.804337
0.815448
0.808872
0.815644
0.815577
0.771112
0.715123
0.80067
0.801787
0.582661
0.816847
0.860292
0.817971
0.678499
0.824956
0.816073
0.821938
0.838892
0.685953
0.506391
0.805379
0.841439
0.806689
0.805367
0.817014
0.80248
0.813319
0.81272
0.801573
0.804721
0.805254
0.815616
0.806139
0.807176
0.801488
0.83828
0.832617
0.854603
0.815941
0.810204
0.817209
0.816009
0.815472
0.814157
0.818093
0.835446
0.80936
0.814222
0.624066
0.832471
0.694529
0.869241
0.804045
0.834757
0.802031
0.78774
0.788507
0.739376
0.823581
0.812065
0.81463
0.816316
0.778186
0.810861
0.592183
0.806864
0.816014
0.816056
0.796928
0.815339
0.616765
0.785368
0.567172
0.822932
0.79959
0.776936
0.80445
0.816494
0.815604
0.815608
0.735809
0.811117
0.815292
0.812707
0.804053
0.80444
0.747925
0.771205
0.811349
0.804184
0.710509
0.606535
0.507289
0.842567
0.806683
0.781019
0.783134
0.825589
0.803872
0.804326
0.820522
0.781327
0.757429
0.818776
0.809695
0.813235
0.838637
0.805918
0.815177
0.808993
0.502847
0.803816
0.815278
0.776417
0.821736
0.817013
0.827715
0.622272
0.704708
0.584325
0.829818
0.818131
0.747282
0.81296
0.68196
0.816929
0.81243
0.815347
0.804805
0.812907
0.584976
0.693366
0.808564
0.81626
0.794828
0.804062
0.832666
0.801607
0.803973
0.657762
0.810258
0.81541
0.805074
0.815484
0.802981
0.626589
0.817486
0.81558
0.581359
0.711445
0.796034
0.830779
0.708518
0.804622
0.795005
0.815462
0.757518
0.689589
0.813834
0.797016
0.801609
0.768474
0.554372
0.82243
0.678715
0.752632
0.728743
0.804336
0.799926
0.814875
0.670097
0.770262
0.80463
0.817723
0.599302
0.801865
0.827075
0.809741
0.55408
0.806339
0.785254
0.719545
0.718469
0.801214
0.821552
0.81602
0.81145
0.713418
0.742817
0.647165
0.834244
0.844223
0.819319
0.789686
0.866227
0.708572
0.816299
0.769777
0.792712
0.796797
0.815418
0.804488
0.814965
0.78813
0.75933
0.822145
0.799456
0.843743
0.722843
0.792381
0.80621
0.726601
0.80492
0.817234
0.583991
0.802605
0.801965
0.803024
0.823508
0.767549
0.801413
0.726488
0.815478
0.809598
0.72918
0.815475
0.818732
0.830684
0.806601
0.789337
0.800233
0.806785
0.722813
0.815633
0.803839
0.68533
0.808044
0.782366
0.833573
0.822683
0.821343
0.841036
0.851656
0.711137
0.816609
0.797696
0.788824
0.623119
0.819046
0.806445
0.815507
0.779265
0.854706
0.834407
0.783693
0.845987
0.781879
0.801146
0.774735
0.815493
0.725617
0.64151
0.84565
0.66967
0.793892
0.841115
0.815605
0.678325
0.810024
0.754765
0.804634
0.799837
0.784454
0.804685
0.8037
0.8036
0.802687
0.78731
0.815319
0.783841
0.818886
0.808591
0.721115
0.786127
0.816271
0.815631
0.806293
0.572703
0.826804
0.815536
0.815181
0.716531
0.805915
0.80224
0.803683
0.818552
0.746394
0.818623
0.803203
0.806768
0.759559
0.814793
0.813643
0.80774
0.771912
0.810151
0.815779
0.808782
0.817888
0.810821
0.80667
0.825162
0.805164
0.791036
0.809122
0.815473
0.819311
0.782109
0.707696
0.816632
0.813256
0.803792
0.747297
0.790273
0.659112
0.803562
0.551761
0.80348
0.817221
0.776677
0.836381
0.568932
0.81245
0.741649
0.813887
0.545783
0.806146
0.830446
0.816203
0.821193
0.740355
0.842632
0.568356
0.825368
0.70278
0.802397
0.695063
0.674863
0.815617
0.815463
0.746213
0.804031
0.822461
0.617791
0.823856
0.771218
0.835395
0.815478
0.816205
0.816102
0.804271
0.839979
0.81252
0.804418
0.677196
0.803449
0.845081
0.803299
0.804138
0.770317
0.807473
0.815301
0.815471
0.799381
0.737454
0.813286
0.818173
0.609112
0.804739
0.634499
0.818339
0.561191
0.815404
0.773456
0.68867
0.731139
0.783943
0.719067
0.845496
0.814993
0.799045
0.804548
0.707509
0.803169
0.791749
0.802984
0.817054
0.804327
0.728266
0.710473
0.802804
0.774943
0.531015
0.814522
0.680229
0.795465
0.694544
0.826921
0.812655
0.827228
0.812196
0.839505
0.810418
0.59995
0.831405
0.810178
0.803827
0.818137
0.815396
0.815577
0.815653
0.827231
0.819013
0.62776
0.805264
0.801174
0.815958
0.69627
0.802958
0.825734
0.759241
0.693062
0.809684
0.701053
0.735374
0.812121
0.81581
0.67359
0.843027
0.770182
0.805936
0.799155
0.813237
0.846056
0.802099
0.560236
0.817644
0.688487
0.688299
0.77871
0.762682
0.772363
0.815503
0.803689
0.818573
0.815521
0.592798
0.788528
0.834283
0.815443
0.599985
0.731461
0.650375
0.819261
0.813593
0.694989
0.804485
0.815322
0.801933
0.837059
0.619642
0.842057
0.739536
0.815091
0.815644
0.686522
0.815516
0.715527
0.793959
0.710637
0.81399
0.787605
0.641934
0.728166
0.720735
0.834803
0.81266
0.821759
0.824337
0.80353
0.809655
0.805093
0.819726
0.804096
0.700428
0.804609
0.609674
0.779798
0.807869
0.804319
0.815476
0.826465
0.803466
0.726721
0.689898
0.6744
0.79323
0.818568
0.747988
0.627707
0.755132
0.813735
0.802513
0.763063
0.805402
0.824823
0.756011
0.576938
0.701914
0.80086
0.81548
0.865453
0.817071
0.815213
0.853107
0.801983
0.802778
0.81722
0.815483
0.808057
0.723496
0.80994
0.703692
0.863466
0.782019
0.816387
0.632819
0.799292
0.540543
0.590274
0.627012
0.810755
0.803879
0.812038
0.762724
0.803794
0.546041
0.785529
0.80547
0.740436
0.817021
0.804516
0.818488
0.844395
0.692194
0.814569
0.802496
0.812947
0.817793
0.815931
0.815581
0.758169
0.799818
0.799967
0.803588
0.800048
0.813612
0.8486
0.821047
0.729392
0.805316
0.668915
0.81619
0.815472
0.596775
0.769991
0.770033
0.550743
0.787439
0.804096
0.87917
0.801182
0.81578
0.759589
0.795633
0.799773
0.811131
0.784554
0.553925
0.697743
0.685465
0.783099
0.817118
0.803585
0.823078
0.791689
0.80455
0.815869
0.8009
0.853518
0.717523
0.815256
0.782743
0.544572
0.647891
0.815969
0.803932
0.806216
0.570268
0.797803
0.804127
0.664102
0.816613
0.793546
0.80972
0.817514
0.666581
0.722942
0.727751
0.815554
0.834786
0.640078
0.791296
0.709675
0.816501
0.829183
0.781562
0.776406
0.553798
0.814554
0.802702
0.727043
0.85589
0.806403
0.732447
0.743172
0.767458
0.814253
0.571742
0.797755
0.738775
0.800945
0.824319
0.713881
0.801984
0.814295
0.720029
0.814112
0.71053
0.818659
0.80089
0.759462
0.704902
0.811489
0.800809
0.81635
0.67455
0.805935
0.807692
0.815019
0.704078
0.815467
0.81064
0.833419
0.694157
0.818192
0.744061
0.815284
0.807977
0.843869
0.804091
0.821392
0.751756
0.817915
0.840557
0.834648
0.818546
0.848895
0.753052
0.851883
0.829485
0.805863
0.827382
0.806692
0.651864
0.780969
0.816788
0.750978
0.703968
0.801398
0.806261
0.698879
0.800331
0.549693
0.8517
0.71055
0.710809
0.816475
0.777037
0.809084
0.800014
0.809094
0.804389
0.815143
0.838519
0.737983
0.774951
0.598571
0.813501
0.778674
0.812777
0.805654
0.57857
0.803204
0.802806
0.810514
0.80088
0.819328
0.808893
0.697404
0.825364
0.851942
0.689439
0.747638
0.815424
0.803994
0.722016
0.816269
0.758741
0.798022
0.803438
0.806368
0.838944
0.674745
0.721514
0.801361
0.707849
0.774317
0.833814
0.543534
0.698166
0.800218
0.804754
0.803571
0.741987
0.824632
0.809725
0.804
0.809019
0.816298
0.700058
0.663143
0.810487
0.81672
0.801275
0.876817
0.804237
0.815605
0.799728
0.812702
0.814386
0.809309
0.664328
0.815758
0.819211
0.80391
0.80495
0.801681
0.623574
0.812474
0.813676
0.815637
0.867328
0.817174
0.802521
0.564884
0.838354
0.708158
0.828514
0.807853
0.814965
0.827453
0.812573
0.815271
0.738523
0.561888
0.594637
0.815503
0.812015
0.549582
0.796898
0.817239
0.83554
0.522263
0.810662
0.816302
0.803993
0.810157
0.552958
0.816105
0.809151
0.569695
0.815467
0.817995
0.552414
0.81113
0.815688
0.777371
0.808126
0.813053
0.813028
0.80106
0.827973
0.545707
0.832616
0.816889
0.804538
0.746515
0.788457
0.814706
0.810598
0.805003
0.818331
0.801297
0.675236
0.809082
0.692351
0.815491
0.665415
0.750926
0.797819
0.722361
0.803761
0.58713
0.851173
0.815523
0.815354
0.801896
0.803489
0.803344
0.814829
0.817211
0.675144
0.727068
0.733766
0.817574
0.730877
0.680551
0.819488
0.786246
0.829805
0.814545
0.810536
0.736181
0.554475
0.799818
0.792866
0.523617
0.816738
0.81606
0.738718
0.806922
0.771224
0.620854
0.812679
0.815827
0.791278
0.61655
0.803188
0.784875
0.828499
0.816039
0.813906
0.812852
0.815921
0.708176
0.802228
0.818447
0.709125
0.506023
0.74031
0.799642
0.737143
0.816065
0.800943
0.80649
0.78447
0.868442
0.803685
0.802464
0.827806
0.860635
0.805125
0.818088
0.7972
0.818572
0.790759
0.747483
0.813056
0.80475
0.818782
0.803596
0.793669
0.844463
0.768277
0.815844
0.775872
0.805241
0.647825
0.524798
0.801893
0.803292
0.812958
0.799065
0.801842
0.815461
0.774818
0.806427
0.815477
0.784642
0.819118
0.777875
0.60329
0.80588
0.761694
0.778627
0.754484
0.764654
0.795273
0.790056
0.824287
0.789057
0.810252
0.803528
0.768421
0.818249
0.554432
0.735629
0.813586
0.816726
0.814653
0.804967
0.815685
0.812496
0.806642
0.823511
0.810508
0.784874
0.81916
0.803722
0.79332
0.797166
0.805878
0.594404
0.804109
0.793616
0.586114
0.815096
0.808105
0.806663
0.811636
0.708259
0.754357
0.823482
0.775805
0.812475
0.818954
0.716519
0.805064
0.826294
0.725046
0.800676
0.812546
0.780526
0.807221
0.839638
0.803103
0.819911
0.775042
0.805884
0.8021
0.816026
0.804442
0.800357
0.599247
0.817975
0.789804
0.807297
0.827805
0.706062
0.830626
0.821816
0.523236
0.808254
0.804945
0.804374
0.815273
0.826165
0.826263
0.805538
0.808576
0.817043
0.814428
0.803837
0.815494
0.806548
0.752095
0.719646
0.783675
0.81661
0.81482
0.778406
0.76063
0.814986
0.826637
0.811518
0.81547
0.707418
0.518028
0.748286
0.820108
0.808772
0.818885
0.845626
0.802016
0.724308
0.665663
0.802485
0.806758
0.703004
0.81582
0.685228
0.838513
0.733178
0.815632
0.895897
0.816621
0.802878
0.780664
0.812159
0.692216
0.815305
0.811046
0.793005
0.80828
0.78028
0.802728
0.810846
0.783861
0.803863
0.853458
0.778697
0.802547
0.599775
0.804678
0.697976
0.804574
0.795497
0.789703
0.786159
0.72561
0.804834
0.790845
0.846098
0.8163
0.815649
0.815106
0.896144
0.751095
0.803567
0.738743
0.803381
0.801034
0.805724
0.723135
0.803001
0.806631
0.656455
0.811287
0.751977
0.630611
0.848098
0.848895
0.754149
0.811959
0.796044
0.775101
0.738836
0.778431
0.787819
0.739532
0.804362
0.80588
0.728459
0.818065
0.805555
0.572798
0.81546
0.82368
0.815674
0.803982
0.617545
0.724912
0.807169
0.860482
0.63703
0.730279
0.808387
0.817069
0.798923
0.709269
0.722125
0.809832
0.816258
0.817777
0.838894
0.745167
0.758815
0.876689
0.808042
0.812703
0.796521
0.661311
0.641405
0.596221
0.666507
0.608677
0.768402
0.803485
0.804889
0.815294
0.811165
0.812356
0.861437
0.726567
0.826074
0.81681
0.819657
0.819275
0.816746
0.816043