# vtk DataFile Version 1.0
unstructured grid
ascii
DATASET UNSTRUCTURED_GRID
points 14760 float
-1 0 0
-1 1 0
2 0 0
2 1 0
0 0 0
1 0 0
-1 1 0.1
-1 0 0.1
0 0 0.1
1 0 0.1
2 0 0.1
2 1 0.1
-0.99 0 0
-0.98 0 0
-0.97 0 0
-0.96 0 0
-0.95 0 0
-0.94 0 0
-0.93 0 0
-0.92 0 0
-0.91 0 0
-0.9 0 0
-0.89 0 0
-0.88 0 0
-0.87 0 0
-0.86 0 0
-0.85 0 0
-0.84 0 0
-0.83 0 0
-0.82 0 0
-0.81 0 0
-0.8 0 0
-0.79 0 0
-0.78 0 0
-0.77 0 0
-0.76 0 0
-0.75 0 0
-0.74 0 0
-0.73 0 0
-0.72 0 0
-0.71 0 0
-0.7 0 0
-0.69 0 0
-0.68 0 0
-0.67 0 0
-0.66 0 0
-0.65 0 0
-0.64 0 0
-0.63 0 0
-0.62 0 0
-0.61 0 0
-0.6 0 0
-0.59 0 0
-0.58 0 0
-0.57 0 0
-0.56 0 0
-0.55 0 0
-0.54 0 0
-0.53 0 0
-0.52 0 0
-0.51 0 0
-0.5 0 0
-0.49 0 0
-0.48 0 0
-0.47 0 0
-0.46 0 0
-0.45 0 0
-0.44 0 0
-0.43 0 0
-0.42 0 0
-0.41 0 0
-0.4 0 0
-0.39 0 0
-0.38 0 0
-0.37 0 0
-0.36 0 0
-0.35 0 0
-0.34 0 0
-0.33 0 0
-0.32 0 0
-0.31 0 0
-0.3 0 0
-0.29 0 0
-0.28 0 0
-0.27 0 0
-0.26 0 0
-0.25 0 0
-0.24 0 0
-0.23 0 0
-0.22 0 0
-0.21 0 0
-0.2 0 0
-0.19 0 0
-0.18 0 0
-0.17 0 0
-0.16 0 0
-0.15 0 0
-0.14 0 0
-0.13 0 0
-0.12 0 0
-0.11 0 0
-0.1 0 0
-0.09 0 0
-0.08 0 0
-0.07 0 0
-0.06 0 0
-0.05 0 0
-0.04 0 0
-0.03 0 0
-0.02 0 0
-0.01 0 0
1.01 0 0
1.02 0 0
1.03 0 0
1.04 0 0
1.05 0 0
1.06 0 0
1.07 0 0
1.08 0 0
1.09 0 0
1.1 0 0
1.11 0 0
1.12 0 0
1.13 0 0
1.14 0 0
1.15 0 0
1.16 0 0
1.17 0 0
1.18 0 0
1.19 0 0
1.2 0 0
1.21 0 0
1.22 0 0
1.23 0 0
1.24 0 0
1.25 0 0
1.26 0 0
1.27 0 0
1.28 0 0
1.29 0 0
1.3 0 0
1.31 0 0
1.32 0 0
1.33 0 0
1.34 0 0
1.35 0 0
1.36 0 0
1.37 0 0
1.38 0 0
1.39 0 0
1.4 0 0
1.41 0 0
1.42 0 0
1.43 0 0
1.44 0 0
1.45 0 0
1.46 0 0
1.47 0 0
1.48 0 0
1.49 0 0
1.5 0 0
1.51 0 0
1.52 0 0
1.53 0 0
1.54 0 0
1.55 0 0
1.56 0 0
1.57 0 0
1.58 0 0
1.59 0 0
1.6 0 0
1.61 0 0
1.62 0 0
1.63 0 0
1.64 0 0
1.65 0 0
1.66 0 0
1.67 0 0
1.68 0 0
1.69 0 0
1.7 0 0
1.71 0 0
1.72 0 0
1.73 0 0
1.74 0 0
1.75 0 0
1.76 0 0
1.77 0 0
1.78 0 0
1.79 0 0
1.8 0 0
1.81 0 0
1.82 0 0
1.83 0 0
1.84 0 0
1.85 0 0
1.86 0 0
1.87 0 0
1.88 0 0
1.89 0 0
1.9 0 0
1.91 0 0
1.92 0 0
1.93 0 0
1.94 0 0
1.95 0 0
1.96 0 0
1.97 0 0
1.98 0 0
1.99 0 0
2 0.0100088 0
2 0.0204183 0
2 0.0312446 0
2 0.0425043 0
2 0.0542147 0
2 0.066394 0
2 0.079061 0
2 0.092235 0
2 0.105936 0
2 0.120186 0
2 0.135007 0
2 0.150421 0
2 0.166452 0
2 0.183124 0
2 0.200465 0
2 0.218499 0
2 0.237256 0
2 0.256763 0
2 0.277051 0
2 0.298152 0
2 0.320097 0
2 0.342921 0
2 0.366659 0
2 0.391347 0
2 0.417024 0
2 0.443728 0
2 0.471502 0
2 0.500387 0
2 0.530429 0
2 0.561674 0
2 0.594169 0
2 0.627966 0
2 0.663115 0
2 0.699672 0
2 0.737692 0
2 0.777235 0
2 0.818361 0
2 0.861133 0
2 0.905617 0
2 0.951882 0
1.95 1 0
1.9 1 0
1.85 1 0
1.8 1 0
1.75 1 0
1.7 1 0
1.65 1 0
1.6 1 0
1.55 1 0
1.5 1 0
1.45 1 0
1.4 1 0
1.35 1 0
1.3 1 0
1.25 1 0
1.2 1 0
1.15 1 0
1.1 1 0
1.05 1 0
1 1 0
0.95 1 0
0.9 1 0
0.85 1 0
0.8 1 0
0.75 1 0
0.7 1 0
0.65 1 0
0.6 1 0
0.55 1 0
0.5 1 0
0.45 1 0
0.4 1 0
0.35 1 0
0.3 1 0
0.25 1 0
0.2 1 0
0.15 1 0
0.1 1 0
0.05 1 0
3.69793e-12 1 0
-0.05 1 0
-0.1 1 0
-0.15 1 0
-0.2 1 0
-0.25 1 0
-0.3 1 0
-0.35 1 0
-0.4 1 0
-0.45 1 0
-0.5 1 0
-0.55 1 0
-0.6 1 0
-0.65 1 0
-0.7 1 0
-0.75 1 0
-0.8 1 0
-0.85 1 0
-0.9 1 0
-0.95 1 0
-1 0.951882 0
-1 0.905617 0
-1 0.861133 0
-1 0.818361 0
-1 0.777235 0
-1 0.737692 0
-1 0.699672 0
-1 0.663115 0
-1 0.627966 0
-1 0.594169 0
-1 0.561674 0
-1 0.530429 0
-1 0.500387 0
-1 0.471502 0
-1 0.443728 0
-1 0.417024 0
-1 0.391347 0
-1 0.366659 0
-1 0.342921 0
-1 0.320097 0
-1 0.298152 0
-1 0.277051 0
-1 0.256763 0
-1 0.237256 0
-1 0.218499 0
-1 0.200465 0
-1 0.183124 0
-1 0.166452 0
-1 0.150421 0
-1 0.135007 0
-1 0.120186 0
-1 0.105936 0
-1 0.092235 0
-1 0.079061 0
-1 0.066394 0
-1 0.0542147 0
-1 0.0425043 0
-1 0.0312446 0
-1 0.0204183 0
-1 0.0100088 0
0.00921362 0.00379763 0
0.0184561 0.00752451 0
0.0277268 0.0111804 0
0.0370253 0.0147652 0
0.0463511 0.0182786 0
0.0557034 0.0217203 0
0.0650819 0.0250903 0
0.074486 0.0283883 0
0.083915 0.0316141 0
0.0933685 0.0347675 0
0.102846 0.0378484 0
0.112347 0.0408565 0
0.12187 0.0437917 0
0.131416 0.0466538 0
0.140983 0.0494427 0
0.150572 0.0521581 0
0.160181 0.0547999 0
0.16981 0.0573681 0
0.179458 0.0598623 0
0.189125 0.0622825 0
0.198811 0.0646285 0
0.208514 0.0669001 0
0.218234 0.0690974 0
0.227971 0.07122 0
0.237724 0.073268 0
0.247493 0.0752411 0
0.257276 0.0771393 0
0.267073 0.0789625 0
0.276884 0.0807105 0
0.286708 0.0823832 0
0.296545 0.0839806 0
0.306394 0.0855025 0
0.316254 0.0869488 0
0.326125 0.0883196 0
0.336006 0.0896146 0
0.345896 0.0908339 0
0.355796 0.0919773 0
0.365704 0.0930447 0
0.375621 0.0940362 0
0.385544 0.0949517 0
0.395474 0.095791 0
0.40541 0.0965542 0
0.415352 0.0972412 0
0.425299 0.097852 0
0.43525 0.0983865 0
0.445205 0.0988447 0
0.455164 0.0992266 0
0.465125 0.0995321 0
0.475088 0.0997613 0
0.485052 0.0999141 0
0.495017 0.0999904 0
0.504983 0.0999904 0
0.514948 0.0999141 0
0.524912 0.0997613 0
0.534875 0.0995321 0
0.544836 0.0992266 0
0.554795 0.0988447 0
0.56475 0.0983865 0
0.574701 0.097852 0
0.584648 0.0972412 0
0.59459 0.0965542 0
0.604526 0.095791 0
0.614456 0.0949517 0
0.624379 0.0940362 0
0.634296 0.0930447 0
0.644204 0.0919773 0
0.654104 0.0908339 0
0.663994 0.0896146 0
0.673875 0.0883196 0
0.683746 0.0869488 0
0.693606 0.0855025 0
0.703455 0.0839806 0
0.713292 0.0823832 0
0.723116 0.0807105 0
0.732927 0.0789625 0
0.742724 0.0771393 0
0.752508 0.0752411 0
0.762276 0.073268 0
0.772029 0.07122 0
0.781766 0.0690974 0
0.791486 0.0669001 0
0.801189 0.0646285 0
0.810875 0.0622825 0
0.820542 0.0598623 0
0.83019 0.0573681 0
0.839819 0.0547999 0
0.849428 0.0521581 0
0.859017 0.0494427 0
0.868584 0.0466538 0
0.87813 0.0437917 0
0.887653 0.0408565 0
0.897154 0.0378484 0
0.906631 0.0347675 0
0.916085 0.0316141 0
0.925514 0.0283883 0
0.934918 0.0250903 0
0.944297 0.0217203 0
0.953649 0.0182786 0
0.962975 0.0147652 0
0.972273 0.0111804 0
0.981544 0.00752451 0
0.990786 0.00379763 0
-1 0.951882 0.1
-1 0.905617 0.1
-1 0.861133 0.1
-1 0.818361 0.1
-1 0.777235 0.1
-1 0.737692 0.1
-1 0.699672 0.1
-1 0.663115 0.1
-1 0.627966 0.1
-1 0.594169 0.1
-1 0.561674 0.1
-1 0.530429 0.1
-1 0.500387 0.1
-1 0.471502 0.1
-1 0.443728 0.1
-1 0.417024 0.1
-1 0.391347 0.1
-1 0.366659 0.1
-1 0.342921 0.1
-1 0.320097 0.1
-1 0.298152 0.1
-1 0.277051 0.1
-1 0.256763 0.1
-1 0.237256 0.1
-1 0.218499 0.1
-1 0.200465 0.1
-1 0.183124 0.1
-1 0.166452 0.1
-1 0.150421 0.1
-1 0.135007 0.1
-1 0.120186 0.1
-1 0.105936 0.1
-1 0.092235 0.1
-1 0.079061 0.1
-1 0.066394 0.1
-1 0.0542147 0.1
-1 0.0425043 0.1
-1 0.0312446 0.1
-1 0.0204183 0.1
-1 0.0100088 0.1
-0.99 0 0.1
-0.98 0 0.1
-0.97 0 0.1
-0.96 0 0.1
-0.95 0 0.1
-0.94 0 0.1
-0.93 0 0.1
-0.92 0 0.1
-0.91 0 0.1
-0.9 0 0.1
-0.89 0 0.1
-0.88 0 0.1
-0.87 0 0.1
-0.86 0 0.1
-0.85 0 0.1
-0.84 0 0.1
-0.83 0 0.1
-0.82 0 0.1
-0.81 0 0.1
-0.8 0 0.1
-0.79 0 0.1
-0.78 0 0.1
-0.77 0 0.1
-0.76 0 0.1
-0.75 0 0.1
-0.74 0 0.1
-0.73 0 0.1
-0.72 0 0.1
-0.71 0 0.1
-0.7 0 0.1
-0.69 0 0.1
-0.68 0 0.1
-0.67 0 0.1
-0.66 0 0.1
-0.65 0 0.1
-0.64 0 0.1
-0.63 0 0.1
-0.62 0 0.1
-0.61 0 0.1
-0.6 0 0.1
-0.59 0 0.1
-0.58 0 0.1
-0.57 0 0.1
-0.56 0 0.1
-0.55 0 0.1
-0.54 0 0.1
-0.53 0 0.1
-0.52 0 0.1
-0.51 0 0.1
-0.5 0 0.1
-0.49 0 0.1
-0.48 0 0.1
-0.47 0 0.1
-0.46 0 0.1
-0.45 0 0.1
-0.44 0 0.1
-0.43 0 0.1
-0.42 0 0.1
-0.41 0 0.1
-0.4 0 0.1
-0.39 0 0.1
-0.38 0 0.1
-0.37 0 0.1
-0.36 0 0.1
-0.35 0 0.1
-0.34 0 0.1
-0.33 0 0.1
-0.32 0 0.1
-0.31 0 0.1
-0.3 0 0.1
-0.29 0 0.1
-0.28 0 0.1
-0.27 0 0.1
-0.26 0 0.1
-0.25 0 0.1
-0.24 0 0.1
-0.23 0 0.1
-0.22 0 0.1
-0.21 0 0.1
-0.2 0 0.1
-0.19 0 0.1
-0.18 0 0.1
-0.17 0 0.1
-0.16 0 0.1
-0.15 0 0.1
-0.14 0 0.1
-0.13 0 0.1
-0.12 0 0.1
-0.11 0 0.1
-0.1 0 0.1
-0.09 0 0.1
-0.08 0 0.1
-0.07 0 0.1
-0.06 0 0.1
-0.05 0 0.1
-0.04 0 0.1
-0.03 0 0.1
-0.02 0 0.1
-0.01 0 0.1
0.00921362 0.00379763 0.1
0.0184561 0.00752451 0.1
0.0277268 0.0111804 0.1
0.0370253 0.0147652 0.1
0.0463511 0.0182786 0.1
0.0557034 0.0217203 0.1
0.0650819 0.0250903 0.1
0.074486 0.0283883 0.1
0.083915 0.0316141 0.1
0.0933685 0.0347675 0.1
0.102846 0.0378484 0.1
0.112347 0.0408565 0.1
0.12187 0.0437917 0.1
0.131416 0.0466538 0.1
0.140983 0.0494427 0.1
0.150572 0.0521581 0.1
0.160181 0.0547999 0.1
0.16981 0.0573681 0.1
0.179458 0.0598623 0.1
0.189125 0.0622825 0.1
0.198811 0.0646285 0.1
0.208514 0.0669001 0.1
0.218234 0.0690974 0.1
0.227971 0.07122 0.1
0.237724 0.073268 0.1
0.247493 0.0752411 0.1
0.257276 0.0771393 0.1
0.267073 0.0789625 0.1
0.276884 0.0807105 0.1
0.286708 0.0823832 0.1
0.296545 0.0839806 0.1
0.306394 0.0855025 0.1
0.316254 0.0869488 0.1
0.326125 0.0883196 0.1
0.336006 0.0896146 0.1
0.345896 0.0908339 0.1
0.355796 0.0919773 0.1
0.365704 0.0930447 0.1
0.375621 0.0940362 0.1
0.385544 0.0949517 0.1
0.395474 0.095791 0.1
0.40541 0.0965542 0.1
0.415352 0.0972412 0.1
0.425299 0.097852 0.1
0.43525 0.0983865 0.1
0.445205 0.0988447 0.1
0.455164 0.0992266 0.1
0.465125 0.0995321 0.1
0.475088 0.0997613 0.1
0.485052 0.0999141 0.1
0.495017 0.0999904 0.1
0.504983 0.0999904 0.1
0.514948 0.0999141 0.1
0.524912 0.0997613 0.1
0.534875 0.0995321 0.1
0.544836 0.0992266 0.1
0.554795 0.0988447 0.1
0.56475 0.0983865 0.1
0.574701 0.097852 0.1
0.584648 0.0972412 0.1
0.59459 0.0965542 0.1
0.604526 0.095791 0.1
0.614456 0.0949517 0.1
0.624379 0.0940362 0.1
0.634296 0.0930447 0.1
0.644204 0.0919773 0.1
0.654104 0.0908339 0.1
0.663994 0.0896146 0.1
0.673875 0.0883196 0.1
0.683746 0.0869488 0.1
0.693606 0.0855025 0.1
0.703455 0.0839806 0.1
0.713292 0.0823832 0.1
0.723116 0.0807105 0.1
0.732927 0.0789625 0.1
0.742724 0.0771393 0.1
0.752508 0.0752411 0.1
0.762276 0.073268 0.1
0.772029 0.07122 0.1
0.781766 0.0690974 0.1
0.791486 0.0669001 0.1
0.801189 0.0646285 0.1
0.810875 0.0622825 0.1
0.820542 0.0598623 0.1
0.83019 0.0573681 0.1
0.839819 0.0547999 0.1
0.849428 0.0521581 0.1
0.859017 0.0494427 0.1
0.868584 0.0466538 0.1
0.87813 0.0437917 0.1
0.887653 0.0408565 0.1
0.897154 0.0378484 0.1
0.906631 0.0347675 0.1
0.916085 0.0316141 0.1
0.925514 0.0283883 0.1
0.934918 0.0250903 0.1
0.944297 0.0217203 0.1
0.953649 0.0182786 0.1
0.962975 0.0147652 0.1
0.972273 0.0111804 0.1
0.981544 0.00752451 0.1
0.990786 0.00379763 0.1
1.01 0 0.1
1.02 0 0.1
1.03 0 0.1
[...]
CELL_DATA 14313
SCALARS rho float
LOOKUP_TABLE default
0.781341
0.824201
0.805896
0.537604
0.766305
0.811789
0.812455
0.812341
0.811011
0.815135
0.812025
0.798877
0.797022
0.517457
0.812823
0.831873
0.808774
0.807716
0.810037
0.805353
0.810691
0.813935
0.812387
0.766045
0.812016
0.814638
0.742408
0.709711
0.823721
0.824324
0.811884
0.794481
0.799524
0.811987
0.804676
0.810633
0.679746
0.80891
0.811573
0.802365
0.752543
0.810359
0.541806
0.702013
0.817583
0.835698
0.810837
0.777416
0.80441
0.851008
0.675445
0.653229
0.589315
0.810546
0.81963
0.782662
0.817569
0.814691
0.810803
0.812293
0.811895
0.818363
0.794458
0.839186
0.810319
0.813269
0.852753
0.783895
0.840537
0.812815
0.798311
0.831436
0.487271
0.837182
0.725952
0.806918
0.824602
0.747094
0.696431
0.811361
0.591905
0.824676
0.833113
0.803475
0.805529
0.819245
0.81177
0.80446
0.82655
0.807
0.779876
0.522723
0.807311
0.797917
0.725888
0.803834
0.814598
0.808896
0.80323
0.488882
0.807008
0.809603
0.812422
0.814203
0.748421
0.8093
0.802638
0.699547
0.834425
0.809953
0.813859
0.824836
0.812053
0.819276
0.804165
0.827372
0.81978
0.836195
0.778706
0.798748
0.811532
0.808951
0.859407
0.720771
0.843379
0.753396
0.789551
0.80446
0.814607
0.842892
0.809404
0.811919
0.860707
0.812213
0.823219
0.782627
0.806955
0.792242
0.817619
0.817275
0.812455
0.816713
0.803387
0.803433
0.79654
0.83901
0.80595
0.760689
0.795514
0.817302
0.797215
0.803536
0.81239
0.708996
0.821157
0.803721
0.72308
0.821049
0.812008
0.811868
0.81838
0.808721
0.64673
0.757485
0.823062
0.824386
0.713967
0.812606
0.827981
0.815418
0.688645
0.816226
0.712946
0.787903
0.808885
0.826072
0.808091
0.815425
0.8209
0.741561
0.811325
0.809472
0.773485
0.77184
0.790499
0.811023
0.812807
0.796991
0.496518
0.787223
0.757503
0.74274
0.770228
0.713224
0.812266
0.81489
0.807266
0.803388
0.80607
0.816773
0.760094
0.802903
0.828455
0.81482
0.833416
0.803345
0.816566
0.814228
0.811958
0.834556
0.803999
0.811166
0.79595
0.700906
0.814027
0.820665
0.809549
0.807169
0.83449
0.802894
0.802631
0.819218
0.805981
0.855306
0.809587
0.803122
0.817902
0.802478
0.812341
0.757231
0.635788
0.815062
0.697481
0.826827
0.802389
0.721283
0.811942
0.813998
0.814842
0.826244
0.79169
0.710378
0.74767
0.595152
0.814991
0.723793
0.799301
0.807104
0.837687
0.815077
0.575088
0.804043
0.728677
0.837303
0.801215
0.694701
0.811352
0.827014
0.81457
0.556986
0.813262
0.801159
0.798899
0.806015
0.78838
0.773869
0.815724
0.81554
0.529416
0.814604
0.813752
0.772146
0.802047
0.812003
0.780502
0.817243
0.783018
0.709146
0.802819
0.805825
0.56749
0.543461
0.756254
0.807943
0.82042
0.790074
0.81165
0.814795
0.776067
0.80595
0.803496
0.816665
0.829447
0.793144
0.808302
0.811539
0.631611
0.818888
0.699533
0.797268
0.793285
0.777586
0.835592
0.809337
0.796648
0.676329
0.668114
0.803603
0.805691
0.819636
0.804233
0.798399
0.652092
0.815101
0.822091
0.818111
0.812026
0.812863
0.799442
0.790939
0.81416
0.570542
0.807941
0.812211
0.814404
0.812576
0.765301
0.821518
0.801524
0.814198
0.813053
0.753881
0.752466
0.803404
0.803485
0.533377
0.812434
0.811933
0.807121
0.811805
0.803338
0.800952
0.728101
0.711947
0.814375
0.748374
0.757998
0.81847
0.837455
0.814179
0.802201
0.808495
0.812254
0.803458
0.817033
0.782556
0.816964
0.811788
0.810727
0.795115
0.810434
0.792146
0.811831
0.58971
0.799569
0.800412
0.811915
0.813462
0.767608
0.801611
0.8122
0.81242
0.818015
0.770239
0.818289
0.808357
0.752558
0.761713
0.812882
0.805801
0.829169
0.824716
0.823183
0.804319
0.594335
0.779007
0.600387
0.803387
0.802933
0.80078
0.814264
0.874025
0.526129
0.593545
0.8383
0.871986
0.811848
0.690157
0.802002
0.716259
0.806837
0.815739
0.707008
0.650899
0.751138
0.81292
0.476396
0.873556
0.824366
0.798494
0.808791
0.479037
0.739711
0.781735
0.817583
0.804666
0.80058
0.830224
0.812311
0.705589
0.684956
0.801566
0.806077
0.8093
0.811583
0.808801
0.811904
0.735572
0.791186
0.797194
0.80252
0.764075
0.817657
0.807887
0.812854
0.81162
0.755145
0.805608
0.80408
0.793247
0.812134
0.815694
0.806941
0.657277
0.787467
0.817495
0.812839
0.812259
0.807365
0.812703
0.804215
0.82116
0.821513
0.616633
0.855146
0.744045
0.820602
0.80495
0.746953
0.824496
0.800898
0.825455
0.548472
0.799498
0.679163
0.811982
0.809233
0.522048
0.799954
0.804641
0.798015
0.802093
0.800664
0.772264
0.811843
0.592557
0.805729
0.806104
0.79924
0.818317
0.764963
0.811978
0.809345
0.797903
0.816212
0.796522
0.80286
0.812332
0.634164
0.769293
0.733959
0.490328
0.824721
0.568234
0.80262
0.818812
0.856611
0.703116
0.739654
0.812131
0.806112
0.800938
0.793712
0.765934
0.810903
0.812397
0.797123
0.813111
0.81642
0.472249
0.812361
0.813256
0.806342
0.810097
0.604307
0.815182
0.821534
0.70569
0.788787
0.813165
0.80104
0.828204
0.831327
0.804084
0.742449
0.47329
0.813863
0.5711
0.798774
0.803327
0.774698
0.812008
0.750447
0.811301
0.80659
0.80336
0.486082
0.814259
0.827423
0.830569
0.814768
0.803482
0.803225
0.81239
0.75853
0.847331
0.836885
0.709355
0.79865
0.653416
0.778044
0.66757
0.816076
0.836138
0.798966
0.637864
0.765827
0.813667
0.824439
0.832584
0.813641
0.670506
0.537692
0.804617
0.815904
0.801342
0.81583
0.804736
0.771629
0.85117
0.815229
0.804046
0.816751
0.799013
0.744016
0.798019
0.811388
0.596618
0.689158
0.803321
0.810748
0.804813
0.575132
0.811586
0.604844
0.812401
0.767594
0.816891
0.816306
0.753535
0.806559
0.792405
0.805154
0.836892
0.837204
0.831308
0.804787
0.816128
0.579561
0.812436
0.856789
0.825088
0.829281
0.804206
0.820779
0.799342
0.839822
0.808768
0.814396
0.672682
0.630675
0.835739
0.813365
0.840675
0.715918
0.801238
0.763492
0.797233
0.809588
0.793158
0.807052
0.813081
0.822694
0.828106
0.830073
0.80542
0.750138
0.804114
0.729443
0.793208
0.821518
0.800941
0.815052
0.758271
0.805068
0.804372
0.846983
0.809085
0.80341
0.806034
0.834297
0.831355
0.80359
0.856309
0.795967
0.820065
0.661727
0.803167
0.800249
0.798844
0.831718
0.608828
0.806339
0.805558
0.658588
0.814573
0.829337
0.813845
0.803384
0.806052
0.80251
0.816075
0.798917
0.720435
0.513657
0.813395
0.805643
0.801814
0.804527
0.803004
0.803689
0.810729
0.798108
0.813722
0.583326
0.812816
0.809414
0.811891
0.842355
0.813719
0.834234
0.811411
0.797675
0.812794
0.682431
0.803735
0.850267
0.812826
0.793022
0.814187
0.633946
0.805478
0.566676
0.662447
0.673484
0.80956
0.815505
0.812443
0.497322
0.694495
0.803472
0.830785
0.74736
0.831391
0.805164
0.804753
0.796736
0.694738
0.751308
0.547399
0.802776
0.81168
0.804302
0.820869
0.669889
0.623431
0.854031
0.801553
0.814036
0.729103
0.813552
0.526466
0.820835
0.703347
0.813843
0.817519
0.801687
0.802143
0.825173
0.794881
0.803609
0.803907
0.631359
0.806599
0.653237
0.798814
0.798248
0.813731
0.815341
0.729136
0.8154
0.755772
0.803161
0.72134
0.805004
0.745925
0.671523
0.824546
0.812409
0.799139
0.726402
0.811387
0.658444
0.810926
0.802925
0.728303
0.825865
0.816361
0.637621
0.696058
0.825792
0.80366
0.725657
0.833681
0.834734
0.836126
0.81177
0.548271
0.751072
0.821022
0.820324
0.521399
0.640051
0.815611
0.812469
0.72191
0.778402
0.812061
0.807078
0.757989
0.812194
0.813509
0.803574
0.728814
0.802243
0.796924
0.812096
0.576993
0.805567
0.821788
0.574315
0.818167
0.845383
0.812027
0.676634
0.811756
0.811634
0.811863
0.801166
0.818723
0.803256
0.806693
0.804861
0.803314
0.81352
0.48555
0.809901
0.809701
0.692005
0.603272
0.786104
0.798363
0.812102
0.753269
0.564729
0.811446
0.78352
0.812073
0.821506
0.8135
0.825098
0.74834
0.590472
0.811546
0.839084
0.812023
0.709297
0.803491
0.72733
0.813155
0.811088
0.811932
0.817363
0.80126
0.81308
0.808349
0.757542
0.816248
0.812643
0.75179
0.791907
0.710877
0.558787
0.733598
0.781578
0.815825
0.811334
0.810665
0.810593
0.803299
0.795394
0.808072
0.707239
0.753399
0.811602
0.803431
0.804834
0.818355
0.604257
0.81357
0.803898
0.843544
0.807859
0.636416
0.793694
0.803819
0.842469
0.690861
0.561955
0.577067
0.635265
0.817616
0.80451
0.560481
0.58557
0.819957
0.812201
0.889289
0.80481
0.829445
0.812442
0.769436
0.810814
0.812605
0.812093
0.810648
0.812027
0.798031
0.812183
0.641249
0.81573
0.803633
0.809647
0.756656
0.817162
0.610969
0.855481
0.803933
0.827007
0.812022
0.808007
0.748059
0.822288
0.811932
0.837229
0.81181
0.812526
0.641348
0.826764
0.810164
0.812396
0.836601
0.82257
0.553868
0.796481
0.80278
0.810951
0.816961
0.803942
0.800207
0.815215
0.765119
0.804961
0.815859
0.863455
0.83115
0.586935
0.796068
0.754117
0.814037
0.761528
0.819393
0.804844
0.806394
0.81225
0.789139
0.80562
0.815475
0.821844
0.787353
0.66869
0.733836
0.698011
0.814135
0.835925
0.837848
0.733551
0.808862
0.753925
0.609738
0.812048
0.79947
0.81181
0.803579
0.630969
0.802226
0.776515
0.73669
0.810777
0.744622
0.807601
0.816454
0.859739
0.80964
0.807097
0.739986
0.812502
0.775877
0.839383
0.883749
0.797039
0.520615
0.79969
0.607701
0.769301
0.6573
0.799164
0.49482
0.814999
0.84981
0.805935
0.810632
0.819703
0.80286
0.803254
0.696688
0.822966
0.811947
0.804154
0.806614
0.792445
0.803563
0.806824
0.628538
0.816529
0.802019
0.84523
0.807999
0.804379
0.801491
0.812977
0.813092
0.807554
0.803536
0.787542
0.812164
0.795285
0.801753
0.813267
0.771797
0.567135
0.812669
0.818151
0.803989
0.724512
0.801195
0.807712
0.803484
0.698379
0.873118
0.811623
0.816718
0.81205
0.847751
0.778177
0.812121
0.787636
0.815834
0.822032
0.663252
0.812157
0.728598
0.81901
0.718308
0.799492
0.751215
0.802518
0.578586
0.809214
0.735026
0.476522
0.820161
0.66185
0.769067
0.817219
0.812313
0.776552
0.811254
0.718817
0.638148
0.826157
0.698674
0.816698
0.767372
0.801618
0.807934
0.813262
0.652251
0.804325
0.77485
0.809592
0.812061
0.829018
0.80612
0.687567
0.755467
0.651454
0.798195
0.803032
0.811958
0.8154
0.811907
0.811533
0.809373
0.663483
0.731296
0.488275
0.696499
0.813881
0.808113
0.832959
0.809419
0.814686
0.709988
0.874063
0.815157
0.826179
0.571563
0.822867
0.812172
0.840668
0.845534
0.826547
0.830037
0.820169
0.540546
0.805737
0.814911
0.715939
0.816752
0.801326
0.812107
0.807949
0.81259
0.812654
0.76719
0.721174
0.798014
0.800333
0.571782
0.814003
0.859001
0.815297
0.65895
0.822491
0.81311
0.819518
0.835209
0.687995
0.48663
0.80485
0.839835
0.806068
0.803909
0.814198
0.801572
0.812424
0.809509
0.799952
0.804249
0.804688
0.812458
0.80556
0.806172
0.7986
0.836103
0.830668
0.853197
0.81288
0.80739
0.814447
0.812968
0.812062
0.811007
0.815561
0.833963
0.808608
0.811091
0.600947
0.830514
0.710572
0.868162
0.803625
0.833261
0.799064
0.786094
0.785718
0.74001
0.821163
0.810944
0.811523
0.813367
0.775845
0.80786
0.584325
0.806078
0.812978
0.813131
0.795688
0.812048
0.611102
0.783499
0.558331
0.82076
0.796922
0.774543
0.801915
0.813658
0.812416
0.81245
0.737873
0.808257
0.811907
0.810368
0.803653
0.803821
0.747272
0.767307
0.809281
0.80373
0.696458
0.597946
0.4899
0.841017
0.80607
0.778598
0.781217
0.824256
0.803576
0.803966
0.818015
0.779243
0.756993
0.816136
0.807488
0.81115
0.837198
0.804839
0.811725
0.808258
0.483638
0.803447
0.811878
0.773735
0.819399
0.814192
0.825579
0.599656
0.710305
0.573082
0.828254
0.815589
0.743323
0.811839
0.67678
0.813749
0.810641
0.811878
0.803117
0.811843
0.576963
0.686419
0.806133
0.813286
0.793703
0.801292
0.831024
0.798725
0.803018
0.643088
0.807774
0.81194
0.804289
0.812246
0.802741
0.617035
0.814287
0.812361
0.572508
0.697278
0.793142
0.828174
0.697588
0.804003
0.79365
0.81212
0.756559
0.684971
0.81042
0.795909
0.799337
0.76636
0.540734
0.820228
0.673544
0.747707
0.731282
0.803974
0.797338
0.81144
0.660167
0.767584
0.803977
0.814976
0.592654
0.798935
0.825756
0.807189
0.539269
0.805603
0.783428
0.707251
0.70598
0.800405
0.819109
0.812991
0.80866
0.699655
0.739661
0.641483
0.832308
0.842881
0.816883
0.788172
0.86521
0.696928
0.813335
0.766772
0.790243
0.795537
0.811954
0.80399
0.811578
0.787089
0.755279
0.819735
0.796771
0.842119
0.719358
0.791394
0.805525
0.723275
0.803246
0.814472
0.576029
0.801951
0.799003
0.802795
0.821174
0.764291
0.800176
0.72265
0.812132
0.808836
0.725234
0.812133
0.8162
0.828642
0.805595
0.787127
0.797682
0.805635
0.726481
0.812444
0.801204
0.677625
0.806905
0.780291
0.831886
0.820878
0.818993
0.839294
0.848278
0.699227
0.813711
0.795548
0.787317
0.617573
0.81694
0.803666
0.812216
0.77618
0.85346
0.832794
0.781818
0.842063
0.779797
0.800641
0.771984
0.812207
0.721727
0.63584
0.844196
0.661063
0.792819
0.839718
0.812426
0.671222
0.809242
0.751918
0.80398
0.799011
0.781365
0.804162
0.801101
0.802803
0.801901
0.785625
0.812015
0.781441
0.816256
0.807477
0.712752
0.783868
0.815158
0.812448
0.805495
0.564113
0.825112
0.812857
0.812038
0.703584
0.804781
0.801117
0.801344
0.815892
0.746216
0.815975
0.800589
0.804593
0.755256
0.811477
0.812749
0.805933
0.769027
0.807935
0.812978
0.808051
0.81583
0.808343
0.806071
0.82293
0.804605
0.788768
0.806245
0.812183
0.818165
0.778769
0.703585
0.813768
0.812187
0.800795
0.742508
0.788818
0.654126
0.803393
0.540325
0.803173
0.814415
0.774914
0.83459
0.515506
0.809472
0.738474
0.810473
0.53436
0.804381
0.827857
0.81332
0.818729
0.734334
0.840932
0.553743
0.823538
0.702607
0.799603
0.477891
0.669916
0.812559
0.812052
0.741784
0.801026
0.820874
0.6121
0.821999
0.770905
0.833493
0.812057
0.814153
0.81314
0.803832
0.836851
0.810686
0.803766
0.476294
0.803115
0.843488
0.80225
0.801369
0.76761
0.805443
0.811996
0.812151
0.796641
0.734343
0.810436
0.815497
0.603064
0.804173
0.537383
0.815659
0.539739
0.811997
0.770424
0.682595
0.733439
0.783093
0.713112
0.841575
0.813723
0.796905
0.803982
0.703382
0.802563
0.789475
0.802457
0.814979
0.801741
0.731357
0.698111
0.800646
0.77231
0.519052
0.811212
0.663468
0.794117
0.705487
0.825041
0.809446
0.825056
0.810212
0.837196
0.807297
0.580153
0.829246
0.807054
0.801584
0.815437
0.811988
0.812603
0.814582
0.825132
0.816394
0.618165
0.804755
0.800663
0.812903
0.692226
0.80232
0.823277
0.756407
0.688624
0.807532
0.688507
0.731723
0.810071
0.812718
0.668598
0.841475
0.766976
0.805398
0.796489
0.809803
0.844495
0.801073
0.539005
0.814897
0.708025
0.530518
0.77818
0.758175
0.769562
0.812203
0.803519
0.816391
0.812021
0.585878
0.787504
0.831281
0.812101
0.591287
0.721642
0.635054
0.816663
0.81047
0.690976
0.803991
0.812177
0.799371
0.834251
0.606227
0.840342
0.740147
0.81197
0.812479
0.669413
0.812541
0.720869
0.791836
0.716383
0.811907
0.784479
0.634
0.724212
0.712453
0.833148
0.809418
0.819327
0.822037
0.803347
0.808525
0.802852
0.817642
0.803263
0.687235
0.803448
0.603551
0.776746
0.807184
0.802343
0.812175
0.824267
0.803329
0.717048
0.710265
0.66728
0.790313
0.816734
0.74903
0.579938
0.751523
0.81026
0.801861
0.760226
0.803613
0.823152
0.753256
0.568872
0.702158
0.798657
0.812174
0.864294
0.814634
0.811779
0.85182
0.799613
0.801859
0.814413
0.812271
0.805371
0.717688
0.809155
0.695554
0.862234
0.778701
0.813441
0.574672
0.796545
0.529282
0.583299
0.5854
0.807935
0.803634
0.809289
0.758197
0.803557
0.532379
0.782254
0.802959
0.734619
0.814349
0.80168
0.81585
0.842892
0.516263
0.812057
0.802086
0.809607
0.816737
0.812889
0.812359
0.754181
0.797201
0.798803
0.803236
0.797617
0.810742
0.845353
0.818574
0.723762
0.804688
0.608255
0.813219
0.812073
0.586662
0.766878
0.766944
0.536439
0.7843
0.803644
0.878265
0.798415
0.813124
0.755249
0.794429
0.797095
0.80926
0.782694
0.542075
0.710857
0.680463
0.781068
0.814669
0.802901
0.821832
0.790245
0.80185
0.812814
0.798132
0.852156
0.704739
0.811887
0.780694
0.531067
0.516343
0.812927
0.803549
0.80545
0.560473
0.796992
0.803747
0.659164
0.81375
0.790645
0.8066
0.814833
0.534228
0.724468
0.718889
0.812479
0.832049
0.630036
0.789841
0.71695
0.813623
0.827269
0.77945
0.773188
0.535328
0.811551
0.80241
0.723682
0.852078
0.805822
0.72282
0.739886
0.76391
0.810833
0.563494
0.796707
0.737956
0.800332
0.821882
0.720093
0.799227
0.81178
0.716546
0.813019
0.706012
0.816009
0.798255
0.75965
0.690065
0.808934
0.80001
0.813396
0.669616
0.805378
0.804888
0.811625
0.699497
0.812178
0.808421
0.831762
0.651481
0.815517
0.740789
0.811967
0.805754
0.842211
0.803689
0.818939
0.749056
0.81521
0.838802
0.832832
0.816465
0.845642
0.75231
0.847812
0.826048
0.803873
0.825757
0.805623
0.64666
0.778104
0.813953
0.746851
0.695263
0.798508
0.804116
0.680323
0.79749
0.538068
0.848504
0.696272
0.706263
0.813597
0.774496
0.806915
0.798942
0.806976
0.803893
0.812058
0.835675
0.730101
0.772173
0.588314
0.81005
0.777036
0.810923
0.80512
0.570106
0.802912
0.802533
0.807526
0.798681
0.816757
0.808161
0.709709
0.823147
0.847979
0.684469
0.743665
0.812214
0.80098
0.712452
0.814308
0.754395
0.796799
0.802913
0.805374
0.83716
0.668775
0.723199
0.800807
0.702053
0.772659
0.832163
0.532102
0.691328
0.799589
0.804294
0.803368
0.741741
0.822401
0.806925
0.803667
0.808139
0.813334
0.69612
0.649353
0.809684
0.813836
0.799285
0.871559
0.802755
0.8124
0.799054
0.809991
0.811313
0.80838
0.653158
0.814756
0.816611
0.803444
0.801928
0.799429
0.617347
0.809745
0.810555
0.812463
0.86239
0.81446
0.801499
0.48086
0.836364
0.692819
0.826413
0.80581
0.813799
0.824069
0.809137
0.812112
0.731049
0.55145
0.49195
0.812373
0.808999
0.534244
0.795576
0.814525
0.833305
0.504214
0.809593
0.813469
0.802299
0.809098
0.530451
0.813156
0.808257
0.560036
0.812255
0.815296
0.538903
0.808807
0.812707
0.775858
0.806311
0.811197
0.809549
0.799044
0.825899
0.533935
0.830214
0.815817
0.804074
0.742141
0.78622
0.811405
0.809407
0.802169
0.815972
0.800711
0.657326
0.806206
0.586639
0.812014
0.659909
0.746365
0.797009
0.718327
0.803545
0.579789
0.849749
0.812251
0.812378
0.79932
0.802724
0.803183
0.813656
0.814402
0.670154
0.717816
0.726324
0.814817
0.721492
0.576247
0.817425
0.783749
0.827899
0.811732
0.809394
0.732544
0.53607
0.798733
0.790081
0.496395
0.813888
0.813051
0.73563
0.805928
0.768546
0.607195
0.809993
0.814665
0.788677
0.609861
0.80232
0.782989
0.826375
0.813019
0.810436
0.811907
0.812879
0.71558
0.800107
0.815777
0.694943
0.480745
0.733036
0.798815
0.730871
0.813056
0.798177
0.805537
0.782592
0.867339
0.803556
0.801681
0.825802
0.859343
0.804623
0.81573
0.794379
0.815946
0.789178
0.744046
0.811927
0.804269
0.816265
0.803253
0.790857
0.842816
0.76612
0.812777
0.773411
0.803755
0.642602
0.509566
0.800997
0.802179
0.809578
0.798162
0.799713
0.811975
0.77293
0.804657
0.812056
0.782238
0.816945
0.777167
0.593457
0.805056
0.760904
0.776235
0.750514
0.763672
0.793937
0.788595
0.823053
0.787533
0.809431
0.80337
0.765174
0.81556
0.542403
0.729609
0.810592
0.814041
0.811459
0.802371
0.812883
0.810556
0.805763
0.821195
0.809697
0.782976
0.816648
0.801738
0.790523
0.795909
0.805176
0.586225
0.803632
0.79219
0.574626
0.813216
0.807246
0.806054
0.81077
0.702421
0.75486
0.821148
0.774902
0.811402
0.816369
0.722103
0.804489
0.82414
0.720126
0.799443
0.809565
0.778606
0.804764
0.837018
0.801921
0.817367
0.772566
0.805345
0.800344
0.813126
0.802163
0.797954
0.58883
0.815263
0.786775
0.806643
0.825658
0.69135
0.828584
0.819997
0.505513
0.806425
0.80446
0.801536
0.812316
0.824273
0.824094
0.804917
0.805955
0.814214
0.813389
0.803525
0.812616
0.80477
0.749292
0.708402
0.780949
0.813713
0.812135
0.775904
0.757831
0.813939
0.824965
0.810537
0.812271
0.691771
0.500946
0.747774
0.817576
0.806761
0.816286
0.844213
0.79993
0.715019
0.654381
0.799723
0.804739
0.694347
0.812719
0.671369
0.83684
0.729288
0.812899
0.895264
0.815623
0.800859
0.777782
0.811118
0.681637
0.814206
0.808268
0.791533
0.805654
0.77942
0.800703
0.810041
0.780519
0.80358
0.852086
0.777021
0.802137
0.493197
0.803207
0.693955
0.804104
0.794464
0.788588
0.783658
0.72227
0.802142
0.788227
0.844483
0.813334
0.812495
0.811835
0.895522
0.746485
0.802745
0.730954
0.80316
0.798426
0.804526
0.716851
0.800977
0.805514
0.639305
0.808706
0.748632
0.534807
0.846536
0.847358
0.750093
0.810777
0.79469
0.772073
0.731853
0.776027
0.785512
0.736277
0.803861
0.804449
0.719611
0.815357
0.804987
0.557025
0.812049
0.821486
0.813287
0.803512
0.610785
0.715148
0.806284
0.859196
0.484049
0.724614
0.806492
0.815975
0.796486
0.713177
0.710873
0.809033
0.813284
0.815055
0.837109
0.745167
0.754451
0.875759
0.806887
0.809276
0.795186
0.637833
0.598146
0.586126
0.657137
0.586467
0.764267
0.80077
0.803414
0.812319
0.809162
0.811487
0.860179
0.715587
0.823904
0.813941
0.817132
0.816683
0.813869
0.813016
0.811626
0.811999
0.657308