# vtk DataFile Version 1.0
unstructured grid
ascii
DATASET UNSTRUCTURED_GRID
points 14760 float
-1 0 0
-1 1 0
2 0 0
2 1 0
0 0 0
1 0 0
-1 1 0.1
-1 0 0.1
0 0 0.1
1 0 0.1
2 0 0.1
2 1 0.1
-0.99 0 0
-0.98 0 0
-0.97 0 0
-0.96 0 0
-0.95 0 0
-0.94 0 0
-0.93 0 0
-0.92 0 0
-0.91 0 0
-0.9 0 0
-0.89 0 0
-0.88 0 0
-0.87 0 0
-0.86 0 0
-0.85 0 0
-0.84 0 0
-0.83 0 0
-0.82 0 0
-0.81 0 0
-0.8 0 0
-0.79 0 0
-0.78 0 0
-0.77 0 0
-0.76 0 0
-0.75 0 0
-0.74 0 0
-0.73 0 0
-0.72 0 0
-0.71 0 0
-0.7 0 0
-0.69 0 0
-0.68 0 0
-0.67 0 0
-0.66 0 0
-0.65 0 0
-0.64 0 0
-0.63 0 0
-0.62 0 0
-0.61 0 0
-0.6 0 0
-0.59 0 0
-0.58 0 0
-0.57 0 0
-0.56 0 0
-0.55 0 0
-0.54 0 0
-0.53 0 0
-0.52 0 0
-0.51 0 0
-0.5 0 0
-0.49 0 0
-0.48 0 0
-0.47 0 0
-0.46 0 0
-0.45 0 0
-0.44 0 0
-0.43 0 0
-0.42 0 0
-0.41 0 0
-0.4 0 0
-0.39 0 0
-0.38 0 0
-0.37 0 0
-0.36 0 0
-0.35 0 0
-0.34 0 0
-0.33 0 0
-0.32 0 0
-0.31 0 0
-0.3 0 0
-0.29 0 0
-0.28 0 0
-0.27 0 0
-0.26 0 0
-0.25 0 0
-0.24 0 0
-0.23 0 0
-0.22 0 0
-0.21 0 0
-0.2 0 0
-0.19 0 0
-0.18 0 0
-0.17 0 0
-0.16 0 0
-0.15 0 0
-0.14 0 0
-0.13 0 0
-0.12 0 0
-0.11 0 0
-0.1 0 0
-0.09 0 0
-0.08 0 0
-0.07 0 0
-0.06 0 0
-0.05 0 0
-0.04 0 0
-0.03 0 0
-0.02 0 0
-0.01 0 0
1.01 0 0
1.02 0 0
1.03 0 0
1.04 0 0
1.05 0 0
1.06 0 0
1.07 0 0
1.08 0 0
1.09 0 0
1.1 0 0
1.11 0 0
1.12 0 0
1.13 0 0
1.14 0 0
1.15 0 0
1.16 0 0
1.17 0 0
1.18 0 0
1.19 0 0
1.2 0 0
1.21 0 0
1.22 0 0
1.23 0 0
1.24 0 0
1.25 0 0
1.26 0 0
1.27 0 0
1.28 0 0
1.29 0 0
1.3 0 0
1.31 0 0
1.32 0 0
1.33 0 0
1.34 0 0
1.35 0 0
1.36 0 0
1.37 0 0
1.38 0 0
1.39 0 0
1.4 0 0
1.41 0 0
1.42 0 0
1.43 0 0
1.44 0 0
1.45 0 0
1.46 0 0
1.47 0 0
1.48 0 0
1.49 0 0
1.5 0 0
1.51 0 0
1.52 0 0
1.53 0 0
1.54 0 0
1.55 0 0
1.56 0 0
1.57 0 0
1.58 0 0
1.59 0 0
1.6 0 0
1.61 0 0
1.62 0 0
1.63 0 0
1.64 0 0
1.65 0 0
1.66 0 0
1.67 0 0
1.68 0 0
1.69 0 0
1.7 0 0
1.71 0 0
1.72 0 0
1.73 0 0
1.74 0 0
1.75 0 0
1.76 0 0
1.77 0 0
1.78 0 0
1.79 0 0
1.8 0 0
1.81 0 0
1.82 0 0
1.83 0 0
1.84 0 0
1.85 0 0
1.86 0 0
1.87 0 0
1.88 0 0
1.89 0 0
1.9 0 0
1.91 0 0
1.92 0 0
1.93 0 0
1.94 0 0
1.95 0 0
1.96 0 0
1.97 0 0
1.98 0 0
1.99 0 0
2 0.0100088 0
2 0.0204183 0
2 0.0312446 0
2 0.0425043 0
2 0.0542147 0
2 0.066394 0
2 0.079061 0
2 0.092235 0
2 0.105936 0
2 0.120186 0
2 0.135007 0
2 0.150421 0
2 0.166452 0
2 0.183124 0
2 0.200465 0
2 0.218499 0
2 0.237256 0
2 0.256763 0
2 0.277051 0
2 0.298152 0
2 0.320097 0
2 0.342921 0
2 0.366659 0
2 0.391347 0
2 0.417024 0
2 0.443728 0
2 0.471502 0
2 0.500387 0
2 0.530429 0
2 0.561674 0
2 0.594169 0
2 0.627966 0
2 0.663115 0
2 0.699672 0
2 0.737692 0
2 0.777235 0
2 0.818361 0
2 0.861133 0
2 0.905617 0
2 0.951882 0
1.95 1 0
1.9 1 0
1.85 1 0
1.8 1 0
1.75 1 0
1.7 1 0
1.65 1 0
1.6 1 0
1.55 1 0
1.5 1 0
1.45 1 0
1.4 1 0
1.35 1 0
1.3 1 0
1.25 1 0
1.2 1 0
1.15 1 0
1.1 1 0
1.05 1 0
1 1 0
0.95 1 0
0.9 1 0
0.85 1 0
0.8 1 0
0.75 1 0
0.7 1 0
0.65 1 0
0.6 1 0
0.55 1 0
0.5 1 0
0.45 1 0
0.4 1 0
0.35 1 0
0.3 1 0
0.25 1 0
0.2 1 0
0.15 1 0
0.1 1 0
0.05 1 0
3.69793e-12 1 0
-0.05 1 0
-0.1 1 0
-0.15 1 0
-0.2 1 0
-0.25 1 0
-0.3 1 0
-0.35 1 0
-0.4 1 0
-0.45 1 0
-0.5 1 0
-0.55 1 0
-0.6 1 0
-0.65 1 0
-0.7 1 0
-0.75 1 0
-0.8 1 0
-0.85 1 0
-0.9 1 0
-0.95 1 0
-1 0.951882 0
-1 0.905617 0
-1 0.861133 0
-1 0.818361 0
-1 0.777235 0
-1 0.737692 0
-1 0.699672 0
-1 0.663115 0
-1 0.627966 0
-1 0.594169 0
-1 0.561674 0
-1 0.530429 0
-1 0.500387 0
-1 0.471502 0
-1 0.443728 0
-1 0.417024 0
-1 0.391347 0
-1 0.366659 0
-1 0.342921 0
-1 0.320097 0
-1 0.298152 0
-1 0.277051 0
-1 0.256763 0
-1 0.237256 0
-1 0.218499 0
-1 0.200465 0
-1 0.183124 0
-1 0.166452 0
-1 0.150421 0
-1 0.135007 0
-1 0.120186 0
-1 0.105936 0
-1 0.092235 0
-1 0.079061 0
-1 0.066394 0
-1 0.0542147 0
-1 0.0425043 0
-1 0.0312446 0
-1 0.0204183 0
-1 0.0100088 0
0.00921362 0.00379763 0
0.0184561 0.00752451 0
0.0277268 0.0111804 0
0.0370253 0.0147652 0
0.0463511 0.0182786 0
0.0557034 0.0217203 0
0.0650819 0.0250903 0
0.074486 0.0283883 0
0.083915 0.0316141 0
0.0933685 0.0347675 0
0.102846 0.0378484 0
0.112347 0.0408565 0
0.12187 0.0437917 0
0.131416 0.0466538 0
0.140983 0.0494427 0
0.150572 0.0521581 0
0.160181 0.0547999 0
0.16981 0.0573681 0
0.179458 0.0598623 0
0.189125 0.0622825 0
0.198811 0.0646285 0
0.208514 0.0669001 0
0.218234 0.0690974 0
0.227971 0.07122 0
0.237724 0.073268 0
0.247493 0.0752411 0
0.257276 0.0771393 0
0.267073 0.0789625 0
0.276884 0.0807105 0
0.286708 0.0823832 0
0.296545 0.0839806 0
0.306394 0.0855025 0
0.316254 0.0869488 0
0.326125 0.0883196 0
0.336006 0.0896146 0
0.345896 0.0908339 0
0.355796 0.0919773 0
0.365704 0.0930447 0
0.375621 0.0940362 0
0.385544 0.0949517 0
0.395474 0.095791 0
0.40541 0.0965542 0
0.415352 0.0972412 0
0.425299 0.097852 0
0.43525 0.0983865 0
0.445205 0.0988447 0
0.455164 0.0992266 0
0.465125 0.0995321 0
0.475088 0.0997613 0
0.485052 0.0999141 0
0.495017 0.0999904 0
0.504983 0.0999904 0
0.514948 0.0999141 0
0.524912 0.0997613 0
0.534875 0.0995321 0
0.544836 0.0992266 0
0.554795 0.0988447 0
0.56475 0.0983865 0
0.574701 0.097852 0
0.584648 0.0972412 0
0.59459 0.0965542 0
0.604526 0.095791 0
0.614456 0.0949517 0
0.624379 0.0940362 0
0.634296 0.0930447 0
0.644204 0.0919773 0
0.654104 0.0908339 0
0.663994 0.0896146 0
0.673875 0.0883196 0
0.683746 0.0869488 0
0.693606 0.0855025 0
0.703455 0.0839806 0
0.713292 0.0823832 0
0.723116 0.0807105 0
0.732927 0.0789625 0
0.742724 0.0771393 0
0.752508 0.0752411 0
0.762276 0.073268 0
0.772029 0.07122 0
0.781766 0.0690974 0
0.791486 0.0669001 0
0.801189 0.0646285 0
0.810875 0.0622825 0
0.820542 0.0598623 0
0.83019 0.0573681 0
0.839819 0.0547999 0
0.849428 0.0521581 0
0.859017 0.0494427 0
0.868584 0.0466538 0
0.87813 0.0437917 0
0.887653 0.0408565 0
0.897154 0.0378484 0
0.906631 0.0347675 0
0.916085 0.0316141 0
0.925514 0.0283883 0
0.934918 0.0250903 0
0.944297 0.0217203 0
0.953649 0.0182786 0
0.962975 0.0147652 0
0.972273 0.0111804 0
0.981544 0.00752451 0
0.990786 0.00379763 0
-1 0.951882 0.1
-1 0.905617 0.1
-1 0.861133 0.1
-1 0.818361 0.1
-1 0.777235 0.1
-1 0.737692 0.1
-1 0.699672 0.1
-1 0.663115 0.1
-1 0.627966 0.1
-1 0.594169 0.1
-1 0.561674 0.1
-1 0.530429 0.1
-1 0.500387 0.1
-1 0.471502 0.1
-1 0.443728 0.1
-1 0.417024 0.1
-1 0.391347 0.1
-1 0.366659 0.1
-1 0.342921 0.1
-1 0.320097 0.1
-1 0.298152 0.1
-1 0.277051 0.1
-1 0.256763 0.1
-1 0.237256 0.1
-1 0.218499 0.1
-1 0.200465 0.1
-1 0.183124 0.1
-1 0.166452 0.1
-1 0.150421 0.1
-1 0.135007 0.1
-1 0.120186 0.1
-1 0.105936 0.1
-1 0.092235 0.1
-1 0.079061 0.1
-1 0.066394 0.1
-1 0.0542147 0.1
-1 0.0425043 0.1
-1 0.0312446 0.1
-1 0.0204183 0.1
-1 0.0100088 0.1
-0.99 0 0.1
-0.98 0 0.1
-0.97 0 0.1
-0.96 0 0.1
-0.95 0 0.1
-0.94 0 0.1
-0.93 0 0.1
-0.92 0 0.1
-0.91 0 0.1
-0.9 0 0.1
-0.89 0 0.1
-0.88 0 0.1
-0.87 0 0.1
-0.86 0 0.1
-0.85 0 0.1
-0.84 0 0.1
-0.83 0 0.1
-0.82 0 0.1
-0.81 0 0.1
-0.8 0 0.1
-0.79 0 0.1
-0.78 0 0.1
-0.77 0 0.1
-0.76 0 0.1
-0.75 0 0.1
-0.74 0 0.1
-0.73 0 0.1
-0.72 0 0.1
-0.71 0 0.1
-0.7 0 0.1
-0.69 0 0.1
-0.68 0 0.1
-0.67 0 0.1
-0.66 0 0.1
-0.65 0 0.1
-0.64 0 0.1
-0.63 0 0.1
-0.62 0 0.1
-0.61 0 0.1
-0.6 0 0.1
-0.59 0 0.1
-0.58 0 0.1
-0.57 0 0.1
-0.56 0 0.1
-0.55 0 0.1
-0.54 0 0.1
-0.53 0 0.1
-0.52 0 0.1
-0.51 0 0.1
-0.5 0 0.1
-0.49 0 0.1
-0.48 0 0.1
-0.47 0 0.1
-0.46 0 0.1
-0.45 0 0.1
-0.44 0 0.1
-0.43 0 0.1
-0.42 0 0.1
-0.41 0 0.1
-0.4 0 0.1
-0.39 0 0.1
-0.38 0 0.1
-0.37 0 0.1
-0.36 0 0.1
-0.35 0 0.1
-0.34 0 0.1
-0.33 0 0.1
-0.32 0 0.1
-0.31 0 0.1
-0.3 0 0.1
-0.29 0 0.1
-0.28 0 0.1
-0.27 0 0.1
-0.26 0 0.1
-0.25 0 0.1
-0.24 0 0.1
-0.23 0 0.1
-0.22 0 0.1
-0.21 0 0.1
-0.2 0 0.1
-0.19 0 0.1
-0.18 0 0.1
-0.17 0 0.1
-0.16 0 0.1
-0.15 0 0.1
-0.14 0 0.1
-0.13 0 0.1
-0.12 0 0.1
-0.11 0 0.1
-0.1 0 0.1
-0.09 0 0.1
-0.08 0 0.1
-0.07 0 0.1
-0.06 0 0.1
-0.05 0 0.1
-0.04 0 0.1
-0.03 0 0.1
-0.02 0 0.1
-0.01 0 0.1
0.00921362 0.00379763 0.1
0.0184561 0.00752451 0.1
0.0277268 0.0111804 0.1
0.0370253 0.0147652 0.1
0.0463511 0.0182786 0.1
0.0557034 0.0217203 0.1
0.0650819 0.0250903 0.1
0.074486 0.0283883 0.1
0.083915 0.0316141 0.1
0.0933685 0.0347675 0.1
0.102846 0.0378484 0.1
0.112347 0.0408565 0.1
0.12187 0.0437917 0.1
0.131416 0.0466538 0.1
0.140983 0.0494427 0.1
0.150572 0.0521581 0.1
0.160181 0.0547999 0.1
0.16981 0.0573681 0.1
0.179458 0.0598623 0.1
0.189125 0.0622825 0.1
0.198811 0.0646285 0.1
0.208514 0.0669001 0.1
0.218234 0.0690974 0.1
0.227971 0.07122 0.1
0.237724 0.073268 0.1
0.247493 0.0752411 0.1
0.257276 0.0771393 0.1
0.267073 0.0789625 0.1
0.276884 0.0807105 0.1
0.286708 0.0823832 0.1
0.296545 0.0839806 0.1
0.306394 0.0855025 0.1
0.316254 0.0869488 0.1
0.326125 0.0883196 0.1
0.336006 0.0896146 0.1
0.345896 0.0908339 0.1
0.355796 0.0919773 0.1
0.365704 0.0930447 0.1
0.375621 0.0940362 0.1
0.385544 0.0949517 0.1
0.395474 0.095791 0.1
0.40541 0.0965542 0.1
0.415352 0.0972412 0.1
0.425299 0.097852 0.1
0.43525 0.0983865 0.1
0.445205 0.0988447 0.1
0.455164 0.0992266 0.1
0.465125 0.0995321 0.1
0.475088 0.0997613 0.1
0.485052 0.0999141 0.1
0.495017 0.0999904 0.1
0.504983 0.0999904 0.1
0.514948 0.0999141 0.1
0.524912 0.0997613 0.1
0.534875 0.0995321 0.1
0.544836 0.0992266 0.1
0.554795 0.0988447 0.1
0.56475 0.0983865 0.1
0.574701 0.097852 0.1
0.584648 0.0972412 0.1
0.59459 0.0965542 0.1
0.604526 0.095791 0.1
0.614456 0.0949517 0.1
0.624379 0.0940362 0.1
0.634296 0.0930447 0.1
0.644204 0.0919773 0.1
0.654104 0.0908339 0.1
0.663994 0.0896146 0.1
0.673875 0.0883196 0.1
0.683746 0.0869488 0.1
0.693606 0.0855025 0.1
0.703455 0.0839806 0.1
0.713292 0.0823832 0.1
0.723116 0.0807105 0.1
0.732927 0.0789625 0.1
0.742724 0.0771393 0.1
0.752508 0.0752411 0.1
0.762276 0.073268 0.1
0.772029 0.07122 0.1
0.781766 0.0690974 0.1
0.791486 0.0669001 0.1
0.801189 0.0646285 0.1
0.810875 0.0622825 0.1
0.820542 0.0598623 0.1
0.83019 0.0573681 0.1
0.839819 0.0547999 0.1
0.849428 0.0521581 0.1
0.859017 0.0494427 0.1
0.868584 0.0466538 0.1
0.87813 0.0437917 0.1
0.887653 0.0408565 0.1
0.897154 0.0378484 0.1
0.906631 0.0347675 0.1
0.916085 0.0316141 0.1
0.925514 0.0283883 0.1
0.934918 0.0250903 0.1
0.944297 0.0217203 0.1
0.953649 0.0182786 0.1
0.962975 0.0147652 0.1
0.972273 0.0111804 0.1
0.981544 0.00752451 0.1
0.990786 0.00379763 0.1
1.01 0 0.1
1.02 0 0.1
1.03 0 0.1
[...]
CELL_DATA 14313
SCALARS rho float
LOOKUP_TABLE default
0.857491
0.802351
0.794227
0.74213
0.855676
0.93642
0.934672
0.935068
0.796395
0.797753
0.936582
0.797542
0.802591
0.748403
0.933402
0.908647
0.796601
0.795205
0.9287
0.794138
0.935327
0.797897
0.934868
0.855821
0.933649
0.797562
0.83756
0.755574
0.802059
0.905944
0.935684
0.800155
0.796646
0.933645
0.799015
0.92866
0.800963
0.796573
0.933415
0.801312
0.841017
0.934872
0.743658
0.812654
0.920817
0.885674
0.931376
0.78694
0.880174
0.820135
0.798896
0.790566
0.765884
0.928659
0.913389
0.792981
0.920862
0.798328
0.796351
0.933599
0.936351
0.920734
0.800343
0.887411
0.934824
0.931512
0.821287
0.790873
0.906571
0.933402
0.79751
0.908803
0.738686
0.902715
0.818194
0.912374
0.803293
0.83973
0.81279
0.935298
0.762526
0.906226
0.88398
0.801901
0.910388
0.918485
0.936367
0.79931
0.881063
0.794983
0.792063
0.7495
0.796861
0.800395
0.818386
0.801208
0.927966
0.931558
0.800489
0.73992
0.895648
0.931516
0.93478
0.878559
0.838639
0.796558
0.800427
0.814726
0.904941
0.928448
0.79706
0.911916
0.925866
0.918563
0.800382
0.90805
0.913427
0.902725
0.791897
0.800649
0.933244
0.931922
0.897833
0.816924
0.814754
0.842353
0.871218
0.799251
0.928423
0.814551
0.930229
0.935618
0.898082
0.935036
0.914768
0.793274
0.796356
0.79403
0.921026
0.922864
0.934673
0.914832
0.804312
0.802792
0.792461
0.906694
0.797912
0.783368
0.865916
0.922671
0.800029
0.802148
0.934871
0.815307
0.906141
0.801127
0.826559
0.917091
0.934319
0.79673
0.920518
0.796669
0.774846
0.783163
0.914979
0.80309
0.771519
0.931882
0.909601
0.798438
0.805677
0.798041
0.819137
0.869914
0.920852
0.804117
0.92318
0.879804
0.917318
0.78499
0.935347
0.930283
0.852745
0.779325
0.792897
0.798688
0.933513
0.792428
0.735398
0.860735
0.78833
0.785161
0.783317
0.786643
0.933549
0.922422
0.796912
0.802169
0.920433
0.923743
0.845542
0.800502
0.909419
0.928014
0.905131
0.802672
0.79823
0.797203
0.934409
0.887927
0.797032
0.895625
0.866802
0.815756
0.92797
0.804156
0.931381
0.79631
0.903512
0.798527
0.801381
0.799419
0.920273
0.906882
0.890805
0.800614
0.921705
0.803538
0.93506
0.843515
0.775262
0.79765
0.813347
0.91034
0.803491
0.817102
0.929111
0.927702
0.922061
0.804243
0.789452
0.754854
0.839108
0.768659
0.926261
0.826756
0.797026
0.797079
0.901491
0.798297
0.755599
0.800324
0.776327
0.907692
0.799368
0.808012
0.896865
0.907798
0.928198
0.754703
0.796889
0.799433
0.897014
0.898022
0.861637
0.852801
0.797911
0.797799
0.749388
0.928446
0.928669
0.785782
0.794866
0.93665
0.787474
0.914218
0.872507
0.814902
0.793225
0.798025
0.753189
0.743715
0.788169
0.923227
0.917932
0.793043
0.936438
0.928141
0.786435
0.797624
0.801798
0.92397
0.910275
0.875144
0.79627
0.796996
0.778764
0.876805
0.785949
0.799971
0.799869
0.781241
0.903448
0.796582
0.802438
0.798266
0.79546
0.879615
0.796466
0.799661
0.798146
0.797839
0.790681
0.925847
0.801174
0.7989
0.936616
0.928833
0.796985
0.8629
0.929734
0.760524
0.927081
0.935469
0.928539
0.931816
0.849568
0.90532
0.803294
0.929589
0.927947
0.769875
0.784754
0.80413
0.804093
0.738659
0.934593
0.797074
0.796353
0.929422
0.798596
0.800711
0.775804
0.818715
0.928739
0.839935
0.789609
0.802903
0.907499
0.928758
0.798216
0.796401
0.934936
0.797997
0.923231
0.871592
0.923415
0.796698
0.932449
0.866205
0.929131
0.874132
0.936052
0.762354
0.803233
0.80183
0.797108
0.874457
0.849978
0.794969
0.935148
0.934774
0.921482
0.783586
0.799022
0.888952
0.842165
0.773554
0.796768
0.910436
0.910525
0.91315
0.801732
0.797084
0.767815
0.861493
0.768655
0.797553
0.793055
0.906096
0.926903
0.90978
0.739448
0.767117
0.90216
0.908553
0.926467
0.809252
0.797358
0.785634
0.906733
0.79843
0.81808
0.788728
0.839877
0.929121
0.739527
0.909349
0.912904
0.896149
0.79662
0.736677
0.830997
0.857898
0.922274
0.796742
0.799647
0.909353
0.93515
0.812846
0.803148
0.803248
0.797367
0.933559
0.935926
0.795116
0.936358
0.830696
0.789428
0.796746
0.801514
0.848137
0.922069
0.794795
0.933243
0.935873
0.84462
0.798323
0.801
0.881091
0.935749
0.908571
0.901063
0.790896
0.791994
0.899203
0.7967
0.918703
0.797013
0.929849
0.795198
0.903402
0.906618
0.752408
0.906713
0.83789
0.917674
0.893496
0.769696
0.880089
0.80297
0.911584
0.745286
0.796541
0.800595
0.936342
0.796612
0.748119
0.792396
0.7991
0.79692
0.793048
0.905904
0.852398
0.936145
0.766108
0.797573
0.797597
0.792212
0.91615
0.848009
0.936295
0.931851
0.799374
0.924635
0.8025
0.802903
0.935061
0.781297
0.850711
0.829337
0.735216
0.913089
0.756449
0.795947
0.91986
0.907132
0.771395
0.831165
0.935736
0.797559
0.799717
0.881305
0.852551
0.931428
0.934901
0.791154
0.932409
0.798545
0.73821
0.933462
0.931519
0.796708
0.934614
0.770243
0.920882
0.913855
0.78041
0.792196
0.932271
0.800488
0.806131
0.886171
0.800434
0.764864
0.735864
0.928445
0.754802
0.799674
0.803648
0.780688
0.936628
0.782274
0.934952
0.794507
0.803578
0.734029
0.927211
0.910094
0.90976
0.880171
0.802097
0.803211
0.933919
0.772276
0.90432
0.812796
0.779727
0.800741
0.790284
0.787721
0.795579
0.908697
0.813166
0.79709
0.782819
0.852447
0.930649
0.912427
0.896611
0.879438
0.783209
0.742128
0.796785
0.922478
0.799199
0.798636
0.879602
0.785536
0.820025
0.921363
0.801099
0.920154
0.798619
0.765652
0.798177
0.796899
0.765948
0.809483
0.797111
0.935299
0.799306
0.75634
0.932726
0.76775
0.934851
0.785147
0.898536
0.921196
0.776107
0.907042
0.869278
0.798868
0.810735
0.81383
0.883545
0.798896
0.924827
0.758584
0.934496
0.907292
0.880548
0.908578
0.800264
0.914839
0.803175
0.890814
0.795646
0.79755
0.795055
0.778073
0.908005
0.931598
0.889677
0.816292
0.799235
0.784361
0.802123
0.796122
0.869773
0.911288
0.932747
0.915332
0.907784
0.910011
0.79678
0.76839
0.901648
0.793165
0.890832
0.902608
0.801932
0.797672
0.786049
0.796593
0.796847
0.903867
0.92074
0.804204
0.796516
0.90841
0.89682
0.802849
0.907232
0.790527
0.916096
0.786714
0.803306
0.798461
0.797612
0.909282
0.769622
0.796587
0.798218
0.791496
0.92862
0.908955
0.930192
0.803693
0.797414
0.796959
0.922211
0.797544
0.75652
0.73666
0.931838
0.911877
0.800687
0.798232
0.798436
0.797338
0.931713
0.798152
0.930944
0.759645
0.929632
0.796156
0.934702
0.898965
0.930504
0.808309
0.93578
0.800649
0.933622
0.805111
0.797737
0.820204
0.933518
0.799943
0.928723
0.78028
0.797637
0.760426
0.784493
0.795662
0.796254
0.923412
0.79655
0.736415
0.811466
0.802311
0.909157
0.838875
0.809834
0.798886
0.795475
0.893122
0.753738
0.78586
0.751586
0.801574
0.93642
0.796902
0.887717
0.799407
0.753483
0.821827
0.799028
0.929053
0.792996
0.931374
0.740554
0.915226
0.753095
0.930031
0.916324
0.803097
0.8007
0.913018
0.864593
0.796924
0.902618
0.780096
0.794478
0.78908
0.79958
0.797994
0.930838
0.797994
0.828445
0.918926
0.773071
0.80291
0.756175
0.796639
0.765731
0.799509
0.912502
0.934773
0.797058
0.824751
0.796839
0.791455
0.925577
0.80282
0.760271
0.912472
0.921567
0.780454
0.812066
0.912667
0.802599
0.824233
0.807876
0.908255
0.907884
0.936278
0.745246
0.840718
0.878075
0.915848
0.75035
0.782904
0.798362
0.934571
0.786148
0.787545
0.936223
0.899493
0.789675
0.93371
0.93151
0.803293
0.786076
0.797131
0.892196
0.918637
0.758119
0.798285
0.916058
0.755287
0.915991
0.817065
0.936555
0.802494
0.936094
0.932957
0.935978
0.802961
0.920113
0.793169
0.796238
0.798798
0.803517
0.929373
0.742143
0.913481
0.796486
0.798818
0.769258
0.791325
0.797909
0.936019
0.775716
0.759369
0.934841
0.865686
0.936174
0.914257
0.9311
0.913185
0.840238
0.766908
0.936107
0.81144
0.936557
0.748027
0.891662
0.826897
0.93063
0.926185
0.936538
0.921873
0.795978
0.932756
0.796718
0.776665
0.917046
0.934042
0.840763
0.794233
0.813705
0.759406
0.78075
0.863385
0.917604
0.934978
0.796707
0.926167
0.803463
0.878642
0.796581
0.747012
0.774371
0.935644
0.802051
0.799202
0.799043
0.770279
0.930925
0.800666
0.898026
0.926885
0.782027
0.790009
0.800362
0.890665
0.798294
0.75541
0.756945
0.781137
0.915579
0.793733
0.755469
0.765342
0.918531
0.935537
0.911655
0.799345
0.885095
0.934494
0.78026
0.932178
0.933048
0.936063
0.932344
0.93657
0.802337
0.925932
0.773797
0.923067
0.802506
0.913888
0.773645
0.922176
0.769959
0.822876
0.801428
0.904034
0.936667
0.796668
0.770495
0.802537
0.928459
0.810461
0.936233
0.930607
0.782792
0.903299
0.934845
0.934028
0.889044
0.91551
0.747018
0.802422
0.797533
0.796688
0.798384
0.801325
0.803407
0.927065
0.788523
0.796697
0.925403
0.900292
0.909526
0.765503
0.878944
0.782413
0.929578
0.786144
0.917069
0.799093
0.796327
0.935085
0.861784
0.893975
0.797897
0.801016
0.797016
0.782508
0.827303
0.790492
0.924656
0.810966
0.81138
0.826965
0.9219
0.774739
0.772084
0.936282
0.803107
0.9364
0.802594
0.779375
0.795492
0.788854
0.76937
0.935099
0.771705
0.796289
0.91721
0.907689
0.795685
0.794536
0.836053
0.93436
0.855138
0.900639
0.909179
0.80042
0.738342
0.799841
0.771703
0.789775
0.792372
0.798348
0.740916
0.927553
0.820006
0.796567
0.935195
0.916755
0.795255
0.804433
0.809273
0.802938
0.934599
0.799678
0.912228
0.793761
0.802376
0.896867
0.779019
0.92421
0.798253
0.817044
0.924166
0.793936
0.799088
0.927917
0.928292
0.920991
0.802983
0.864254
0.935717
0.864527
0.797499
0.93167
0.855124
0.752138
0.933944
0.921245
0.793683
0.757915
0.795647
0.90218
0.803838
0.802004
0.835333
0.93637
0.915694
0.936282
0.817657
0.855557
0.93584
0.863717
0.91835
0.915804
0.793974
0.935761
0.827281
0.799361
0.799063
0.796724
0.785532
0.798273
0.744282
0.931377
0.763048
0.735269
0.887376
0.793309
0.779922
0.921315
0.935151
0.855074
0.93472
0.79858
0.782174
0.908149
0.737782
0.923682
0.85268
0.803151
0.796513
0.931847
0.789807
0.799216
0.780767
0.934071
0.928231
0.806606
0.796431
0.80484
0.844434
0.788128
0.798047
0.795247
0.936444
0.919625
0.796692
0.936085
0.933923
0.793368
0.829976
0.742862
0.802899
0.930353
0.796321
0.908838
0.796532
0.92817
0.746153
0.836101
0.927251
0.911373
0.756961
0.913559
0.935569
0.906508
0.89826
0.883423
0.80652
0.918249
0.744923
0.796048
0.914446
0.754043
0.920564
0.795649
0.935812
0.796752
0.932963
0.930351
0.855796
0.757838
0.800304
0.803363
0.758052
0.929705
0.907436
0.925491
0.783166
0.802031
0.931743
0.919143
0.81054
0.73866
0.735676
0.799208
0.901311
0.79772
0.798143
0.929071
0.795839
0.796667
0.931745
0.803267
0.80032
0.798762
0.934367
0.798348
0.794772
0.797717
0.809908
0.907854
0.906412
0.933366
0.920976
0.927695
0.933126
0.936225
0.93279
0.919708
0.884981
0.79637
0.932599
0.770299
0.908207
0.747223
0.907575
0.801583
0.884918
0.796721
0.794673
0.867268
0.769861
0.801277
0.796128
0.796994
0.93169
0.788502
0.926481
0.760766
0.79618
0.93304
0.930909
0.793494
0.935365
0.76991
0.791039
0.74881
0.90752
0.802039
0.85422
0.797409
0.929097
0.934689
0.934366
0.764713
0.923751
0.935926
0.796637
0.801645
0.798566
0.766251
0.855651
0.796412
0.800735
0.790013
0.767087
0.734128
0.899846
0.797816
0.85539
0.788007
0.802424
0.802504
0.801494
0.921506
0.788181
0.776209
0.925036
0.796314
0.79679
0.887245
0.794159
0.936167
0.796603
0.734635
0.802215
0.935997
0.853083
0.914598
0.92925
0.91168
0.769362
0.756388
0.758165
0.881905
0.920251
0.835322
0.796494
0.800378
0.797935
0.796683
0.936403
0.798337
0.796752
0.757206
0.803777
0.89663
0.932153
0.789666
0.907795
0.891385
0.797659
0.800427
0.783664
0.903919
0.936464
0.799283
0.935068
0.804891
0.775283
0.79817
0.934973
0.755689
0.787039
0.890924
0.805382
0.80307
0.798396
0.792345
0.935831
0.777382
0.805224
0.934656
0.795935
0.800928
0.782897
0.748195
0.908209
0.798516
0.784695
0.761076
0.801421
0.802102
0.935809
0.791599
0.785228
0.798004
0.927718
0.763805
0.797177
0.803083
0.90732
0.748138
0.796677
0.788631
0.786639
0.78597
0.798126
0.919745
0.932933
0.921901
0.787926
0.834544
0.78433
0.909077
0.889053
0.916681
0.788636
0.900634
0.801382
0.931983
0.786805
0.787463
0.793133
0.936431
0.799946
0.935634
0.787188
0.78524
0.918844
0.802062
0.904673
0.824527
0.788586
0.797167
0.826786
0.798276
0.927718
0.756177
0.799434
0.796784
0.8048
0.916765
0.786684
0.792472
0.824822
0.935876
0.796252
0.825279
0.935837
0.920512
0.910368
0.794669
0.860785
0.801768
0.797561
0.759168
0.934736
0.797349
0.799571
0.79697
0.789829
0.895341
0.884969
0.914944
0.907195
0.817918
0.800725
0.930843
0.86472
0.797132
0.77285
0.896974
0.913421
0.935522
0.859064
0.899592
0.892626
0.787955
0.814974
0.782253
0.804585
0.790111
0.935472
0.823873
0.781468
0.899004
0.792381
0.789262
0.888551
0.934598
0.797149
0.796171
0.842034
0.800085
0.799153
0.866746
0.799522
0.797494
0.796785
0.797431
0.794167
0.935441
0.856871
0.924789
0.794722
0.814029
0.859097
0.797679
0.934665
0.796121
0.75078
0.802817
0.922905
0.93379
0.790047
0.793742
0.803383
0.798259
0.92555
0.766394
0.925168
0.894767
0.877101
0.844337
0.93501
0.796764
0.796726
0.787618
0.796319
0.927378
0.79649
0.891749
0.904903
0.797808
0.913617
0.798887
0.860898
0.921465
0.935479
0.798927
0.867735
0.815059
0.929993
0.796461
0.79589
0.781493
0.795902
0.791289
0.803679
0.743852
0.803062
0.928989
0.780036
0.904408
0.749397
0.928117
0.834211
0.934708
0.741333
0.797368
0.805152
0.930039
0.920333
0.781392
0.906934
0.752968
0.891159
0.757527
0.797664
0.740412
0.79771
0.933034
0.936221
0.834141
0.795776
0.800524
0.770694
0.889978
0.778738
0.908659
0.936283
0.797731
0.931765
0.800835
0.812113
0.796649
0.798163
0.738461
0.803025
0.904708
0.801377
0.907907
0.78555
0.796647
0.935434
0.935695
0.801683
0.833362
0.926041
0.925745
0.766644
0.800151
0.754044
0.926057
0.752819
0.936149
0.852431
0.802496
0.762242
0.785171
0.817026
0.814614
0.797254
0.865854
0.800433
0.814351
0.799741
0.861734
0.803394
0.891412
0.896278
0.761985
0.773365
0.799552
0.788237
0.737643
0.934676
0.787359
0.792225
0.745817
0.896348
0.931609
0.912905
0.877281
0.810676
0.795538
0.764511
0.806716
0.795473
0.798338
0.926559
0.936147
0.931475
0.797455
0.90914
0.924496
0.776076
0.799468
0.804547
0.93328
0.810002
0.799447
0.802463
0.843552
0.806878
0.881186
0.798763
0.829452
0.796579
0.933707
0.796673
0.90062
0.788973
0.798578
0.802562
0.934166
0.90435
0.794457
0.751733
0.927635
0.742975
0.737313
0.782338
0.847451
0.850619
0.935582
0.803833
0.900821
0.936681
0.76009
0.787265
0.809116
0.935806
0.763777
0.791045
0.780829
0.923946
0.931797
0.809976
0.800661
0.933926
0.799197
0.809118
0.770551
0.907066
0.764093
0.933405
0.934475
0.787613
0.931417
0.756352
0.863017
0.757842
0.796991
0.875045
0.781356
0.824944
0.813483
0.895292
0.931962
0.91944
0.916065
0.80365
0.795177
0.797456
0.896717
0.796149
0.796054
0.793281
0.767637
0.858833
0.796763
0.798341
0.935563
0.913409
0.804327
0.782123
0.744173
0.795243
0.882813
0.798684
0.770253
0.763235
0.840704
0.934957
0.799646
0.8455
0.797712
0.88048
0.843054
0.752764
0.756544
0.802495
0.935616
0.90705
0.798091
0.936114
0.899547
0.799942
0.795591
0.929068
0.934818
0.911778
0.81957
0.796514
0.806879
0.908145
0.866623
0.931699
0.761478
0.801719
0.739946
0.75992
0.765267
0.921959
0.803092
0.921221
0.847568
0.803273
0.745341
0.874499
0.796939
0.82888
0.924324
0.796527
0.924693
0.899855
0.743321
0.913759
0.803921
0.93314
0.798259
0.933065
0.935001
0.842717
0.801967
0.793232
0.80271
0.802728
0.926941
0.816113
0.920605
0.822929
0.799243
0.761685
0.932029
0.936168
0.762282
0.787818
0.787523
0.747499
0.875148
0.800898
0.910298
0.798869
0.922345
0.844231
0.795107
0.801592
0.796423
0.794669
0.74551
0.749047
0.802242
0.790573
0.914261
0.801765
0.800848
0.793816
0.904713
0.933209
0.799228
0.903421
0.790645
0.935802
0.790744
0.744675
0.749967
0.933091
0.801939
0.796412
0.751462
0.802649
0.80161
0.793144
0.929961
0.88282
0.795361
0.925224
0.751418
0.755847
0.814648
0.933198
0.807754
0.780214
0.794001
0.754248
0.930231
0.901708
0.78937
0.857014
0.749465
0.930993
0.805045
0.827218
0.820738
0.798064
0.790884
0.834454
0.789207
0.935122
0.750846
0.790561
0.772027
0.802531
0.801677
0.75694
0.798185
0.913558
0.823522
0.796852
0.815067
0.925303
0.800158
0.775232
0.789976
0.910874
0.798698
0.931815
0.798239
0.798477
0.916704
0.935738
0.812342
0.935476
0.796359
0.893313
0.751768
0.925714
0.834592
0.9355
0.796415
0.90639
0.80154
0.920028
0.778678
0.926522
0.907348
0.807369
0.894246
0.816234
0.769059
0.818613
0.804819
0.797284
0.881909
0.797678
0.785966
0.858447
0.929385
0.781574
0.806119
0.797771
0.796975
0.7649
0.799323
0.743127
0.817848
0.788788
0.815545
0.930207
0.790836
0.881232
0.791465
0.878731
0.800086
0.932942
0.809987
0.786189
0.852569
0.762273
0.934537
0.785049
0.872805
0.798716
0.753762
0.803538
0.804973
0.925811
0.802589
0.92288
0.796527
0.748025
0.91307
0.818565
0.804336
0.83554
0.934746
0.795685
0.809989
0.797749
0.786286
0.793138
0.802531
0.794741
0.906836
0.796213
0.755454
0.803245
0.81193
0.783763
0.806799
0.740776
0.806198
0.803542
0.800287
0.803523
0.772042
0.912848
0.919763
0.802119
0.795594
0.931983
0.813214
0.785712
0.79613
0.930625
0.802628
0.834081
0.799153
0.934869
0.803225
0.920524
0.798835
0.796653
0.788364
0.797419
0.923954
0.800943
0.795479
0.800858
0.773241
0.920965
0.931904
0.934575
0.828351
0.926057
0.794406
0.737857
0.809596
0.780759
0.910822
0.796552
0.797252
0.803595
0.933397
0.93405
0.823018
0.74816
0.741668
0.933923
0.928318
0.74742
0.790684
0.926097
0.808764
0.740064
0.79659
0.928858
0.799078
0.79663
0.750568
0.931489
0.795546
0.750375
0.9348
0.926331
0.747496
0.796358
0.93169
0.780382
0.796633
0.873179
0.934284
0.80302
0.908798
0.742458
0.806351
0.797999
0.800249
0.834948
0.859803
0.934807
0.796539
0.796397
0.911263
0.802598
0.785071
0.921324
0.745467
0.936561
0.792675
0.782594
0.802722
0.821907
0.803409
0.75774
0.903646
0.935386
0.93128
0.799084
0.801714
0.804454
0.797461
0.92911
0.79737
0.780822
0.781188
0.927895
0.785729
0.753948
0.895222
0.859404
0.902016
0.92641
0.795598
0.829471
0.750574
0.794461
0.875398
0.742095
0.929742
0.932603
0.833595
0.797532
0.85006
0.771555
0.919612
0.797533
0.866822
0.770532
0.796099
0.789143
0.911989
0.932782
0.935092
0.796353
0.933052
0.756446
0.868594
0.925805
0.775299
0.735942
0.825153
0.799403
0.780287
0.932626
0.79917
0.794974
0.788798
0.907786
0.803902
0.797618
0.904659
0.907753
0.799615
0.91063
0.89012
0.924321
0.790525
0.778608
0.796588
0.80022
0.919884
0.802873
0.878643
0.906407
0.783018
0.933375
0.853107
0.798202
0.78385
0.738822
0.796283
0.79273
0.933454
0.798372
0.86838
0.936568
0.784444
0.797227
0.936282
0.857682
0.901143
0.782866
0.765582
0.795946
0.778356
0.79109
0.782657
0.779528
0.792754
0.79613
0.801448
0.788513
0.796015
0.804275
0.849345
0.926296
0.746643
0.825609
0.929775
0.924502
0.933806
0.898467
0.927325
0.875553
0.795505
0.915847
0.796254
0.790333
0.920094
0.798854
0.876925
0.792971
0.797105
0.761793
0.801345
0.789852
0.759645
0.876983
0.795603
0.797706
0.796174
0.812277
0.772569
0.916717
0.782769
0.79616
0.923084
0.757477
0.798769
0.910909
0.821578
0.7923
0.928338
0.781765
0.894832
0.810542
0.793113
0.922408
0.852956
0.798543
0.801899
0.93031
0.79778
0.802407
0.763402
0.926829
0.877638
0.797256
0.912326
0.790463
0.910303
0.884522
0.741202
0.796572
0.799904
0.796571
0.930834
0.895926
0.911577
0.798049
0.908935
0.929472
0.79705
0.802758
0.929249
0.797156
0.779092
0.802685
0.859493
0.930821
0.92229
0.854112
0.844588
0.797147
0.802765
0.796529
0.93468
0.783123
0.738733
0.766835
0.922109
0.796432
0.923553
0.896658
0.800979
0.811977
0.789159
0.797788
0.796872
0.80552
0.933846
0.792556
0.901122
0.827605
0.924993
0.915571
0.797788
0.799808
0.85824
0.796626
0.79902
0.797337
0.92086
0.791095
0.908773
0.784175
0.8
0.796234
0.871956
0.802744
0.903889
0.785263
0.803751
0.742895
0.798697
0.81064
0.80023
0.79987
0.787882
0.859236
0.826465
0.90484
0.866562
0.906711
0.932009
0.934361
0.934977
0.915051
0.78297
0.796529
0.786725
0.804232
0.800123
0.798129
0.818821
0.799613
0.794056
0.781396
0.911968
0.838659
0.753018
0.906408
0.906189
0.839838
0.796294
0.791607
0.854121
0.825359
0.792612
0.785198
0.832613
0.800816
0.797873
0.81496
0.92677
0.799063
0.755017
0.936221
0.801277
0.908378
0.800781
0.771642
0.810242
0.795459
0.907252
0.740605
0.823497
0.87099
0.797966
0.874349
0.75919
0.801863
0.796064
0.932149
0.926921
0.907003
0.772206
0.786592
0.909027
0.797022
0.933508
0.790682
0.778175
0.766215
0.761703
0.790947
0.766284
0.853278
0.902773
0.798505
0.931218
0.876698
0.796344
0.907061
0.795375
0.911467
0.930333
0.921278
0.923702
0.930483
0.932918
0.931075
0.936621