# vtk DataFile Version 1.0
unstructured grid
ascii
DATASET UNSTRUCTURED_GRID
points 3920 float
-1 0 0
-1 1 0
2 0 0
2 1 0
0 0 0
1 0 0
-1 1 0.1
-1 0 0.1
0 0 0.1
1 0 0.1
2 0 0.1
2 1 0.1
-0.98 0 0
-0.96 0 0
-0.94 0 0
-0.92 0 0
-0.9 0 0
-0.88 0 0
-0.86 0 0
-0.84 0 0
-0.82 0 0
-0.8 0 0
-0.78 0 0
-0.76 0 0
-0.74 0 0
-0.72 0 0
-0.7 0 0
-0.68 0 0
-0.66 0 0
-0.64 0 0
-0.62 0 0
-0.6 0 0
-0.58 0 0
-0.56 0 0
-0.54 0 0
-0.52 0 0
-0.5 0 0
-0.48 0 0
-0.46 0 0
-0.44 0 0
-0.42 0 0
-0.4 0 0
-0.38 0 0
-0.36 0 0
-0.34 0 0
-0.32 0 0
-0.3 0 0
-0.28 0 0
-0.26 0 0
-0.24 0 0
-0.22 0 0
-0.2 0 0
-0.18 0 0
-0.16 0 0
-0.14 0 0
-0.12 0 0
-0.1 0 0
-0.08 0 0
-0.06 0 0
-0.04 0 0
-0.02 0 0
1.02 0 0
1.04 0 0
1.06 0 0
1.08 0 0
1.1 0 0
1.12 0 0
1.14 0 0
1.16 0 0
1.18 0 0
1.2 0 0
1.22 0 0
1.24 0 0
1.26 0 0
1.28 0 0
1.3 0 0
1.32 0 0
1.34 0 0
1.36 0 0
1.38 0 0
1.4 0 0
1.42 0 0
1.44 0 0
1.46 0 0
1.48 0 0
1.5 0 0
1.52 0 0
1.54 0 0
1.56 0 0
1.58 0 0
1.6 0 0
1.62 0 0
1.64 0 0
1.66 0 0
1.68 0 0
1.7 0 0
1.72 0 0
1.74 0 0
1.76 0 0
1.78 0 0
1.8 0 0
1.82 0 0
1.84 0 0
1.86 0 0
1.88 0 0
1.9 0 0
1.92 0 0
1.94 0 0
1.96 0 0
1.98 0 0
2 0.0199133 0
2 0.0414128 0
2 0.0646247 0
2 0.0896856 0
2 0.116743 0
2 0.145955 0
2 0.177494 0
2 0.211545 0
2 0.248309 0
2 0.288001 0
2 0.330854 0
2 0.377121 0
2 0.427073 0
2 0.481004 0
2 0.539231 0
2 0.602096 0
2 0.669968 0
2 0.743247 0
2 0.822362 0
2 0.907779 0
1.9 1 0
1.8 1 0
1.7 1 0
1.6 1 0
1.5 1 0
1.4 1 0
1.3 1 0
1.2 1 0
1.1 1 0
1 1 0
0.9 1 0
0.8 1 0
0.7 1 0
0.6 1 0
0.5 1 0
0.4 1 0
0.3 1 0
0.2 1 0
0.1 1 0
3.69793e-12 1 0
-0.1 1 0
-0.2 1 0
-0.3 1 0
-0.4 1 0
-0.5 1 0
-0.6 1 0
-0.7 1 0
-0.8 1 0
-0.9 1 0
-1 0.907779 0
-1 0.822362 0
-1 0.743247 0
-1 0.669968 0
-1 0.602096 0
-1 0.539231 0
-1 0.481004 0
-1 0.427073 0
-1 0.377121 0
-1 0.330854 0
-1 0.288001 0
-1 0.248309 0
-1 0.211545 0
-1 0.177494 0
-1 0.145955 0
-1 0.116743 0
-1 0.0896856 0
-1 0.0646247 0
-1 0.0414128 0
-1 0.0199133 0
0.0182781 0.00745351 0
0.0366672 0.0146286 0
0.0551632 0.0215237 0
0.0737617 0.0281372 0
0.0924585 0.0344675 0
0.111249 0.0405131 0
0.13013 0.0462728 0
0.149095 0.0517451 0
0.168142 0.0569289 0
0.187265 0.0618228 0
0.20646 0.0664258 0
0.225723 0.0707368 0
0.245049 0.0747549 0
0.264434 0.078479 0
0.283873 0.0819084 0
0.303362 0.0850422 0
0.322896 0.0878798 0
0.342472 0.0904204 0
0.362083 0.0926635 0
0.381726 0.0946086 0
0.401397 0.0962552 0
0.42109 0.0976029 0
0.440802 0.0986514 0
0.460527 0.0994006 0
0.480261 0.0998501 0
0.5 0.1 0
0.519739 0.0998501 0
0.539473 0.0994006 0
0.559198 0.0986514 0
0.57891 0.0976029 0
0.598603 0.0962552 0
0.618274 0.0946086 0
0.637917 0.0926635 0
0.657528 0.0904204 0
0.677104 0.0878798 0
0.696638 0.0850422 0
0.716127 0.0819084 0
0.735566 0.078479 0
0.754951 0.0747549 0
0.774277 0.0707368 0
0.79354 0.0664258 0
0.812735 0.0618228 0
0.831858 0.0569289 0
0.850905 0.0517451 0
0.86987 0.0462728 0
0.888751 0.0405131 0
0.907542 0.0344675 0
0.926238 0.0281372 0
0.944837 0.0215237 0
0.963333 0.0146286 0
0.981722 0.00745351 0
-1 0.907779 0.1
-1 0.822362 0.1
-1 0.743247 0.1
-1 0.669968 0.1
-1 0.602096 0.1
-1 0.539231 0.1
-1 0.481004 0.1
-1 0.427073 0.1
-1 0.377121 0.1
-1 0.330854 0.1
-1 0.288001 0.1
-1 0.248309 0.1
-1 0.211545 0.1
-1 0.177494 0.1
-1 0.145955 0.1
-1 0.116743 0.1
-1 0.0896856 0.1
-1 0.0646247 0.1
-1 0.0414128 0.1
-1 0.0199133 0.1
-0.98 0 0.1
-0.96 0 0.1
-0.94 0 0.1
-0.92 0 0.1
-0.9 0 0.1
-0.88 0 0.1
-0.86 0 0.1
-0.84 0 0.1
-0.82 0 0.1
-0.8 0 0.1
-0.78 0 0.1
-0.76 0 0.1
-0.74 0 0.1
-0.72 0 0.1
-0.7 0 0.1
-0.68 0 0.1
-0.66 0 0.1
-0.64 0 0.1
-0.62 0 0.1
-0.6 0 0.1
-0.58 0 0.1
-0.56 0 0.1
-0.54 0 0.1
-0.52 0 0.1
-0.5 0 0.1
-0.48 0 0.1
-0.46 0 0.1
-0.44 0 0.1
-0.42 0 0.1
-0.4 0 0.1
-0.38 0 0.1
-0.36 0 0.1
-0.34 0 0.1
-0.32 0 0.1
-0.3 0 0.1
-0.28 0 0.1
-0.26 0 0.1
-0.24 0 0.1
-0.22 0 0.1
-0.2 0 0.1
-0.18 0 0.1
-0.16 0 0.1
-0.14 0 0.1
-0.12 0 0.1
-0.1 0 0.1
-0.08 0 0.1
-0.06 0 0.1
-0.04 0 0.1
-0.02 0 0.1
0.0182781 0.00745351 0.1
0.0366672 0.0146286 0.1
0.0551632 0.0215237 0.1
0.0737617 0.0281372 0.1
0.0924585 0.0344675 0.1
0.111249 0.0405131 0.1
0.13013 0.0462728 0.1
0.149095 0.0517451 0.1
0.168142 0.0569289 0.1
0.187265 0.0618228 0.1
0.20646 0.0664258 0.1
0.225723 0.0707368 0.1
0.245049 0.0747549 0.1
0.264434 0.078479 0.1
0.283873 0.0819084 0.1
0.303362 0.0850422 0.1
0.322896 0.0878798 0.1
0.342472 0.0904204 0.1
0.362083 0.0926635 0.1
0.381726 0.0946086 0.1
0.401397 0.0962552 0.1
0.42109 0.0976029 0.1
0.440802 0.0986514 0.1
0.460527 0.0994006 0.1
0.480261 0.0998501 0.1
0.5 0.1 0.1
0.519739 0.0998501 0.1
0.539473 0.0994006 0.1
0.559198 0.0986514 0.1
0.57891 0.0976029 0.1
0.598603 0.0962552 0.1
0.618274 0.0946086 0.1
0.637917 0.0926635 0.1
0.657528 0.0904204 0.1
0.677104 0.0878798 0.1
0.696638 0.0850422 0.1
0.716127 0.0819084 0.1
0.735566 0.078479 0.1
0.754951 0.0747549 0.1
0.774277 0.0707368 0.1
0.79354 0.0664258 0.1
0.812735 0.0618228 0.1
0.831858 0.0569289 0.1
0.850905 0.0517451 0.1
0.86987 0.0462728 0.1
0.888751 0.0405131 0.1
0.907542 0.0344675 0.1
0.926238 0.0281372 0.1
0.944837 0.0215237 0.1
0.963333 0.0146286 0.1
0.981722 0.00745351 0.1
1.02 0 0.1
1.04 0 0.1
1.06 0 0.1
1.08 0 0.1
1.1 0 0.1
1.12 0 0.1
1.14 0 0.1
1.16 0 0.1
1.18 0 0.1
1.2 0 0.1
1.22 0 0.1
1.24 0 0.1
1.26 0 0.1
1.28 0 0.1
1.3 0 0.1
1.32 0 0.1
1.34 0 0.1
1.36 0 0.1
1.38 0 0.1
1.4 0 0.1
1.42 0 0.1
1.44 0 0.1
1.46 0 0.1
1.48 0 0.1
1.5 0 0.1
1.52 0 0.1
1.54 0 0.1
1.56 0 0.1
1.58 0 0.1
1.6 0 0.1
1.62 0 0.1
1.64 0 0.1
1.66 0 0.1
1.68 0 0.1
1.7 0 0.1
1.72 0 0.1
1.74 0 0.1
1.76 0 0.1
1.78 0 0.1
1.8 0 0.1
1.82 0 0.1
1.84 0 0.1
1.86 0 0.1
1.88 0 0.1
1.9 0 0.1
1.92 0 0.1
1.94 0 0.1
1.96 0 0.1
1.98 0 0.1
2 0.0199133 0.1
2 0.0414128 0.1
2 0.0646247 0.1
2 0.0896856 0.1
2 0.116743 0.1
2 0.145955 0.1
2 0.177494 0.1
2 0.211545 0.1
2 0.248309 0.1
2 0.288001 0.1
2 0.330854 0.1
2 0.377121 0.1
2 0.427073 0.1
2 0.481004 0.1
2 0.539231 0.1
2 0.602096 0.1
2 0.669968 0.1
2 0.743247 0.1
2 0.822362 0.1
2 0.907779 0.1
1.9 1 0.1
1.8 1 0.1
1.7 1 0.1
1.6 1 0.1
1.5 1 0.1
1.4 1 0.1
1.3 1 0.1
1.2 1 0.1
1.1 1 0.1
1 1 0.1
0.9 1 0.1
0.8 1 0.1
0.7 1 0.1
0.6 1 0.1
0.5 1 0.1
0.4 1 0.1
0.3 1 0.1
0.2 1 0.1
0.1 1 0.1
3.69793e-12 1 0.1
-0.1 1 0.1
-0.2 1 0.1
-0.3 1 0.1
-0.4 1 0.1
-0.5 1 0.1
-0.6 1 0.1
-0.7 1 0.1
-0.8 1 0.1
-0.9 1 0.1
1.08758 0.0158154 0
-0.0898513 0.0203294 0
0.0966181 0.0537636 0
0.90205 0.0548881 0
1.21055 0.0202058 0
-0.209811 0.0159577 0
1.3305 0.0176902 0
-0.33 0.0173205 0
1.45324 0.0148141 0
-0.448654 0.0159854 0
1.56842 0.0191785 0
-0.569936 0.0166364 0
0.193292 0.0805369 0
0.805051 0.0813623 0
0.709096 0.100353 0
0.288591 0.0996656 0
0.390184 0.111848 0
0.61033 0.111742 0
0.488809 0.116278 0
1.67175 0.0169692 0
-0.67 0.0169809 0
-0.955017 0.454039 0
1.95131 0.44569 0
1.74981 0.0168753 0
-0.75 0.0173205 0
-0.968032 0.266538 0
1.96871 0.266267 0
0.978232 0.0305687 0
0.0208675 0.026451 0
-0.150454 0.91842 0
1.13854 0.907437 0
1.45012 0.904365 0
-0.445923 0.908903 0
-0.853423 0.0157019 0
1.84881 0.016319 0
0.853689 0.915652 0
0.153944 0.912184 0
0.545151 0.914125 0
0.549913 0.115152 0
1.51 0.0173205 0
-0.506989 0.01651 0
1.27 0.0173205 0
1.14976 0.0173333 0
-0.268171 0.0206442 0
-0.150501 0.0153244 0
-0.391384 0.0153993 0
1.38886 0.0171544 0
-0.973694 0.161724 0
1.97441 0.162392 0
-0.945221 0.633523 0
1.94544 0.63312 0
1.91008 0.0186068 0
-0.91 0.0169616 0
-0.030664 0.0194327 0
1.03074 0.0165456 0
-0.966065 0.353575 0
1.96128 0.359765 0
1.93879 0.781254 0
-0.937057 0.781882 0
-0.980746 0.080709 0
1.9772 0.0760699 0
0.058735 0.0409372 0
0.355202 0.913001 0
0.86356 0.0661005 0
0.134223 0.0651111 0
0.941972 0.0397386 0
-0.653034 0.915003 0
1.65328 0.904589 0
0.770126 0.0881325 0
0.232946 0.0902008 0
0.330582 0.105648 0
0.670612 0.108365 0
0.428707 0.116145 0
1.80993 0.016629 0
-0.810168 0.0172178 0
-0.71 0.0173205 0
1.63047 0.0175504 0
1.70842 0.0169661 0
-0.628824 0.0181787 0
-0.949815 0.0133898 0
1.95 0.0173205 0
1.85542 0.907891 0
-0.85 0.913397 0
1.9833 0.0307692 0
-0.983315 0.0309709 0
-0.750025 0.916468 0
-0.701107 0.836904 0
-0.607741 0.836428 0
-0.656448 0.759827 0
-0.572936 0.758144 0
-0.61411 0.691195 0
-0.539534 0.689068 0
-0.578542 0.626111 0
-0.507461 0.624216 0
-0.544001 0.566638 0
-0.477696 0.564279 0
-0.511582 0.51001 0
-0.451689 0.507147 0
-0.481834 0.457732 0
-0.426137 0.454624 0
-0.453236 0.407539 0
-0.398845 0.406233 0
-0.507958 0.409496 0
-0.368427 0.460177 0
-0.344602 0.405209 0
-0.315696 0.447824 0
-0.294128 0.402169 0
-0.262844 0.444518 0
-0.241968 0.388746 0
-0.209878 0.439557 0
-0.185184 0.391135 0
-0.156687 0.437338 0
-0.133719 0.390776 0
-0.104405 0.434306 0
-0.0818745 0.388334 0
-0.0528785 0.431165 0
-0.0305984 0.385639 0
-0.00180552 0.427863 0
0.0194564 0.382608 0
0.0485809 0.42449 0
0.0701962 0.37973 0
0.0985483 0.421145 0
0.119893 0.377339 0
0.147837 0.417911 0
0.172552 0.36751 0
0.197018 0.412597 0
0.221203 0.37141 0
0.24512 0.409646 0
-0.48178 0.364657 0
-0.531053 0.364782 0
-0.0599102 0.344151 0
-0.324909 0.359566 0
0.266181 0.368462 0
0.292132 0.407649 0
0.311992 0.365779 0
0.338918 0.404821 0
0.357567 0.355909 0
0.384723 0.40053 0
0.404675 0.359681 0
0.430617 0.398558 0
0.450457 0.35827 0
0.474237 0.395182 0
0.496746 0.34898 0
0.520548 0.397931 0
0.542071 0.353121 0
0.566011 0.389914 0
0.585061 0.350856 0
0.609352 0.38696 0
0.629069 0.348168 0
0.655979 0.391217 0
0.67472 0.346182 0
0.699346 0.381414 0
0.719333 0.341965 0
0.743718 0.377547 0
0.764028 0.339036 0
0.788201 0.373582 0
0.807659 0.336101 0
0.832821 0.372249 0
0.852309 0.334017 0
0.877785 0.370339 0
0.897875 0.331141 0
0.922904 0.366281 0
0.943173 0.327335 0
0.968282 0.363358 0
0.989029 0.324222 0
1.01391 0.361511 0
1.03465 0.321428 0
1.05949 0.358447 0
1.08389 0.312052 0
1.10575 0.355104 0
1.12889 0.31562 0
1.15067 0.353235 0
1.17157 0.312819 0
1.19626 0.349369 0
1.21618 0.309863 0
1.2416 0.346914 0
1.26131 0.30715 0
1.28691 0.344312 0
1.30571 0.303752 0
1.33144 0.341222 0
1.35018 0.300911 0
1.3758 0.338308 0
1.39501 0.298931 0
1.42015 0.335235 0
1.43904 0.296349 0
1.46355 0.330194 0
1.48256 0.293347 0
1.50685 0.326967 0
1.52589 0.29055 0
1.54996 0.325305 0
1.56909 0.287929 0
[...]
CELL_DATA 3694
SCALARS rho float
LOOKUP_TABLE default
0.793417
0.772124
0.816072
0.87743
0.852989
0.817671
0.815709
0.81292
0.859311
0.81289
0.866454
0.866404
0.846154
0.815921
0.813343
0.81168
0.811546
0.813688
0.814371
0.864269
0.849297
0.859606
0.797158
0.816219
0.795535
0.845402
0.788192
0.821199
0.843134
0.80443
0.804332
0.786315
0.813857
0.834965
0.815227
0.836477
0.854785
0.858475
0.852415
0.809793
0.816776
0.829577
0.841362
0.835377
0.823946
0.87807
0.815518
0.775086
0.766962
0.804977
0.815789
0.808125
0.862092
0.820025
0.776048
0.855726
0.81497
0.85211
0.839926
0.803919
0.818544
0.88565
0.861968
0.812062
0.864127
0.858086
0.822003
0.881484
0.786504
0.872157
0.807378
0.821919
0.859628
0.811802
0.857875
0.808519
0.828598
0.807851
0.865826
0.815741
0.796633
0.830545
0.806742
0.808809
0.853064
0.80828
0.851805
0.796256
0.788086
0.849287
0.83366
0.812466
0.832081
0.847554
0.761773
0.819969
0.784315
0.865021
0.869638
0.860754
0.874906
0.815589
0.779436
0.857294
0.852344
0.885595
0.865344
0.820481
0.788423
0.862991
0.818343
0.805651
0.780212
0.847768
0.878056
0.811907
0.834644
0.869728
0.807137
0.811528
0.806226
0.834609
0.855729
0.814949
0.770214
0.808632
0.862977
0.821752
0.859427
0.796041
0.807225
0.821794
0.822192
0.815106
0.815711
0.829597
0.818161
0.80715
0.803598
0.874094
0.864379
0.794826
0.865045
0.879349
0.808191
0.776924
0.763117
0.805557
0.872134
0.826338
0.810424
0.809324
0.751117
0.819319
0.783533
0.815965
0.779295
0.822689
0.744775
0.817763
0.842939
0.754203
0.815529
0.79479
0.864829
0.74891
0.8294
0.81254
0.817838
0.76317
0.810295
0.771293
0.87201
0.749041
0.81875
0.778149
0.866523
0.860346
0.855678
0.790602
0.862074
0.786147
0.859158
0.793288
0.754303
0.810854
0.759082
0.858486
0.815411
0.867999
0.817934
0.772364
0.88701
0.805978
0.805072
0.853668
0.825662
0.862782
0.794056
0.810117
0.812105
0.828375
0.859925
0.841008
0.829685
0.875941
0.777367
0.816531
0.801372
0.81007
0.799125
0.829587
0.814892
0.819708
0.859084
0.815717
0.859594
0.800717
0.859199
0.853092
0.872574
0.853713
0.837873
0.799007
0.859105
0.761053
0.816636
0.84687
0.868171
0.857624
0.855175
0.81815
0.810826
0.865636
0.859722
0.86601
0.796668
0.83569
0.783399
0.829485
0.814807
0.85094
0.773467
0.821401
0.81175
0.820574
0.806906
0.810178
0.880892
0.862246
0.813229
0.763849
0.82339
0.816045
0.756073
0.832276
0.815371
0.808686
0.856234
0.884544
0.746675
0.879099
0.827439
0.836058
0.876457
0.808958
0.828854
0.843247
0.841843
0.807924
0.805746
0.860861
0.82468
0.807296
0.817996
0.886106
0.781702
0.734916
0.864529
0.838392
0.859788
0.823937
0.791764
0.876463
0.878458
0.850054
0.79911
0.829402
0.88515
0.752122
0.807319
0.876568
0.761661
0.813588
0.860696
0.850736
0.886587
0.774721
0.824233
0.885415
0.814734
0.812673
0.827433
0.854346
0.829834
0.810652
0.821916
0.809596
0.75248
0.860681
0.859127
0.779257
0.828877
0.86305
0.833416
0.776008
0.751741
0.860359
0.857661
0.823063
0.786281
0.788074
0.791487
0.808475
0.860206
0.821566
0.815758
0.808714
0.788745
0.858176
0.852509
0.831195
0.8152
0.880858
0.877505
0.865778
0.864831
0.812292
0.821293
0.818472
0.763641
0.806623
0.826113
0.793616
0.822035
0.817982
0.862257
0.815936
0.824072
0.817632
0.885447
0.860705
0.861364
0.806992
0.791936
0.800371
0.817917
0.825274
0.770453
0.815045
0.822328
0.829384
0.80601
0.819984
0.862828
0.87005
0.864527
0.817576
0.817979
0.814292
0.819415
0.864399
0.831767
0.773324
0.816784
0.797317
0.770097
0.81321
0.740062
0.812293
0.815543
0.825929
0.885622
0.853522
0.862908
0.842019
0.861384
0.85788
0.809565
0.814277
0.825871
0.773824
0.860718
0.808436
0.802253
0.785452
0.87741
0.866382
0.860684
0.823394
0.834386
0.877844
0.816371
0.812259
0.858891
0.769179
0.815348
0.860805
0.836303
0.815604
0.875811
0.82669
0.855549
0.865656
0.838757
0.770655
0.835212
0.808304
0.804012
0.791794
0.8479
0.823686
0.824613
0.757798
0.883331
0.838173
0.872479
0.812318
0.816882
0.858285
0.81469
0.797895
0.817227
0.806858
0.882306
0.85909
0.861828
0.879554
0.859073
0.823092
0.859906
0.778635
0.859366
0.861732
0.86842
0.74858
0.878352
0.823018
0.865289
0.860315
0.811151
0.737398
0.823724
0.79422
0.819829
0.808323
0.826047
0.884957
0.834984
0.817892
0.82677
0.865483
0.805927
0.874939
0.806422
0.867768
0.863772
0.753068
0.81495
0.818741
0.867459
0.865094
0.778995
0.809884
0.82332
0.826155
0.820845
0.815332
0.874444
0.863601
0.834849
0.819052
0.859028
0.854868
0.808361
0.820036
0.824109
0.863572
0.769082
0.818605
0.8552
0.807451
0.816982
0.747164
0.86026
0.815974
0.886413
0.864515
0.858503
0.862754
0.862679
0.873225
0.798032
0.807373
0.86496
0.855513
0.777763
0.807927
0.808047
0.88003
0.865185
0.862563
0.805664
0.825319
0.804829
0.872699
0.826998
0.738358
0.813335
0.807339
0.800657
0.815316
0.870023
0.813189
0.834392
0.87579
0.843989
0.857831
0.817379
0.846245
0.789686
0.799696
0.815668
0.850374
0.853608
0.814309
0.801751
0.790563
0.882725
0.827998
0.828316
0.741942
0.879225
0.845909
0.859126
0.812798
0.843227
0.856623
0.826606
0.862663
0.812003
0.826341
0.853226
0.874373
0.844744
0.847501
0.793922
0.815204
0.828791
0.812353
0.866541
0.809579
0.834175
0.749301
0.839973
0.8669
0.824418
0.862711
0.818939
0.880929
0.787518
0.86447
0.772413
0.810138
0.866126
0.821023
0.78092
0.756189
0.82858
0.819073
0.817694
0.825753
0.810371
0.858249
0.858784
0.81735
0.812938
0.861642
0.744162
0.870839
0.815727
0.795175
0.857393
0.773956
0.826277
0.86722
0.855654
0.849013
0.878056
0.83243
0.830013
0.817453
0.810961
0.872395
0.824794
0.858114
0.810805
0.797328
0.817841
0.880321
0.87858
0.847038
0.87325
0.87012
0.881329
0.852852
0.809832
0.820478
0.870743
0.814643
0.738444
0.791785
0.825352
0.882086
0.875726
0.812968
0.823065
0.826549
0.816019
0.817065
0.814545
0.847252
0.849103
0.880322
0.825498
0.843824
0.849052
0.751011
0.815029
0.812569
0.835124
0.791825
0.790407
0.803066
0.810501
0.85742
0.885806
0.882179
0.82451
0.736061
0.828703
0.736605
0.796341
0.859104
0.876974
0.809304
0.863816
0.868913
0.785109
0.867019
0.825385
0.827786
0.825763
0.76081
0.870393
0.793345
0.807608
0.819845
0.816902
0.804927
0.840387
0.879246
0.781812
0.843161
0.812034
0.794601
0.862684
0.80632
0.751377
0.814393
0.870766
0.852234
0.879808
0.813969
0.806398
0.818668
0.843697
0.76996
0.871632
0.852106
0.859121
0.810042
0.860016
0.791674
0.817001
0.760249
0.775473
0.831709
0.833722
0.829364
0.88689
0.873743
0.877517
0.885649
0.745268
0.805343
0.886156
0.796805
0.824376
0.872785
0.8754
0.779461
0.765903
0.795551
0.768131
0.825825
0.779467
0.873937
0.804927
0.880478
0.843681
0.76688
0.835348
0.854118
0.852035
0.808675
0.82299
0.801273
0.814454
0.852025
0.75662
0.756564
0.877295
0.818396
0.850887
0.81667
0.798009
0.819126
0.801854
0.800133
0.810963
0.85984
0.825647
0.768113
0.859385
0.845807
0.867276
0.793476
0.7645
0.782699
0.880715
0.870815
0.857405
0.748891
0.781972
0.755882
0.816446
0.805186
0.766384
0.825569
0.846918
0.811511
0.812581
0.801189
0.87302
0.770649
0.885287
0.826907
0.837118
0.807995
0.847492
0.799241
0.873302
0.88403
0.814696
0.752846
0.829283
0.862607
0.812882
0.886188
0.793524
0.816232
0.851506
0.779038
0.86395
0.805107
0.827228
0.751507
0.761237
0.798573
0.819676
0.863249
0.864709
0.859497
0.828114
0.86902
0.776066
0.804695
0.860287
0.857765
0.777289
0.806766
0.874493
0.842371
0.786249
0.830036
0.81517
0.772979
0.82579
0.774409
0.840322
0.761812
0.807092
0.786433
0.779919
0.860784
0.816105
0.803453
0.751114
0.859181
0.833605
0.85831
0.81352
0.885913
0.805988
0.82292
0.808808
0.817432
0.8559
0.807437
0.824911
0.80825
0.863029
0.744942
0.813659
0.857106
0.856382
0.859335
0.858044
0.805453
0.834986
0.808728
0.808121
0.86115
0.779029
0.860228
0.860527
0.808389
0.859959
0.860945
0.802645
0.805011
0.858906
0.824026
0.818084
0.861486
0.880865
0.855468
0.838196
0.867652
0.876623
0.815327
0.863443
0.853682
0.814247
0.797836
0.863354
0.820075
0.808522
0.833374
0.8195
0.863906
0.835317
0.862993
0.867072
0.879473
0.808778
0.818536
0.863436
0.808711
0.871677
0.821083
0.805272
0.870563
0.861758
0.79618
0.800538
0.869383
0.847437
0.833212
0.781944
0.860168
0.813393
0.854116
0.813887
0.797369
0.80706
0.805988
0.8283
0.856475
0.781367
0.798806
0.812698
0.815895
0.815342
0.847005
0.782027
0.883379
0.814025
0.812815
0.84583
0.875819
0.799746
0.869719
0.810872
0.816902
0.840585
0.813719
0.817459
0.820629
0.818537
0.876719
0.75638
0.886107
0.768211
0.785597
0.814038
0.862022
0.883897
0.811326
0.877615
0.839101
0.801968
0.814363
0.871359
0.808283
0.852792
0.823334
0.748667
0.801258
0.823634
0.776224
0.805461
0.747824
0.843744
0.884585
0.845056
0.807152
0.807173
0.782088
0.815133
0.794333
0.815354
0.886243
0.848391
0.862181
0.819993
0.832326
0.84596
0.814777
0.822257
0.789622
0.814584
0.804364
0.822906
0.805145
0.810027
0.849304
0.816678
0.814334
0.829965
0.858799
0.794413
0.809007
0.810323
0.818125
0.742255
0.87515
0.875946
0.833096
0.774451
0.876765
0.874746
0.806255
0.815292
0.817436
0.820269
0.821425
0.832452
0.871652
0.796973
0.841267
0.881084
0.813179
0.807342
0.844112
0.813844
0.863785
0.83702
0.823631
0.851571
0.816972
0.817912
0.822823
0.859112
0.860943
0.816432
0.741755
0.859037
0.857067
0.809915
0.859504
0.858939
0.857632
0.857058
0.822683
0.85768
0.858936
0.81467
0.823394
0.867333
0.846591
0.859489
0.813566
0.836693
0.818517
0.818492
0.823436
0.801247
0.823692
0.742906
0.863165
0.858974
0.859094
0.820517
0.830378
0.859144
0.831024
0.860591
0.862088
0.860101
0.827691
0.804711
0.859983
0.86579
0.86643
0.809676
0.820946
0.875889
0.861303
0.866102
0.86808
0.809394
0.834721
0.821389
0.841083
0.863533
0.853632
0.819011
0.802921
0.811773
0.817172
0.875735
0.816928
0.832512
0.832969
0.824098
0.816236
0.813828
0.831331
0.790564
0.827527
0.823907
0.809231
0.814308
0.826525
0.832088
0.799368
0.862092
0.828042
0.836013
0.862114
0.824576
0.869702
0.849891
0.840681
0.844734
0.825201
0.809633
0.806884
0.790362
0.88166
0.833785
0.817835
0.860398
0.821635
0.862939
0.81894
0.806713
0.812561
0.806947
0.807385
0.860533
0.865141
0.825052
0.824461
0.742301
0.802285
0.81775
0.824233
0.817213
0.863573
0.819688
0.870972
0.814681
0.88015
0.818103
0.864493
0.816461
0.862274
0.805841
0.872285
0.860434
0.866518
0.860027
0.798324
0.857941
0.873691
0.740742
0.881285
0.818346
0.815933
0.872085
0.856445
0.862294
0.879834
0.870497
0.871621
0.867645
0.862345
0.859667
0.809146
0.838344
0.813368
0.812749
0.855402
0.873693
0.868259
0.877609
0.856
0.833648
0.816177
0.856678
0.822818
0.828216
0.831473
0.878489
0.857708
0.859808
0.824339
0.767107
0.776719
0.810934
0.82298
0.813288
0.859036
0.860014
0.85896
0.811357
0.818645
0.810512
0.80856
0.861972
0.860494
0.863447
0.825336
0.860985
0.863959
0.849186
0.860293
0.832396
0.815999
0.861249
0.820846
0.815692
0.817367
0.851055
0.861862
0.878639
0.869285
0.842147
0.843505
0.877362
0.86071
0.832561
0.813667
0.814284
0.818823
0.867145
0.87671
0.809218
0.839517
0.867071
0.833153
0.811279
0.753047
0.81593
0.828973
0.829676
0.820835
0.815059
0.800184
0.863044
0.818516
0.806818
0.860711
0.859364
0.823926
0.85903
0.80889
0.863844
0.854943
0.862959
0.813955
0.863383
0.807688
0.859777
0.826058
0.80929
0.826334
0.860984
0.818942
0.815138
0.823594
0.827835
0.876665
0.875824
0.862764
0.819831
0.867131
0.871363
0.851998
0.832768
0.861789
0.819476
0.770921
0.861538
0.857336
0.86172
0.817754
0.805544
0.815684
0.853085
0.827064
0.868881
0.799452
0.808812
0.810941
0.817661
0.869628
0.859531
0.838492
0.77854
0.778511
0.821923
0.804358
0.872976
0.781233
0.808601
0.790446
0.806283
0.831585
0.807211
0.86578
0.868743
0.813584
0.822243
0.830898
0.838529
0.875158
0.812117
0.815068
0.864801
0.858279
0.807691
0.850892
0.814281
0.812144
0.875942
0.814804
0.824556
0.8863
0.87777
0.858667
0.830549
0.803203
0.876745
0.805893
0.820355
0.884918
0.81637
0.867776
0.845665
0.813583
0.861835
0.83844
0.824808
0.876405
0.807711
0.852661
0.816133
0.81114
0.872186
0.859838
0.821999
0.87598
0.872032
0.811847
0.812044
0.835558
0.819845
0.875818
0.87473
0.779888
0.873735
0.779571
0.82976
0.859492
0.857172
0.823687
0.881536
0.879965
0.793309
0.884278
0.813988
0.805218
0.809872
0.868581
0.875082
0.809571
0.811634
0.815713
0.863331
0.836741
0.860003
0.865385
0.800618
0.837308
0.805764
0.792125
0.812182
0.783824
0.864092
0.811191
0.769324
0.884602
0.77267
0.805414
0.81626
0.806427
0.822205
0.806765
0.807807
0.763534
0.814509
0.815337
0.808715
0.807653
0.861997
0.859831
0.887213
0.823317
0.839528
0.758527
0.811308
0.823154
0.810207
0.811919
0.818283
0.795413
0.815045
0.809541
0.815289
0.813716
0.754554
0.824814
0.751753
0.852254
0.845352
0.825103
0.795807
0.8401
0.835135
0.855162
0.815857
0.852194
0.814194
0.861261
0.78351
0.810453
0.793723
0.809979
0.805448
0.792016
0.81614
0.883487
0.882461
0.809945
0.808581
0.879899
0.787802
0.773683
0.808382
0.883029
0.88171
0.884429
0.87422
0.88428
0.873904
0.85079
0.781102
0.810663
0.825435
0.832693
0.833701
0.790008
0.786019
0.789649
0.808624
0.774761
0.814282
0.805238
0.772641
0.768842
0.85468
0.817512
0.8042
0.857196
0.81049
0.805344
0.763482
0.798464
0.823817
0.849739
0.876914
0.856523
0.875023
0.829375
0.805873
0.792975
0.878729
0.775948
0.819915
0.884307
0.812685
0.809277
0.834052
0.822113
0.816567
0.807637
0.864964
0.826716
0.875948
0.758978
0.745662
0.809924
0.838075
0.787889
0.824124
0.81002
0.857281
0.814053
0.80517
0.74911
0.755194
0.826029
0.867045
0.880202
0.807154
0.807615
0.841374
0.784624
0.870133
0.807971
0.885928
0.805409
0.831466
0.804798
0.886455
0.805233
0.830687
0.812692
0.873311
0.88679
0.804937
0.778088
0.782128
0.873663
0.75408
0.844117
0.823905
0.857186
0.861977
0.811718
0.824854
0.885373
0.868929
0.887146
0.804429
0.854462
0.870351
0.815172
0.780766
0.847237
0.833579
0.812822
0.809633
0.851554
0.808182
0.805411
0.850529
0.85082
0.863395
0.875712
0.809988
0.793865
0.813593
0.857063
0.816945
0.846795
0.818648
0.817819
0.819309
0.885305
0.822902
0.80836
0.822299
0.820241
0.834681
0.821588
0.820724
0.865114
0.821071
0.805401
0.885147
0.807906
0.805506
0.819806
0.821965
0.884325
0.814553
0.81888
0.809876
0.887404
0.803431
0.814242
0.822869
0.856766
0.818027
0.781175
0.806186
0.865635
0.817085
0.828195
0.811115
0.867956
0.808502
0.813509
0.805078
0.81523
0.830722
0.867507
0.816179
0.805797
0.794924
0.85651
0.884539
0.85879
0.834902
0.853041
0.805958
0.863077
0.80355
0.818125
0.856446
0.807764
0.793953
0.856559
0.848922
0.871054
0.856805
0.877252
0.813466
0.866412
0.782232
0.801558
0.883982
0.857261
0.789914
0.86258
0.758878
0.857959
0.821414
0.869077
0.806801
0.820231
0.850966
0.839725
0.834907
0.752415
0.881757
0.863266
0.815263
0.865222
0.812025
0.800438
0.86178
0.862052
0.860702
0.794476
0.790624
0.859851
0.784301
0.859284
0.882545
0.858933
0.823119
0.858828
0.816448
0.858891
0.859077
0.800166
0.876465
0.85942
0.859911
0.83389
0.810325
0.809243
0.745014
0.840873
0.860538
0.876003
0.822808
0.858049
0.88747
0.802376
0.861246
0.809546
0.787143
0.817063
0.84124
0.881531
0.801225
0.836653
0.832485
0.755863
0.878938
0.875162
0.822201
0.823998
0.803165
0.848062
0.808187
0.812652
0.817209
0.832102
0.820396
0.818644
0.805268
0.884599
0.830908
0.873
0.739529
0.893498
0.790908
0.816788
0.806609
0.817755
0.887032
0.873685
0.875216
0.751426
0.856894
0.829359
0.815907
0.853354
0.842914
0.844702
0.814301
0.813382
0.816205
0.806283
0.810772
0.879344
0.809406
0.827863
0.861622
0.878904
0.826502
0.809513
0.820366
0.825271
0.870929
0.795402
0.824004
0.872267
0.864381
0.821457
0.82296
0.815431
0.884797
0.821781
0.810985
0.820893
0.760033
0.819909
0.8167
0.819113
0.858829
0.848629
0.817443
0.820778
0.818266
0.809814
0.859655
0.846376
0.884018
0.887387
0.851537
0.812806
0.800191
0.831225
0.87956
0.794503
0.813986
0.870399
0.805019
0.884889
0.737435
0.820283
0.768234
0.814662
0.837867
0.867095
0.866785
0.816017
0.849899
0.861378
0.810711
0.819151
0.848203
0.869523
0.817181
0.859183
0.816686
0.816233
0.806563
0.811492
0.843013
0.882381
0.812337
0.818629
0.862667
0.839346
0.823412
0.887084
0.742507
0.822547
0.827254
0.878089
0.827524
0.807982
0.778036
0.883642
0.886764
0.857419
0.829772
0.749591
0.814147
0.776124
0.868331
0.791822
0.884349
0.838864
0.796458
0.806334
0.858891
0.811511
0.815368
0.809949
0.868432
0.832351
0.776402
0.808027
0.747135
0.813471
0.810366
0.814321
0.753297
0.807925
0.813239
0.81412
0.788271
0.796275
0.813905
0.817419
0.874664
0.788478
0.780941
0.8786
0.816667
0.804358
0.866447
0.88338
0.883285
0.768114
0.816023
0.805582
0.807034
0.80628
0.772006
0.813063
0.877478
0.763006
0.773877
0.824306
0.825748
0.880992
0.845997
0.87144
0.872612
0.867443
0.815094
0.879523
0.870345
0.839719
0.837951
0.815523
0.81019
0.824285
0.807308
0.823637
0.870291
0.87242
0.838824
0.758764
0.820953
0.809352
0.812756
0.867691
0.865102
0.850707
0.827374
0.874011
0.815728
0.87157
0.750561
0.828598
0.853747
0.806443
0.884509
0.755791
0.862145
0.80904
0.867747
0.80588
0.864419
0.870003
0.797927
0.817161
0.80544
0.855364
0.872853
0.831299
0.871522
0.785285
0.809094
0.807625
0.812094
0.825805
0.862378
0.804464
0.811116
0.859081
0.845081
0.821373
0.791904
0.808512
0.859321
0.853798
0.814076
0.80134
0.854673
0.819694
0.870331
0.785068
0.85592
0.855668
0.778957
0.81962
0.871553
0.815126
0.803935
0.821631
0.874667
0.819995
0.808395
0.877756
0.773337
0.802818
0.813941
0.876779
0.866575
0.811093
0.82567
0.801926
0.807674
0.814214
0.880298
0.862435
0.844725
0.767883
0.835035
0.830651
0.811467
0.826898
0.875463
0.819237
0.817348
0.776643
0.818207
0.818919
0.868618
0.814572
0.823206
0.856108
0.819667
0.857804
0.867924
0.765706
0.815555
0.871038
0.819911
0.819028
0.82074
0.817365
0.818159
0.816421
0.821444
0.820621
0.796668
0.822008
0.821337
0.838752
0.864366
0.822348
0.850088
0.806234
0.814937
0.869088
0.866683
0.861448
0.805357
0.830317
0.826634
0.841812
0.867882
0.791777
0.874443
0.856051
0.877783
0.870226
0.800179
0.848859
0.884922
0.815096
0.763391
0.811934
0.813253
0.860134
0.743568
0.874409
0.855921
0.881088
0.844575
0.80892
0.838066
0.844973
0.815427
0.809048
0.865728
0.804673
0.74179
0.886622
0.765589
0.788161
0.832492
0.85592
0.858041
0.867101
0.865625
0.759588
0.870221
0.822364
0.856051
0.856283
0.865819
0.785324
0.883115
0.856684
0.868969
0.815402
0.806506
0.833397
0.746361
0.847102
0.8636
0.81424
0.862091
0.857317
0.805258
0.783615
0.847517
0.858125
0.860859
0.810245
0.849424
0.805582
0.860029
0.810721
0.851376
0.859356
0.858896
0.833085
0.859279
0.839066
0.788077
0.783866
0.75608
0.858693
0.858734
0.812441
0.810163
0.848237
0.858867
0.849437
0.757799
0.859127
0.859556
0.860132
0.86158
0.822261
0.832158
0.783876
0.807832
0.860824
0.806351
0.865536
0.892239
0.814361
0.842667
0.761143
0.842143
0.805492
0.803482
0.830955
0.821634
0.815705
0.785361
0.806084
0.879369
0.816512
0.802114
0.83848
0.829494
0.820394
0.787959
0.845747
0.818406
0.872967
0.859041
0.828011
0.833973
0.870248
0.871569
0.815671
0.816221
0.801492
0.845468
0.816847
0.854232
0.815401
0.816989
0.790506
0.804221
0.826708
0.825508
0.824443
0.823145
0.822058
0.8212
0.819358
0.817752
0.820285
0.806599
0.818558
0.804591
0.816695
0.812981
0.847928
0.80179
0.810703
0.811982
0.886653
0.855408
0.816242
0.803145
0.816642
0.820366
0.794509
0.813323
0.81324
0.805559
0.820439
0.829491
0.805963
0.811053
0.798758
0.822812
0.839536
0.809192
0.807591
0.817764
0.811871
0.872517
0.822292
0.813231
0.803146
0.815525
0.882341
0.811594
0.825838
0.805192
0.917869
0.870558
0.85685
0.887255
0.779776
0.862834
0.798635
0.835902
0.841239
0.896975
0.884713
0.803647
0.744634
0.883506
0.804448
0.882268
0.805405
0.860363
0.741965
0.85811
0.814601
0.819379
0.823967
0.817054
0.85587
0.808234
0.864354
0.771804
0.744127
0.754411
0.881079
0.733981
0.804662
0.798084
0.857814
0.830318
0.727089
0.832379
0.880364
0.882741
0.783526
0.812939
0.72809
0.807019
0.878736
0.807673
0.810401
0.808384
0.876395
0.852946
0.805258
0.810352
0.873071
0.810989
0.87202
0.827661
0.811621
0.870986
0.874422
0.869981
0.812495
0.869008
0.762618
0.813003
0.868073
0.808563
0.813485
0.867167
0.791662
0.881899
0.803333
0.88628
0.820308
0.85608
0.84422
0.87428
0.806674
0.815174
0.864673
0.828229
0.814624
0.814054
0.861347
0.839711
0.865502
0.856735
0.864733
0.859217
0.864574
0.835743
0.866068
0.882845
0.816763
0.862469
0.838248
0.817314
0.880449