# vtk DataFile Version 1.0
unstructured grid
ascii
DATASET UNSTRUCTURED_GRID
points 3920 float
-1 0 0
-1 1 0
2 0 0
2 1 0
0 0 0
1 0 0
-1 1 0.1
-1 0 0.1
0 0 0.1
1 0 0.1
2 0 0.1
2 1 0.1
-0.98 0 0
-0.96 0 0
-0.94 0 0
-0.92 0 0
-0.9 0 0
-0.88 0 0
-0.86 0 0
-0.84 0 0
-0.82 0 0
-0.8 0 0
-0.78 0 0
-0.76 0 0
-0.74 0 0
-0.72 0 0
-0.7 0 0
-0.68 0 0
-0.66 0 0
-0.64 0 0
-0.62 0 0
-0.6 0 0
-0.58 0 0
-0.56 0 0
-0.54 0 0
-0.52 0 0
-0.5 0 0
-0.48 0 0
-0.46 0 0
-0.44 0 0
-0.42 0 0
-0.4 0 0
-0.38 0 0
-0.36 0 0
-0.34 0 0
-0.32 0 0
-0.3 0 0
-0.28 0 0
-0.26 0 0
-0.24 0 0
-0.22 0 0
-0.2 0 0
-0.18 0 0
-0.16 0 0
-0.14 0 0
-0.12 0 0
-0.1 0 0
-0.08 0 0
-0.06 0 0
-0.04 0 0
-0.02 0 0
1.02 0 0
1.04 0 0
1.06 0 0
1.08 0 0
1.1 0 0
1.12 0 0
1.14 0 0
1.16 0 0
1.18 0 0
1.2 0 0
1.22 0 0
1.24 0 0
1.26 0 0
1.28 0 0
1.3 0 0
1.32 0 0
1.34 0 0
1.36 0 0
1.38 0 0
1.4 0 0
1.42 0 0
1.44 0 0
1.46 0 0
1.48 0 0
1.5 0 0
1.52 0 0
1.54 0 0
1.56 0 0
1.58 0 0
1.6 0 0
1.62 0 0
1.64 0 0
1.66 0 0
1.68 0 0
1.7 0 0
1.72 0 0
1.74 0 0
1.76 0 0
1.78 0 0
1.8 0 0
1.82 0 0
1.84 0 0
1.86 0 0
1.88 0 0
1.9 0 0
1.92 0 0
1.94 0 0
1.96 0 0
1.98 0 0
2 0.0199133 0
2 0.0414128 0
2 0.0646247 0
2 0.0896856 0
2 0.116743 0
2 0.145955 0
2 0.177494 0
2 0.211545 0
2 0.248309 0
2 0.288001 0
2 0.330854 0
2 0.377121 0
2 0.427073 0
2 0.481004 0
2 0.539231 0
2 0.602096 0
2 0.669968 0
2 0.743247 0
2 0.822362 0
2 0.907779 0
1.9 1 0
1.8 1 0
1.7 1 0
1.6 1 0
1.5 1 0
1.4 1 0
1.3 1 0
1.2 1 0
1.1 1 0
1 1 0
0.9 1 0
0.8 1 0
0.7 1 0
0.6 1 0
0.5 1 0
0.4 1 0
0.3 1 0
0.2 1 0
0.1 1 0
3.69793e-12 1 0
-0.1 1 0
-0.2 1 0
-0.3 1 0
-0.4 1 0
-0.5 1 0
-0.6 1 0
-0.7 1 0
-0.8 1 0
-0.9 1 0
-1 0.907779 0
-1 0.822362 0
-1 0.743247 0
-1 0.669968 0
-1 0.602096 0
-1 0.539231 0
-1 0.481004 0
-1 0.427073 0
-1 0.377121 0
-1 0.330854 0
-1 0.288001 0
-1 0.248309 0
-1 0.211545 0
-1 0.177494 0
-1 0.145955 0
-1 0.116743 0
-1 0.0896856 0
-1 0.0646247 0
-1 0.0414128 0
-1 0.0199133 0
0.0182781 0.00745351 0
0.0366672 0.0146286 0
0.0551632 0.0215237 0
0.0737617 0.0281372 0
0.0924585 0.0344675 0
0.111249 0.0405131 0
0.13013 0.0462728 0
0.149095 0.0517451 0
0.168142 0.0569289 0
0.187265 0.0618228 0
0.20646 0.0664258 0
0.225723 0.0707368 0
0.245049 0.0747549 0
0.264434 0.078479 0
0.283873 0.0819084 0
0.303362 0.0850422 0
0.322896 0.0878798 0
0.342472 0.0904204 0
0.362083 0.0926635 0
0.381726 0.0946086 0
0.401397 0.0962552 0
0.42109 0.0976029 0
0.440802 0.0986514 0
0.460527 0.0994006 0
0.480261 0.0998501 0
0.5 0.1 0
0.519739 0.0998501 0
0.539473 0.0994006 0
0.559198 0.0986514 0
0.57891 0.0976029 0
0.598603 0.0962552 0
0.618274 0.0946086 0
0.637917 0.0926635 0
0.657528 0.0904204 0
0.677104 0.0878798 0
0.696638 0.0850422 0
0.716127 0.0819084 0
0.735566 0.078479 0
0.754951 0.0747549 0
0.774277 0.0707368 0
0.79354 0.0664258 0
0.812735 0.0618228 0
0.831858 0.0569289 0
0.850905 0.0517451 0
0.86987 0.0462728 0
0.888751 0.0405131 0
0.907542 0.0344675 0
0.926238 0.0281372 0
0.944837 0.0215237 0
0.963333 0.0146286 0
0.981722 0.00745351 0
-1 0.907779 0.1
-1 0.822362 0.1
-1 0.743247 0.1
-1 0.669968 0.1
-1 0.602096 0.1
-1 0.539231 0.1
-1 0.481004 0.1
-1 0.427073 0.1
-1 0.377121 0.1
-1 0.330854 0.1
-1 0.288001 0.1
-1 0.248309 0.1
-1 0.211545 0.1
-1 0.177494 0.1
-1 0.145955 0.1
-1 0.116743 0.1
-1 0.0896856 0.1
-1 0.0646247 0.1
-1 0.0414128 0.1
-1 0.0199133 0.1
-0.98 0 0.1
-0.96 0 0.1
-0.94 0 0.1
-0.92 0 0.1
-0.9 0 0.1
-0.88 0 0.1
-0.86 0 0.1
-0.84 0 0.1
-0.82 0 0.1
-0.8 0 0.1
-0.78 0 0.1
-0.76 0 0.1
-0.74 0 0.1
-0.72 0 0.1
-0.7 0 0.1
-0.68 0 0.1
-0.66 0 0.1
-0.64 0 0.1
-0.62 0 0.1
-0.6 0 0.1
-0.58 0 0.1
-0.56 0 0.1
-0.54 0 0.1
-0.52 0 0.1
-0.5 0 0.1
-0.48 0 0.1
-0.46 0 0.1
-0.44 0 0.1
-0.42 0 0.1
-0.4 0 0.1
-0.38 0 0.1
-0.36 0 0.1
-0.34 0 0.1
-0.32 0 0.1
-0.3 0 0.1
-0.28 0 0.1
-0.26 0 0.1
-0.24 0 0.1
-0.22 0 0.1
-0.2 0 0.1
-0.18 0 0.1
-0.16 0 0.1
-0.14 0 0.1
-0.12 0 0.1
-0.1 0 0.1
-0.08 0 0.1
-0.06 0 0.1
-0.04 0 0.1
-0.02 0 0.1
0.0182781 0.00745351 0.1
0.0366672 0.0146286 0.1
0.0551632 0.0215237 0.1
0.0737617 0.0281372 0.1
0.0924585 0.0344675 0.1
0.111249 0.0405131 0.1
0.13013 0.0462728 0.1
0.149095 0.0517451 0.1
0.168142 0.0569289 0.1
0.187265 0.0618228 0.1
0.20646 0.0664258 0.1
0.225723 0.0707368 0.1
0.245049 0.0747549 0.1
0.264434 0.078479 0.1
0.283873 0.0819084 0.1
0.303362 0.0850422 0.1
0.322896 0.0878798 0.1
0.342472 0.0904204 0.1
0.362083 0.0926635 0.1
0.381726 0.0946086 0.1
0.401397 0.0962552 0.1
0.42109 0.0976029 0.1
0.440802 0.0986514 0.1
0.460527 0.0994006 0.1
0.480261 0.0998501 0.1
0.5 0.1 0.1
0.519739 0.0998501 0.1
0.539473 0.0994006 0.1
0.559198 0.0986514 0.1
0.57891 0.0976029 0.1
0.598603 0.0962552 0.1
0.618274 0.0946086 0.1
0.637917 0.0926635 0.1
0.657528 0.0904204 0.1
0.677104 0.0878798 0.1
0.696638 0.0850422 0.1
0.716127 0.0819084 0.1
0.735566 0.078479 0.1
0.754951 0.0747549 0.1
0.774277 0.0707368 0.1
0.79354 0.0664258 0.1
0.812735 0.0618228 0.1
0.831858 0.0569289 0.1
0.850905 0.0517451 0.1
0.86987 0.0462728 0.1
0.888751 0.0405131 0.1
0.907542 0.0344675 0.1
0.926238 0.0281372 0.1
0.944837 0.0215237 0.1
0.963333 0.0146286 0.1
0.981722 0.00745351 0.1
1.02 0 0.1
1.04 0 0.1
1.06 0 0.1
1.08 0 0.1
1.1 0 0.1
1.12 0 0.1
1.14 0 0.1
1.16 0 0.1
1.18 0 0.1
1.2 0 0.1
1.22 0 0.1
1.24 0 0.1
1.26 0 0.1
1.28 0 0.1
1.3 0 0.1
1.32 0 0.1
1.34 0 0.1
1.36 0 0.1
1.38 0 0.1
1.4 0 0.1
1.42 0 0.1
1.44 0 0.1
1.46 0 0.1
1.48 0 0.1
1.5 0 0.1
1.52 0 0.1
1.54 0 0.1
1.56 0 0.1
1.58 0 0.1
1.6 0 0.1
1.62 0 0.1
1.64 0 0.1
1.66 0 0.1
1.68 0 0.1
1.7 0 0.1
1.72 0 0.1
1.74 0 0.1
1.76 0 0.1
1.78 0 0.1
1.8 0 0.1
1.82 0 0.1
1.84 0 0.1
1.86 0 0.1
1.88 0 0.1
1.9 0 0.1
1.92 0 0.1
1.94 0 0.1
1.96 0 0.1
1.98 0 0.1
2 0.0199133 0.1
2 0.0414128 0.1
2 0.0646247 0.1
2 0.0896856 0.1
2 0.116743 0.1
2 0.145955 0.1
2 0.177494 0.1
2 0.211545 0.1
2 0.248309 0.1
2 0.288001 0.1
2 0.330854 0.1
2 0.377121 0.1
2 0.427073 0.1
2 0.481004 0.1
2 0.539231 0.1
2 0.602096 0.1
2 0.669968 0.1
2 0.743247 0.1
2 0.822362 0.1
2 0.907779 0.1
1.9 1 0.1
1.8 1 0.1
1.7 1 0.1
1.6 1 0.1
1.5 1 0.1
1.4 1 0.1
1.3 1 0.1
1.2 1 0.1
1.1 1 0.1
1 1 0.1
0.9 1 0.1
0.8 1 0.1
0.7 1 0.1
0.6 1 0.1
0.5 1 0.1
0.4 1 0.1
0.3 1 0.1
0.2 1 0.1
0.1 1 0.1
3.69793e-12 1 0.1
-0.1 1 0.1
-0.2 1 0.1
-0.3 1 0.1
-0.4 1 0.1
-0.5 1 0.1
-0.6 1 0.1
-0.7 1 0.1
-0.8 1 0.1
-0.9 1 0.1
1.08758 0.0158154 0
-0.0898513 0.0203294 0
0.0966181 0.0537636 0
0.90205 0.0548881 0
1.21055 0.0202058 0
-0.209811 0.0159577 0
1.3305 0.0176902 0
-0.33 0.0173205 0
1.45324 0.0148141 0
-0.448654 0.0159854 0
1.56842 0.0191785 0
-0.569936 0.0166364 0
0.193292 0.0805369 0
0.805051 0.0813623 0
0.709096 0.100353 0
0.288591 0.0996656 0
0.390184 0.111848 0
0.61033 0.111742 0
0.488809 0.116278 0
1.67175 0.0169692 0
-0.67 0.0169809 0
-0.955017 0.454039 0
1.95131 0.44569 0
1.74981 0.0168753 0
-0.75 0.0173205 0
-0.968032 0.266538 0
1.96871 0.266267 0
0.978232 0.0305687 0
0.0208675 0.026451 0
-0.150454 0.91842 0
1.13854 0.907437 0
1.45012 0.904365 0
-0.445923 0.908903 0
-0.853423 0.0157019 0
1.84881 0.016319 0
0.853689 0.915652 0
0.153944 0.912184 0
0.545151 0.914125 0
0.549913 0.115152 0
1.51 0.0173205 0
-0.506989 0.01651 0
1.27 0.0173205 0
1.14976 0.0173333 0
-0.268171 0.0206442 0
-0.150501 0.0153244 0
-0.391384 0.0153993 0
1.38886 0.0171544 0
-0.973694 0.161724 0
1.97441 0.162392 0
-0.945221 0.633523 0
1.94544 0.63312 0
1.91008 0.0186068 0
-0.91 0.0169616 0
-0.030664 0.0194327 0
1.03074 0.0165456 0
-0.966065 0.353575 0
1.96128 0.359765 0
1.93879 0.781254 0
-0.937057 0.781882 0
-0.980746 0.080709 0
1.9772 0.0760699 0
0.058735 0.0409372 0
0.355202 0.913001 0
0.86356 0.0661005 0
0.134223 0.0651111 0
0.941972 0.0397386 0
-0.653034 0.915003 0
1.65328 0.904589 0
0.770126 0.0881325 0
0.232946 0.0902008 0
0.330582 0.105648 0
0.670612 0.108365 0
0.428707 0.116145 0
1.80993 0.016629 0
-0.810168 0.0172178 0
-0.71 0.0173205 0
1.63047 0.0175504 0
1.70842 0.0169661 0
-0.628824 0.0181787 0
-0.949815 0.0133898 0
1.95 0.0173205 0
1.85542 0.907891 0
-0.85 0.913397 0
1.9833 0.0307692 0
-0.983315 0.0309709 0
-0.750025 0.916468 0
-0.701107 0.836904 0
-0.607741 0.836428 0
-0.656448 0.759827 0
-0.572936 0.758144 0
-0.61411 0.691195 0
-0.539534 0.689068 0
-0.578542 0.626111 0
-0.507461 0.624216 0
-0.544001 0.566638 0
-0.477696 0.564279 0
-0.511582 0.51001 0
-0.451689 0.507147 0
-0.481834 0.457732 0
-0.426137 0.454624 0
-0.453236 0.407539 0
-0.398845 0.406233 0
-0.507958 0.409496 0
-0.368427 0.460177 0
-0.344602 0.405209 0
-0.315696 0.447824 0
-0.294128 0.402169 0
-0.262844 0.444518 0
-0.241968 0.388746 0
-0.209878 0.439557 0
-0.185184 0.391135 0
-0.156687 0.437338 0
-0.133719 0.390776 0
-0.104405 0.434306 0
-0.0818745 0.388334 0
-0.0528785 0.431165 0
-0.0305984 0.385639 0
-0.00180552 0.427863 0
0.0194564 0.382608 0
0.0485809 0.42449 0
0.0701962 0.37973 0
0.0985483 0.421145 0
0.119893 0.377339 0
0.147837 0.417911 0
0.172552 0.36751 0
0.197018 0.412597 0
0.221203 0.37141 0
0.24512 0.409646 0
-0.48178 0.364657 0
-0.531053 0.364782 0
-0.0599102 0.344151 0
-0.324909 0.359566 0
0.266181 0.368462 0
0.292132 0.407649 0
0.311992 0.365779 0
0.338918 0.404821 0
0.357567 0.355909 0
0.384723 0.40053 0
0.404675 0.359681 0
0.430617 0.398558 0
0.450457 0.35827 0
0.474237 0.395182 0
0.496746 0.34898 0
0.520548 0.397931 0
0.542071 0.353121 0
0.566011 0.389914 0
0.585061 0.350856 0
0.609352 0.38696 0
0.629069 0.348168 0
0.655979 0.391217 0
0.67472 0.346182 0
0.699346 0.381414 0
0.719333 0.341965 0
0.743718 0.377547 0
0.764028 0.339036 0
0.788201 0.373582 0
0.807659 0.336101 0
0.832821 0.372249 0
0.852309 0.334017 0
0.877785 0.370339 0
0.897875 0.331141 0
0.922904 0.366281 0
0.943173 0.327335 0
0.968282 0.363358 0
0.989029 0.324222 0
1.01391 0.361511 0
1.03465 0.321428 0
1.05949 0.358447 0
1.08389 0.312052 0
1.10575 0.355104 0
1.12889 0.31562 0
1.15067 0.353235 0
1.17157 0.312819 0
1.19626 0.349369 0
1.21618 0.309863 0
1.2416 0.346914 0
1.26131 0.30715 0
1.28691 0.344312 0
1.30571 0.303752 0
1.33144 0.341222 0
1.35018 0.300911 0
1.3758 0.338308 0
1.39501 0.298931 0
1.42015 0.335235 0
1.43904 0.296349 0
1.46355 0.330194 0
1.48256 0.293347 0
1.50685 0.326967 0
1.52589 0.29055 0
1.54996 0.325305 0
1.56909 0.287929 0
[...]
CELL_DATA 3694
SCALARS rho float
LOOKUP_TABLE default
0.898516
0.879563
0.80687
0.940476
0.930364
0.809737
0.814387
0.806138
0.935515
0.805202
0.936071
0.936065
0.858733
0.817542
0.806317
0.907968
0.803392
0.805739
0.911118
0.934049
0.929576
0.933405
0.878454
0.807264
0.877728
0.858433
0.844578
0.818181
0.849259
0.80314
0.803231
0.843704
0.805693
0.839162
0.807516
0.926961
0.928994
0.933034
0.930282
0.840756
0.808433
0.831006
0.847283
0.839858
0.838764
0.940685
0.809411
0.845205
0.881693
0.881816
0.806872
0.800714
0.933061
0.82037
0.857705
0.929655
0.807299
0.930673
0.84765
0.904317
0.824178
0.943017
0.933935
0.805452
0.935312
0.932731
0.818607
0.941577
0.831949
0.938595
0.80232
0.818562
0.933422
0.803337
0.932773
0.800815
0.840142
0.803558
0.936596
0.806457
0.855357
0.833265
0.80348
0.840054
0.932853
0.803661
0.930638
0.853353
0.835185
0.92812
0.9229
0.804969
0.835671
0.928902
0.879756
0.813678
0.893924
0.935519
0.938331
0.933454
0.939447
0.912886
0.834026
0.934767
0.932703
0.942996
0.935651
0.814489
0.846562
0.935518
0.81721
0.881787
0.833064
0.927311
0.941198
0.804681
0.923734
0.938456
0.802554
0.804473
0.842063
0.850895
0.932151
0.910379
0.82872
0.844854
0.934916
0.917987
0.931593
0.88409
0.841636
0.838702
0.818919
0.830441
0.809647
0.918654
0.81041
0.803435
0.803062
0.939169
0.93614
0.891305
0.935693
0.941003
0.846165
0.8463
0.880221
0.803101
0.9382
0.826058
0.858722
0.803317
0.845712
0.912705
0.849564
0.913227
0.891516
0.914825
0.860734
0.825665
0.851448
0.870996
0.826263
0.899222
0.935605
0.844044
0.830338
0.805636
0.812575
0.879318
0.798686
0.877626
0.93855
0.837211
0.81805
0.858731
0.871935
0.933752
0.932049
0.832717
0.935225
0.841828
0.933249
0.842002
0.872367
0.801798
0.834011
0.933019
0.806225
0.93682
0.839905
0.833793
0.943427
0.803174
0.851543
0.860008
0.827301
0.933027
0.899217
0.861162
0.839658
0.918096
0.933558
0.85053
0.836041
0.939889
0.878261
0.808127
0.897383
0.802828
0.863743
0.917243
0.807988
0.819988
0.933215
0.912504
0.933445
0.902422
0.93326
0.931028
0.93837
0.859886
0.84422
0.875769
0.933225
0.832603
0.830085
0.929694
0.936914
0.932515
0.934387
0.843126
0.859647
0.935737
0.933199
0.93589
0.893269
0.924855
0.847099
0.920986
0.808115
0.931826
0.865965
0.816432
0.908717
0.839953
0.80229
0.907859
0.941371
0.868988
0.841863
0.82705
0.835962
0.809672
0.871885
0.925254
0.830334
0.798765
0.929893
0.942612
0.861821
0.940767
0.847245
0.926867
0.939789
0.803365
0.83556
0.926112
0.84958
0.906274
0.803552
0.933935
0.823804
0.801977
0.820525
0.943165
0.829961
0.854397
0.935503
0.850614
0.933568
0.846127
0.86781
0.939799
0.940531
0.92997
0.859891
0.917107
0.942843
0.839219
0.803053
0.939424
0.836009
0.910236
0.933557
0.928779
0.94328
0.835497
0.82481
0.942945
0.806179
0.805359
0.838394
0.928797
0.832144
0.841571
0.819394
0.802692
0.87133
0.933832
0.933239
0.879112
0.920962
0.934743
0.850022
0.882349
0.828839
0.933713
0.932698
0.819312
0.834543
0.89077
0.893352
0.867161
0.933724
0.917896
0.807176
0.87152
0.831272
0.932928
0.932422
0.834479
0.910657
0.941361
0.940415
0.93583
0.935757
0.802106
0.816187
0.812887
0.828242
0.803091
0.825056
0.859455
0.81963
0.810224
0.934437
0.82184
0.834558
0.82827
0.942941
0.933835
0.934087
0.803255
0.864583
0.86479
0.815264
0.826837
0.862101
0.806294
0.820087
0.830572
0.852005
0.816649
0.935014
0.938663
0.935356
0.809498
0.817942
0.910673
0.815129
0.935373
0.834801
0.832557
0.809361
0.88522
0.827638
0.805212
0.861847
0.840001
0.83508
0.846145
0.942723
0.930789
0.934936
0.925671
0.934103
0.932714
0.800771
0.910589
0.834961
0.875174
0.933924
0.906297
0.898143
0.850791
0.940348
0.934675
0.933951
0.821862
0.85108
0.940288
0.829732
0.909185
0.935467
0.885042
0.814142
0.932788
0.848901
0.807035
0.940259
0.827143
0.932397
0.93575
0.846648
0.866629
0.924955
0.871656
0.803042
0.842039
0.928438
0.824186
0.915821
0.830297
0.94224
0.843698
0.939295
0.804676
0.808423
0.932933
0.806022
0.859046
0.83927
0.801933
0.941876
0.934158
0.935518
0.94145
0.933228
0.819675
0.933565
0.883646
0.933333
0.934283
0.936904
0.865708
0.94048
0.819321
0.935742
0.933702
0.80163
0.856155
0.820544
0.884929
0.813703
0.800431
0.825887
0.942543
0.839873
0.809997
0.836048
0.935984
0.871501
0.939756
0.803566
0.936718
0.93534
0.848553
0.806079
0.824549
0.937828
0.93557
0.852871
0.801031
0.820001
0.824925
0.815485
0.810529
0.939063
0.935142
0.925961
0.814608
0.933268
0.929307
0.876487
0.814057
0.822916
0.936051
0.882328
0.811658
0.932362
0.803461
0.809369
0.834595
0.933693
0.913078
0.943206
0.93537
0.932908
0.933728
0.935018
0.939563
0.85585
0.803477
0.933764
0.934448
0.890308
0.803597
0.799224
0.941674
0.935674
0.934574
0.803538
0.830642
0.904564
0.938522
0.826469
0.853521
0.80556
0.890898
0.842915
0.807436
0.938721
0.840819
0.851852
0.939587
0.85001
0.933319
0.812208
0.929629
0.836513
0.900392
0.80698
0.932065
0.931144
0.806654
0.843559
0.883191
0.941961
0.827758
0.836592
0.856239
0.940926
0.927592
0.93323
0.804991
0.927827
0.932487
0.83285
0.934688
0.80212
0.827259
0.930807
0.939043
0.92638
0.9276
0.879814
0.836672
0.917822
0.80458
0.936289
0.798739
0.921302
0.867598
0.924279
0.937026
0.821919
0.934609
0.811695
0.941413
0.895847
0.935386
0.830121
0.804215
0.935935
0.815818
0.854185
0.829533
0.830814
0.812096
0.810571
0.919367
0.798603
0.932847
0.934168
0.809194
0.805419
0.935582
0.862735
0.938673
0.808055
0.86058
0.933238
0.854714
0.921886
0.936644
0.929605
0.932224
0.940722
0.925268
0.919374
0.810279
0.79902
0.939207
0.822699
0.935346
0.802224
0.834565
0.810152
0.941252
0.940828
0.928433
0.939602
0.93752
0.941542
0.928218
0.865663
0.814845
0.937817
0.806899
0.842228
0.873915
0.824806
0.941765
0.939579
0.840632
0.82124
0.826639
0.808366
0.811714
0.806679
0.927816
0.928882
0.941189
0.91949
0.928345
0.932335
0.834603
0.834501
0.848918
0.91985
0.898082
0.868425
0.803038
0.841224
0.932511
0.94306
0.94183
0.829863
0.840573
0.830626
0.852406
0.86532
0.933232
0.939615
0.902141
0.935297
0.937138
0.888136
0.93662
0.833169
0.827816
0.846854
0.875007
0.937964
0.842189
0.890979
0.817113
0.808418
0.803405
0.846905
0.940787
0.886018
0.925715
0.799984
0.863827
0.934707
0.803204
0.86511
0.836357
0.937795
0.933086
0.941026
0.841325
0.87213
0.915783
0.856872
0.883934
0.938029
0.930895
0.933244
0.907336
0.933566
0.882631
0.808663
0.876245
0.888014
0.918425
0.837467
0.923719
0.943368
0.938872
0.940199
0.942841
0.849937
0.803343
0.943187
0.900528
0.823957
0.938529
0.940113
0.836652
0.834031
0.900088
0.860455
0.846909
0.882472
0.938872
0.803565
0.941241
0.856326
0.837325
0.921738
0.931455
0.927812
0.89899
0.916681
0.835682
0.909757
0.931658
0.839732
0.833385
0.940102
0.810788
0.931203
0.80819
0.891435
0.912103
0.85764
0.837264
0.804616
0.933516
0.824038
0.885014
0.933332
0.927236
0.937998
0.873905
0.830738
0.882301
0.942362
0.937778
0.933061
0.860721
0.891557
0.870064
0.808896
0.80345
0.879946
0.824119
0.925536
0.906772
0.805878
0.853542
0.938877
0.885184
0.942879
0.840223
0.925394
0.802805
0.925798
0.901713
0.93865
0.942477
0.834761
0.841853
0.831854
0.936363
0.849109
0.942995
0.836161
0.80889
0.929425
0.850005
0.935114
0.803386
0.846134
0.851751
0.838132
0.899836
0.812982
0.936207
0.937155
0.933437
0.82973
0.937151
0.888931
0.803568
0.934782
0.932707
0.888779
0.886529
0.939751
0.92619
0.887532
0.849026
0.90993
0.836806
0.826483
0.886658
0.927128
0.877056
0.799812
0.836892
0.876972
0.935595
0.832781
0.903017
0.866762
0.932324
0.849323
0.933683
0.909328
0.942964
0.803389
0.914064
0.803799
0.811089
0.93273
0.894641
0.827794
0.803592
0.93474
0.857755
0.806283
0.933632
0.933127
0.934883
0.934202
0.848776
0.922132
0.842776
0.849435
0.934156
0.866531
0.93385
0.934045
0.802123
0.934158
0.934297
0.862484
0.839481
0.933201
0.916053
0.811103
0.934612
0.941582
0.932196
0.928022
0.936536
0.939858
0.810951
0.934904
0.931609
0.834339
0.871166
0.934953
0.841357
0.802463
0.836525
0.912132
0.935144
0.847236
0.934745
0.936328
0.941664
0.802227
0.811744
0.934937
0.801839
0.938166
0.81632
0.855871
0.937805
0.934253
0.835749
0.869052
0.937431
0.853598
0.837003
0.857379
0.933627
0.837642
0.933822
0.806305
0.898338
0.800874
0.803245
0.828626
0.932708
0.846013
0.882786
0.805215
0.840573
0.808301
0.925654
0.835817
0.94224
0.806193
0.805861
0.924767
0.939563
0.88948
0.937455
0.843334
0.809191
0.85334
0.805346
0.912212
0.844109
0.843639
0.939939
0.837242
0.943182
0.835741
0.85359
0.805403
0.93434
0.942421
0.80425
0.940244
0.924391
0.895758
0.841528
0.938151
0.801704
0.928502
0.825034
0.841234
0.838151
0.919899
0.871482
0.901659
0.851736
0.923761
0.942396
0.927627
0.80331
0.841743
0.883986
0.911711
0.833239
0.832195
0.943214
0.85827
0.934412
0.814369
0.847339
0.92488
0.806893
0.819185
0.85021
0.806441
0.904708
0.819995
0.803079
0.907003
0.928725
0.827019
0.80599
0.923653
0.931835
0.847322
0.803759
0.804312
0.810485
0.861745
0.939325
0.93962
0.837033
0.861723
0.939926
0.939234
0.803172
0.806369
0.82212
0.91575
0.818553
0.923773
0.938029
0.837374
0.928004
0.941769
0.844009
0.904904
0.928877
0.841136
0.935101
0.926058
0.920132
0.930902
0.813173
0.828947
0.821303
0.933225
0.933967
0.809925
0.84969
0.933319
0.932346
0.841269
0.933405
0.932489
0.932721
0.932411
0.822123
0.932363
0.933175
0.839752
0.821026
0.937876
0.930609
0.933384
0.804588
0.846179
0.838106
0.813772
0.830535
0.898299
0.827962
0.84692
0.934893
0.933189
0.93324
0.816093
0.832215
0.93325
0.832976
0.933815
0.934406
0.933636
0.921086
0.803453
0.933576
0.93621
0.936103
0.804038
0.816716
0.939918
0.934093
0.936037
0.937039
0.803921
0.840702
0.836187
0.854328
0.935906
0.931809
0.812249
0.85842
0.804257
0.808862
0.939612
0.808646
0.918667
0.837474
0.846289
0.807494
0.837026
0.834502
0.847758
0.827819
0.919946
0.845672
0.805429
0.82585
0.848133
0.892009
0.934398
0.828615
0.84361
0.934654
0.914684
0.937322
0.85993
0.846342
0.92719
0.823356
0.803848
0.903955
0.875674
0.941648
0.851276
0.913745
0.934575
0.816927
0.936222
0.812206
0.803276
0.838437
0.803384
0.803492
0.933029
0.935614
0.823155
0.837203
0.860663
0.854075
0.811591
0.917879
0.809722
0.935399
0.813579
0.937789
0.834758
0.941112
0.810903
0.937166
0.808687
0.934627
0.802408
0.938277
0.935598
0.936347
0.934816
0.893824
0.933641
0.938795
0.857512
0.941523
0.821343
0.808522
0.93841
0.932549
0.936366
0.941497
0.937814
0.93817
0.936544
0.934526
0.934136
0.84299
0.848216
0.80608
0.804728
0.932644
0.93889
0.936762
0.940254
0.933113
0.836681
0.807107
0.933604
0.818901
0.828949
0.833987
0.940556
0.934219
0.933653
0.827189
0.832555
0.874042
0.80418
0.820334
0.805125
0.93492
0.933807
0.93357
0.804167
0.813322
0.804334
0.803696
0.934653
0.932323
0.934918
0.824128
0.934121
0.935133
0.855627
0.934002
0.835116
0.832543
0.934594
0.815945
0.809198
0.824972
0.931623
0.934413
0.940628
0.937441
0.852461
0.928824
0.940484
0.934265
0.835088
0.805189
0.806213
0.811683
0.937995
0.939951
0.803806
0.927012
0.936341
0.836213
0.804666
0.83349
0.807133
0.91681
0.831117
0.837773
0.805043
0.902496
0.934802
0.813416
0.803399
0.933875
0.933354
0.821092
0.933212
0.803804
0.93514
0.932061
0.934745
0.80521
0.934932
0.881788
0.933489
0.82992
0.803936
0.825307
0.933962
0.820341
0.806546
0.917685
0.827724
0.939882
0.939572
0.934703
0.813376
0.936331
0.93802
0.929852
0.836459
0.934307
0.813074
0.886152
0.934364
0.930526
0.934247
0.810449
0.803395
0.80776
0.931457
0.82641
0.937121
0.845026
0.899295
0.804536
0.810806
0.937447
0.933857
0.92811
0.871126
0.890037
0.817837
0.838348
0.938532
0.843943
0.801377
0.896644
0.802809
0.833851
0.801597
0.935848
0.937914
0.802994
0.817823
0.922371
0.851653
0.939336
0.805128
0.806922
0.935816
0.933005
0.90571
0.929646
0.805829
0.841016
0.939627
0.80642
0.822977
0.943148
0.940323
0.932681
0.922485
0.803293
0.939931
0.905277
0.814686
0.942748
0.808827
0.93676
0.856073
0.805922
0.933672
0.923659
0.914702
0.940356
0.799059
0.860658
0.840805
0.802082
0.938231
0.933525
0.817508
0.939948
0.938249
0.804505
0.801726
0.840402
0.912235
0.939795
0.939249
0.86181
0.938841
0.891163
0.831577
0.932841
0.932504
0.845811
0.941623
0.941054
0.896549
0.942514
0.80687
0.803557
0.804085
0.937081
0.93965
0.803941
0.804859
0.822258
0.935033
0.843133
0.933703
0.936645
0.902214
0.924862
0.801587
0.897356
0.805506
0.89234
0.93715
0.799089
0.881276
0.943464
0.887418
0.837567
0.81041
0.903666
0.818264
0.803282
0.80043
0.876275
0.806333
0.834875
0.803685
0.886424
0.934439
0.933506
0.944498
0.820337
0.844866
0.871388
0.804808
0.914056
0.90337
0.854576
0.915716
0.888165
0.805162
0.803983
0.805535
0.844244
0.866749
0.822496
0.862301
0.930554
0.924765
0.824224
0.845252
0.923948
0.926682
0.931976
0.825442
0.933432
0.805118
0.936293
0.892929
0.8042
0.895677
0.804015
0.8032
0.878732
0.808315
0.942284
0.941923
0.801552
0.906771
0.941074
0.838065
0.885274
0.803573
0.942131
0.942549
0.942595
0.939266
0.943005
0.938085
0.927476
0.837947
0.804155
0.824649
0.836078
0.923599
0.879498
0.894558
0.871082
0.798674
0.838192
0.839468
0.803295
0.858579
0.838852
0.929556
0.912248
0.903425
0.932299
0.907851
0.839807
0.839929
0.898848
0.916048
0.929442
0.939652
0.930721
0.939302
0.919218
0.803379
0.893837
0.940619
0.886233
0.843639
0.942569
0.841593
0.906916
0.921859
0.914641
0.808552
0.803578
0.937033
0.837657
0.939487
0.84156
0.839134
0.803905
0.924089
0.888522
0.822188
0.803479
0.931414
0.804454
0.803426
0.848734
0.843581
0.845248
0.937518
0.941137
0.877352
0.802564
0.925905
0.883271
0.93881
0.803165
0.942867
0.802937
0.918188
0.80352
0.943126
0.803282
0.846092
0.804586
0.938578
0.943309
0.803466
0.829695
0.877883
0.9389
0.853526
0.927375
0.821207
0.931645
0.93532
0.80413
0.82466
0.9426
0.937916
0.94349
0.803585
0.863882
0.937492
0.807737
0.872629
0.930389
0.845885
0.801239
0.801819
0.930343
0.895436
0.802492
0.928999
0.929822
0.9354
0.939623
0.907309
0.837872
0.806431
0.931857
0.810314
0.928733
0.812513
0.811366
0.813634
0.942692
0.819476
0.803576
0.821561
0.81497
0.838086
0.818863
0.8163
0.935625
0.816338
0.80228
0.942475
0.799872
0.80323
0.813988
0.817847
0.942279
0.834778
0.811915
0.800222
0.943608
0.803464
0.805209
0.824448
0.931933
0.810173
0.867836
0.803471
0.936213
0.808579
0.832916
0.843704
0.937044
0.849975
0.804354
0.803515
0.80614
0.832307
0.9364
0.807254
0.802158
0.83877
0.931986
0.942642
0.933242
0.844689
0.931702
0.856541
0.934884
0.863311
0.814153
0.932071
0.803449
0.85707
0.932199
0.929799
0.937798
0.93236
0.940077
0.837787
0.936118
0.863187
0.870027
0.942448
0.93258
0.862621
0.934571
0.876564
0.93289
0.817606
0.937101
0.801592
0.815551
0.93078
0.844946
0.842656
0.830261
0.941666
0.934821
0.832118
0.93556
0.800077
0.87696
0.934252
0.934395
0.933847
0.870603
0.859897
0.933521
0.858893
0.933305
0.94196
0.933168
0.827313
0.933133
0.826698
0.933163
0.933234
0.88382
0.940394
0.933365
0.933556
0.839926
0.90755
0.80321
0.836793
0.928089
0.933803
0.940002
0.829918
0.932821
0.943638
0.803232
0.934081
0.801308
0.854667
0.821539
0.846593
0.94162
0.89054
0.926155
0.836966
0.850565
0.940754
0.939322
0.832643
0.822267
0.89661
0.928755
0.80123
0.803534
0.81674
0.923874
0.83527
0.843628
0.801736
0.942225
0.834015
0.938923
0.84805
0.947853
0.851181
0.81281
0.902439
0.837493
0.943471
0.938799
0.939338
0.858849
0.932666
0.831085
0.807756
0.931352
0.84873
0.850592
0.839465
0.802876
0.809462
0.886372
0.907597
0.940835
0.907251
0.828279
0.934271
0.940724
0.825627
0.798414
0.916009
0.8232
0.937782
0.848111
0.820879
0.938279
0.935278
0.816268
0.818847
0.91208
0.9427
0.816867
0.802429
0.815162
0.862351
0.813557
0.808692
0.812168
0.933209
0.855018
0.809721
0.91793
0.810869
0.841238
0.933543
0.930731
0.942143
0.943605
0.858513
0.803806
0.845605
0.833607
0.940915
0.897139
0.80683
0.93757
0.843314
0.942347
0.847823
0.814481
0.88329
0.807543
0.921102
0.937427
0.936184
0.807341
0.930105
0.934345
0.80438
0.814064
0.854211
0.937293
0.816659
0.933792
0.810572
0.809983
0.803444
0.804715
0.92817
0.941889
0.805175
0.915658
0.934684
0.921967
0.822064
0.943493
0.853282
0.832864
0.829939
0.940385
0.921277
0.905628
0.831571
0.942008
0.943354
0.932563
0.923743
0.857458
0.909492
0.867669
0.936782
0.8348
0.942128
0.844561
0.869753
0.803367
0.932976
0.906297
0.806539
0.802008
0.937062
0.918443
0.887465
0.803582
0.843726
0.80596
0.803959
0.804039
0.835125
0.802927
0.804457
0.804128
0.895878
0.899776
0.804148
0.911365
0.939133
0.895088
0.890244
0.9406
0.809384
0.904394
0.934725
0.942175
0.941885
0.879345
0.807073
0.803417
0.80347
0.803262
0.874243
0.804716
0.940172
0.874483
0.884194
0.839306
0.9156
0.94141
0.92537
0.938208
0.938538
0.93657
0.805533
0.940895
0.937836
0.922306
0.842603
0.80805
0.804045
0.821962
0.881922
0.821639
0.937867
0.937644
0.922847
0.869802
0.917971
0.803743
0.838847
0.93658
0.936969
0.927764
0.827391
0.938559
0.808724
0.938325
0.854691
0.829624
0.929435
0.803076
0.942577
0.865421
0.934985
0.800064
0.936631
0.803456
0.935375
0.937498
0.838188
0.809064
0.802693
0.930504
0.938281
0.833383
0.937977
0.83884
0.901508
0.803299
0.804208
0.82506
0.934633
0.803402
0.803842
0.933392
0.929657
0.816338
0.839065
0.803088
0.933661
0.932112
0.839548
0.839168
0.932958
0.841138
0.937386
0.893622
0.931024
0.933581
0.838981
0.823045
0.938374
0.842151
0.803625
0.843764
0.939266
0.914053
0.840591
0.940531
0.839714
0.80334
0.910212
0.939999
0.936094
0.804336
0.917441
0.901478
0.905862
0.909456
0.941197
0.93455
0.929737
0.840662
0.922746
0.920285
0.841274
0.844828
0.93994
0.820991
0.810755
0.863027
0.811874
0.812982
0.937225
0.805426
0.820116
0.931365
0.814147
0.93482
0.936519
0.860457
0.806446
0.937797
0.814672
0.812546
0.817056
0.80909
0.810623
0.807588
0.819648
0.815572
0.896744
0.82241
0.816893
0.92479
0.935798
0.818537
0.929775
0.802939
0.805213
0.937474
0.936627
0.936308
0.802013
0.844862
0.8262
0.92643
0.936772
0.891733
0.939411
0.931574
0.940344
0.937871
0.902519
0.931368
0.942778
0.808444
0.842104
0.803068
0.909114
0.933621
0.864232
0.939067
0.931695
0.941477
0.92785
0.803726
0.854027
0.92616
0.807222
0.907074
0.935872
0.842975
0.842688
0.943219
0.829576
0.886597
0.844134
0.931833
0.932795
0.93639
0.935661
0.844005
0.875727
0.825287
0.931978
0.932145
0.936902
0.881307
0.942137
0.932358
0.937078
0.808817
0.83836
0.842619
0.84701
0.929093
0.934908
0.804445
0.934348
0.932648
0.801444
0.87625
0.853933
0.932997
0.933884
0.804178
0.930223
0.802945
0.933585
0.803806
0.931115
0.933331
0.933151
0.840355
0.933291
0.844145
0.833309
0.87157
0.846267
0.933077
0.933105
0.840981
0.847219
0.93153
0.933161
0.857588
0.853424
0.933258
0.933424
0.933651
0.934221
0.828078
0.837641
0.866438
0.853762
0.933926
0.803042
0.870544
0.947576
0.83503
0.929017
0.878586
0.847932
0.860601
0.867417
0.834924
0.830717
0.829353
0.861954
0.803483
0.940868
0.82398
0.87428
0.92719
0.832043
0.833482
0.857756
0.92464
0.835993
0.93854
0.93307
0.829159
0.925036
0.937534
0.938024
0.838276
0.808098
0.881227
0.851835
0.818977
0.932938
0.826401
0.809088
0.853799
0.803549
0.82651
0.824048
0.821787
0.819567
0.817517
0.815824
0.812683
0.810155
0.814212
0.877217
0.811342
0.803571
0.814548
0.804544
0.855094
0.887833
0.802945
0.840339
0.944033
0.865303
0.810809
0.894143
0.809336
0.842139
0.85045
0.804665
0.805813
0.899957
0.819293
0.922655
0.802956
0.80449
0.847434
0.917942
0.926454
0.905415
0.842441
0.9142
0.804875
0.938647
0.817966
0.910095
0.84482
0.807544
0.941836
0.803082
0.91517
0.803512
0.959348
0.936335
0.932768
0.943539
0.831076
0.934152
0.901726
0.839773
0.922494
0.949411
0.942704
0.802927
0.852482
0.942294
0.802948
0.941859
0.803096
0.931705
0.834712
0.932589
0.804665
0.813119
0.840962
0.809667
0.861968
0.80364
0.935374
0.887492
0.826048
0.876619
0.941436
0.830218
0.802992
0.895905
0.930276
0.849275
0.844413
0.918498
0.941236
0.942
0.893372
0.805523
0.836437
0.803122
0.940614
0.803285
0.803895
0.803534
0.939764
0.928224
0.801367
0.804418
0.93855
0.804802
0.938157
0.829516
0.805206
0.93777
0.939453
0.937394
0.805987
0.937028
0.880754
0.806441
0.936676
0.802691
0.806949
0.936325
0.886233
0.941727
0.803218
0.943244
0.843702
0.934113
0.85067
0.939631
0.803487
0.808912
0.935365
0.828522
0.808223
0.807568
0.869305
0.923193
0.935686
0.934218
0.934387
0.933274
0.935569
0.840657
0.936206
0.942055
0.811286
0.934509
0.921169
0.812125
0.941257
0.805118
0.919636
0.839076
0.820285