# vtk DataFile Version 1.0
unstructured grid
ascii
DATASET UNSTRUCTURED_GRID
points 3920 float
-1 0 0
-1 1 0
2 0 0
2 1 0
0 0 0
1 0 0
-1 1 0.1
-1 0 0.1
0 0 0.1
1 0 0.1
2 0 0.1
2 1 0.1
-0.98 0 0
-0.96 0 0
-0.94 0 0
-0.92 0 0
-0.9 0 0
-0.88 0 0
-0.86 0 0
-0.84 0 0
-0.82 0 0
-0.8 0 0
-0.78 0 0
-0.76 0 0
-0.74 0 0
-0.72 0 0
-0.7 0 0
-0.68 0 0
-0.66 0 0
-0.64 0 0
-0.62 0 0
-0.6 0 0
-0.58 0 0
-0.56 0 0
-0.54 0 0
-0.52 0 0
-0.5 0 0
-0.48 0 0
-0.46 0 0
-0.44 0 0
-0.42 0 0
-0.4 0 0
-0.38 0 0
-0.36 0 0
-0.34 0 0
-0.32 0 0
-0.3 0 0
-0.28 0 0
-0.26 0 0
-0.24 0 0
-0.22 0 0
-0.2 0 0
-0.18 0 0
-0.16 0 0
-0.14 0 0
-0.12 0 0
-0.1 0 0
-0.08 0 0
-0.06 0 0
-0.04 0 0
-0.02 0 0
1.02 0 0
1.04 0 0
1.06 0 0
1.08 0 0
1.1 0 0
1.12 0 0
1.14 0 0
1.16 0 0
1.18 0 0
1.2 0 0
1.22 0 0
1.24 0 0
1.26 0 0
1.28 0 0
1.3 0 0
1.32 0 0
1.34 0 0
1.36 0 0
1.38 0 0
1.4 0 0
1.42 0 0
1.44 0 0
1.46 0 0
1.48 0 0
1.5 0 0
1.52 0 0
1.54 0 0
1.56 0 0
1.58 0 0
1.6 0 0
1.62 0 0
1.64 0 0
1.66 0 0
1.68 0 0
1.7 0 0
1.72 0 0
1.74 0 0
1.76 0 0
1.78 0 0
1.8 0 0
1.82 0 0
1.84 0 0
1.86 0 0
1.88 0 0
1.9 0 0
1.92 0 0
1.94 0 0
1.96 0 0
1.98 0 0
2 0.0199133 0
2 0.0414128 0
2 0.0646247 0
2 0.0896856 0
2 0.116743 0
2 0.145955 0
2 0.177494 0
2 0.211545 0
2 0.248309 0
2 0.288001 0
2 0.330854 0
2 0.377121 0
2 0.427073 0
2 0.481004 0
2 0.539231 0
2 0.602096 0
2 0.669968 0
2 0.743247 0
2 0.822362 0
2 0.907779 0
1.9 1 0
1.8 1 0
1.7 1 0
1.6 1 0
1.5 1 0
1.4 1 0
1.3 1 0
1.2 1 0
1.1 1 0
1 1 0
0.9 1 0
0.8 1 0
0.7 1 0
0.6 1 0
0.5 1 0
0.4 1 0
0.3 1 0
0.2 1 0
0.1 1 0
3.69793e-12 1 0
-0.1 1 0
-0.2 1 0
-0.3 1 0
-0.4 1 0
-0.5 1 0
-0.6 1 0
-0.7 1 0
-0.8 1 0
-0.9 1 0
-1 0.907779 0
-1 0.822362 0
-1 0.743247 0
-1 0.669968 0
-1 0.602096 0
-1 0.539231 0
-1 0.481004 0
-1 0.427073 0
-1 0.377121 0
-1 0.330854 0
-1 0.288001 0
-1 0.248309 0
-1 0.211545 0
-1 0.177494 0
-1 0.145955 0
-1 0.116743 0
-1 0.0896856 0
-1 0.0646247 0
-1 0.0414128 0
-1 0.0199133 0
0.0182781 0.00745351 0
0.0366672 0.0146286 0
0.0551632 0.0215237 0
0.0737617 0.0281372 0
0.0924585 0.0344675 0
0.111249 0.0405131 0
0.13013 0.0462728 0
0.149095 0.0517451 0
0.168142 0.0569289 0
0.187265 0.0618228 0
0.20646 0.0664258 0
0.225723 0.0707368 0
0.245049 0.0747549 0
0.264434 0.078479 0
0.283873 0.0819084 0
0.303362 0.0850422 0
0.322896 0.0878798 0
0.342472 0.0904204 0
0.362083 0.0926635 0
0.381726 0.0946086 0
0.401397 0.0962552 0
0.42109 0.0976029 0
0.440802 0.0986514 0
0.460527 0.0994006 0
0.480261 0.0998501 0
0.5 0.1 0
0.519739 0.0998501 0
0.539473 0.0994006 0
0.559198 0.0986514 0
0.57891 0.0976029 0
0.598603 0.0962552 0
0.618274 0.0946086 0
0.637917 0.0926635 0
0.657528 0.0904204 0
0.677104 0.0878798 0
0.696638 0.0850422 0
0.716127 0.0819084 0
0.735566 0.078479 0
0.754951 0.0747549 0
0.774277 0.0707368 0
0.79354 0.0664258 0
0.812735 0.0618228 0
0.831858 0.0569289 0
0.850905 0.0517451 0
0.86987 0.0462728 0
0.888751 0.0405131 0
0.907542 0.0344675 0
0.926238 0.0281372 0
0.944837 0.0215237 0
0.963333 0.0146286 0
0.981722 0.00745351 0
-1 0.907779 0.1
-1 0.822362 0.1
-1 0.743247 0.1
-1 0.669968 0.1
-1 0.602096 0.1
-1 0.539231 0.1
-1 0.481004 0.1
-1 0.427073 0.1
-1 0.377121 0.1
-1 0.330854 0.1
-1 0.288001 0.1
-1 0.248309 0.1
-1 0.211545 0.1
-1 0.177494 0.1
-1 0.145955 0.1
-1 0.116743 0.1
-1 0.0896856 0.1
-1 0.0646247 0.1
-1 0.0414128 0.1
-1 0.0199133 0.1
-0.98 0 0.1
-0.96 0 0.1
-0.94 0 0.1
-0.92 0 0.1
-0.9 0 0.1
-0.88 0 0.1
-0.86 0 0.1
-0.84 0 0.1
-0.82 0 0.1
-0.8 0 0.1
-0.78 0 0.1
-0.76 0 0.1
-0.74 0 0.1
-0.72 0 0.1
-0.7 0 0.1
-0.68 0 0.1
-0.66 0 0.1
-0.64 0 0.1
-0.62 0 0.1
-0.6 0 0.1
-0.58 0 0.1
-0.56 0 0.1
-0.54 0 0.1
-0.52 0 0.1
-0.5 0 0.1
-0.48 0 0.1
-0.46 0 0.1
-0.44 0 0.1
-0.42 0 0.1
-0.4 0 0.1
-0.38 0 0.1
-0.36 0 0.1
-0.34 0 0.1
-0.32 0 0.1
-0.3 0 0.1
-0.28 0 0.1
-0.26 0 0.1
-0.24 0 0.1
-0.22 0 0.1
-0.2 0 0.1
-0.18 0 0.1
-0.16 0 0.1
-0.14 0 0.1
-0.12 0 0.1
-0.1 0 0.1
-0.08 0 0.1
-0.06 0 0.1
-0.04 0 0.1
-0.02 0 0.1
0.0182781 0.00745351 0.1
0.0366672 0.0146286 0.1
0.0551632 0.0215237 0.1
0.0737617 0.0281372 0.1
0.0924585 0.0344675 0.1
0.111249 0.0405131 0.1
0.13013 0.0462728 0.1
0.149095 0.0517451 0.1
0.168142 0.0569289 0.1
0.187265 0.0618228 0.1
0.20646 0.0664258 0.1
0.225723 0.0707368 0.1
0.245049 0.0747549 0.1
0.264434 0.078479 0.1
0.283873 0.0819084 0.1
0.303362 0.0850422 0.1
0.322896 0.0878798 0.1
0.342472 0.0904204 0.1
0.362083 0.0926635 0.1
0.381726 0.0946086 0.1
0.401397 0.0962552 0.1
0.42109 0.0976029 0.1
0.440802 0.0986514 0.1
0.460527 0.0994006 0.1
0.480261 0.0998501 0.1
0.5 0.1 0.1
0.519739 0.0998501 0.1
0.539473 0.0994006 0.1
0.559198 0.0986514 0.1
0.57891 0.0976029 0.1
0.598603 0.0962552 0.1
0.618274 0.0946086 0.1
0.637917 0.0926635 0.1
0.657528 0.0904204 0.1
0.677104 0.0878798 0.1
0.696638 0.0850422 0.1
0.716127 0.0819084 0.1
0.735566 0.078479 0.1
0.754951 0.0747549 0.1
0.774277 0.0707368 0.1
0.79354 0.0664258 0.1
0.812735 0.0618228 0.1
0.831858 0.0569289 0.1
0.850905 0.0517451 0.1
0.86987 0.0462728 0.1
0.888751 0.0405131 0.1
0.907542 0.0344675 0.1
0.926238 0.0281372 0.1
0.944837 0.0215237 0.1
0.963333 0.0146286 0.1
0.981722 0.00745351 0.1
1.02 0 0.1
1.04 0 0.1
1.06 0 0.1
1.08 0 0.1
1.1 0 0.1
1.12 0 0.1
1.14 0 0.1
1.16 0 0.1
1.18 0 0.1
1.2 0 0.1
1.22 0 0.1
1.24 0 0.1
1.26 0 0.1
1.28 0 0.1
1.3 0 0.1
1.32 0 0.1
1.34 0 0.1
1.36 0 0.1
1.38 0 0.1
1.4 0 0.1
1.42 0 0.1
1.44 0 0.1
1.46 0 0.1
1.48 0 0.1
1.5 0 0.1
1.52 0 0.1
1.54 0 0.1
1.56 0 0.1
1.58 0 0.1
1.6 0 0.1
1.62 0 0.1
1.64 0 0.1
1.66 0 0.1
1.68 0 0.1
1.7 0 0.1
1.72 0 0.1
1.74 0 0.1
1.76 0 0.1
1.78 0 0.1
1.8 0 0.1
1.82 0 0.1
1.84 0 0.1
1.86 0 0.1
1.88 0 0.1
1.9 0 0.1
1.92 0 0.1
1.94 0 0.1
1.96 0 0.1
1.98 0 0.1
2 0.0199133 0.1
2 0.0414128 0.1
2 0.0646247 0.1
2 0.0896856 0.1
2 0.116743 0.1
2 0.145955 0.1
2 0.177494 0.1
2 0.211545 0.1
2 0.248309 0.1
2 0.288001 0.1
2 0.330854 0.1
2 0.377121 0.1
2 0.427073 0.1
2 0.481004 0.1
2 0.539231 0.1
2 0.602096 0.1
2 0.669968 0.1
2 0.743247 0.1
2 0.822362 0.1
2 0.907779 0.1
1.9 1 0.1
1.8 1 0.1
1.7 1 0.1
1.6 1 0.1
1.5 1 0.1
1.4 1 0.1
1.3 1 0.1
1.2 1 0.1
1.1 1 0.1
1 1 0.1
0.9 1 0.1
0.8 1 0.1
0.7 1 0.1
0.6 1 0.1
0.5 1 0.1
0.4 1 0.1
0.3 1 0.1
0.2 1 0.1
0.1 1 0.1
3.69793e-12 1 0.1
-0.1 1 0.1
-0.2 1 0.1
-0.3 1 0.1
-0.4 1 0.1
-0.5 1 0.1
-0.6 1 0.1
-0.7 1 0.1
-0.8 1 0.1
-0.9 1 0.1
1.08758 0.0158154 0
-0.0898513 0.0203294 0
0.0966181 0.0537636 0
0.90205 0.0548881 0
1.21055 0.0202058 0
-0.209811 0.0159577 0
1.3305 0.0176902 0
-0.33 0.0173205 0
1.45324 0.0148141 0
-0.448654 0.0159854 0
1.56842 0.0191785 0
-0.569936 0.0166364 0
0.193292 0.0805369 0
0.805051 0.0813623 0
0.709096 0.100353 0
0.288591 0.0996656 0
0.390184 0.111848 0
0.61033 0.111742 0
0.488809 0.116278 0
1.67175 0.0169692 0
-0.67 0.0169809 0
-0.955017 0.454039 0
1.95131 0.44569 0
1.74981 0.0168753 0
-0.75 0.0173205 0
-0.968032 0.266538 0
1.96871 0.266267 0
0.978232 0.0305687 0
0.0208675 0.026451 0
-0.150454 0.91842 0
1.13854 0.907437 0
1.45012 0.904365 0
-0.445923 0.908903 0
-0.853423 0.0157019 0
1.84881 0.016319 0
0.853689 0.915652 0
0.153944 0.912184 0
0.545151 0.914125 0
0.549913 0.115152 0
1.51 0.0173205 0
-0.506989 0.01651 0
1.27 0.0173205 0
1.14976 0.0173333 0
-0.268171 0.0206442 0
-0.150501 0.0153244 0
-0.391384 0.0153993 0
1.38886 0.0171544 0
-0.973694 0.161724 0
1.97441 0.162392 0
-0.945221 0.633523 0
1.94544 0.63312 0
1.91008 0.0186068 0
-0.91 0.0169616 0
-0.030664 0.0194327 0
1.03074 0.0165456 0
-0.966065 0.353575 0
1.96128 0.359765 0
1.93879 0.781254 0
-0.937057 0.781882 0
-0.980746 0.080709 0
1.9772 0.0760699 0
0.058735 0.0409372 0
0.355202 0.913001 0
0.86356 0.0661005 0
0.134223 0.0651111 0
0.941972 0.0397386 0
-0.653034 0.915003 0
1.65328 0.904589 0
0.770126 0.0881325 0
0.232946 0.0902008 0
0.330582 0.105648 0
0.670612 0.108365 0
0.428707 0.116145 0
1.80993 0.016629 0
-0.810168 0.0172178 0
-0.71 0.0173205 0
1.63047 0.0175504 0
1.70842 0.0169661 0
-0.628824 0.0181787 0
-0.949815 0.0133898 0
1.95 0.0173205 0
1.85542 0.907891 0
-0.85 0.913397 0
1.9833 0.0307692 0
-0.983315 0.0309709 0
-0.750025 0.916468 0
-0.701107 0.836904 0
-0.607741 0.836428 0
-0.656448 0.759827 0
-0.572936 0.758144 0
-0.61411 0.691195 0
-0.539534 0.689068 0
-0.578542 0.626111 0
-0.507461 0.624216 0
-0.544001 0.566638 0
-0.477696 0.564279 0
-0.511582 0.51001 0
-0.451689 0.507147 0
-0.481834 0.457732 0
-0.426137 0.454624 0
-0.453236 0.407539 0
-0.398845 0.406233 0
-0.507958 0.409496 0
-0.368427 0.460177 0
-0.344602 0.405209 0
-0.315696 0.447824 0
-0.294128 0.402169 0
-0.262844 0.444518 0
-0.241968 0.388746 0
-0.209878 0.439557 0
-0.185184 0.391135 0
-0.156687 0.437338 0
-0.133719 0.390776 0
-0.104405 0.434306 0
-0.0818745 0.388334 0
-0.0528785 0.431165 0
-0.0305984 0.385639 0
-0.00180552 0.427863 0
0.0194564 0.382608 0
0.0485809 0.42449 0
0.0701962 0.37973 0
0.0985483 0.421145 0
0.119893 0.377339 0
0.147837 0.417911 0
0.172552 0.36751 0
0.197018 0.412597 0
0.221203 0.37141 0
0.24512 0.409646 0
-0.48178 0.364657 0
-0.531053 0.364782 0
-0.0599102 0.344151 0
-0.324909 0.359566 0
0.266181 0.368462 0
0.292132 0.407649 0
0.311992 0.365779 0
0.338918 0.404821 0
0.357567 0.355909 0
0.384723 0.40053 0
0.404675 0.359681 0
0.430617 0.398558 0
0.450457 0.35827 0
0.474237 0.395182 0
0.496746 0.34898 0
0.520548 0.397931 0
0.542071 0.353121 0
0.566011 0.389914 0
0.585061 0.350856 0
0.609352 0.38696 0
0.629069 0.348168 0
0.655979 0.391217 0
0.67472 0.346182 0
0.699346 0.381414 0
0.719333 0.341965 0
0.743718 0.377547 0
0.764028 0.339036 0
0.788201 0.373582 0
0.807659 0.336101 0
0.832821 0.372249 0
0.852309 0.334017 0
0.877785 0.370339 0
0.897875 0.331141 0
0.922904 0.366281 0
0.943173 0.327335 0
0.968282 0.363358 0
0.989029 0.324222 0
1.01391 0.361511 0
1.03465 0.321428 0
1.05949 0.358447 0
1.08389 0.312052 0
1.10575 0.355104 0
1.12889 0.31562 0
1.15067 0.353235 0
1.17157 0.312819 0
1.19626 0.349369 0
1.21618 0.309863 0
1.2416 0.346914 0
1.26131 0.30715 0
1.28691 0.344312 0
1.30571 0.303752 0
1.33144 0.341222 0
1.35018 0.300911 0
1.3758 0.338308 0
1.39501 0.298931 0
1.42015 0.335235 0
1.43904 0.296349 0
1.46355 0.330194 0
1.48256 0.293347 0
1.50685 0.326967 0
1.52589 0.29055 0
1.54996 0.325305 0
1.56909 0.287929 0
[...]
CELL_DATA 3694
SCALARS rho float
LOOKUP_TABLE default
0.735003
0.670376
0.803721
0.81277
0.826313
0.805
0.791498
0.79972
0.809758
0.802579
0.817073
0.817066
0.84027
0.789229
0.800531
0.750168
0.803197
0.802826
0.759879
0.849835
0.81702
0.822808
0.696877
0.803303
0.693453
0.839169
0.719998
0.806017
0.836802
0.798339
0.798534
0.718491
0.803381
0.82446
0.802637
0.797161
0.837006
0.822603
0.824597
0.778108
0.804548
0.817216
0.83413
0.825032
0.805037
0.812657
0.800557
0.666233
0.679021
0.720392
0.801974
0.802884
0.846599
0.801963
0.628964
0.837906
0.802454
0.818801
0.832542
0.753854
0.796152
0.814849
0.841894
0.799334
0.842417
0.830628
0.807359
0.813316
0.736498
0.858132
0.8031
0.807491
0.822831
0.80316
0.824233
0.802858
0.814083
0.799397
0.813665
0.802663
0.713482
0.818132
0.802197
0.776707
0.80961
0.799351
0.818146
0.714576
0.73612
0.824883
0.798975
0.802259
0.820245
0.815229
0.674609
0.806413
0.722841
0.817558
0.812095
0.839751
0.814398
0.762222
0.718683
0.809558
0.809049
0.814844
0.817536
0.806912
0.715508
0.814116
0.799155
0.722107
0.720964
0.823292
0.867745
0.802078
0.799535
0.811897
0.803085
0.801979
0.76562
0.822365
0.819487
0.769646
0.704575
0.758312
0.8172
0.776697
0.843376
0.700116
0.767101
0.800272
0.80783
0.777444
0.800668
0.795399
0.805352
0.802305
0.797718
0.814329
0.813543
0.7101
0.816727
0.813397
0.757435
0.668485
0.6768
0.797851
0.815802
0.813004
0.744139
0.802615
0.554949
0.778378
0.685393
0.763139
0.713316
0.783535
0.606126
0.792945
0.837409
0.644385
0.78193
0.73685
0.843946
0.553154
0.817107
0.800157
0.802627
0.673034
0.801492
0.662288
0.857656
0.536545
0.799785
0.633379
0.872389
0.833139
0.820459
0.745071
0.813885
0.721868
0.826744
0.737344
0.648154
0.803051
0.675986
0.823209
0.801604
0.850804
0.791678
0.704337
0.814567
0.79812
0.741894
0.852765
0.811299
0.84868
0.736373
0.742701
0.770808
0.793626
0.831538
0.834136
0.816787
0.813937
0.668832
0.804515
0.726633
0.80314
0.708499
0.797202
0.795546
0.801413
0.825538
0.763422
0.830243
0.74929
0.825479
0.819687
0.815756
0.853008
0.829342
0.703026
0.826892
0.687329
0.787678
0.809832
0.850972
0.830018
0.808099
0.794331
0.745103
0.817433
0.836546
0.817247
0.714788
0.799627
0.695134
0.792071
0.795402
0.809827
0.637463
0.807451
0.757493
0.797776
0.80306
0.759011
0.814997
0.865696
0.784116
0.692255
0.804343
0.801411
0.64678
0.792139
0.777774
0.802301
0.838838
0.814603
0.607882
0.815015
0.810036
0.796704
0.815285
0.802579
0.815285
0.814394
0.835518
0.756011
0.801759
0.834706
0.810261
0.8031
0.796018
0.814771
0.728322
0.587253
0.816694
0.829527
0.820264
0.804218
0.681329
0.815283
0.815016
0.816639
0.713184
0.797096
0.814873
0.540353
0.802769
0.869034
0.678845
0.756131
0.838548
0.826861
0.814614
0.707297
0.809337
0.814868
0.803722
0.801555
0.812053
0.836525
0.81715
0.767091
0.80694
0.803004
0.646196
0.820863
0.827727
0.671385
0.79088
0.818714
0.820783
0.67873
0.683093
0.821282
0.82395
0.80946
0.733454
0.706691
0.713416
0.732516
0.820171
0.776521
0.804071
0.73235
0.742058
0.822378
0.810071
0.818986
0.769732
0.814996
0.813666
0.817205
0.815829
0.802701
0.807454
0.803681
0.692039
0.802664
0.812688
0.694855
0.806973
0.805023
0.819297
0.785712
0.80586
0.791742
0.814756
0.820853
0.820045
0.798001
0.681403
0.710796
0.799336
0.810802
0.622577
0.803792
0.807305
0.817159
0.743107
0.804188
0.816236
0.811421
0.81768
0.804951
0.797227
0.76426
0.80413
0.843422
0.8199
0.706965
0.803539
0.70222
0.704736
0.802975
0.614531
0.77049
0.784704
0.807971
0.813281
0.825167
0.81699
0.812572
0.820055
0.828138
0.80279
0.764407
0.809688
0.658831
0.819115
0.757068
0.727619
0.687759
0.813806
0.853918
0.819142
0.808598
0.82205
0.815174
0.786788
0.758141
0.809467
0.693056
0.791116
0.843464
0.826525
0.800744
0.863957
0.813303
0.816409
0.817421
0.830966
0.62961
0.798565
0.731236
0.797766
0.735062
0.818912
0.808589
0.787164
0.684461
0.814656
0.829937
0.811758
0.802859
0.803714
0.824251
0.803771
0.710963
0.790258
0.80307
0.814608
0.813868
0.812495
0.871575
0.8277
0.809304
0.832001
0.682068
0.823301
0.837527
0.816087
0.627581
0.81515
0.809096
0.845411
0.821252
0.802896
0.592288
0.810012
0.695971
0.806033
0.802858
0.812073
0.813411
0.825136
0.804995
0.811143
0.815917
0.724197
0.862866
0.801877
0.850105
0.816293
0.574266
0.803822
0.796627
0.811479
0.817545
0.649693
0.80279
0.809561
0.812912
0.807038
0.793807
0.81548
0.8172
0.796072
0.803754
0.821337
0.836829
0.73031
0.806204
0.809539
0.813012
0.682368
0.805141
0.81591
0.79913
0.804
0.522819
0.832842
0.763592
0.814526
0.817624
0.830784
0.846178
0.816021
0.811492
0.716082
0.798807
0.852323
0.808352
0.709902
0.800082
0.802587
0.872164
0.845223
0.818954
0.801979
0.809605
0.75539
0.815294
0.813778
0.584922
0.802575
0.72956
0.750166
0.80302
0.811275
0.780954
0.821285
0.815136
0.838011
0.815871
0.800422
0.808856
0.7386
0.736781
0.804095
0.807973
0.821008
0.802138
0.751737
0.688859
0.813439
0.815106
0.813942
0.594699
0.813549
0.816604
0.824633
0.802982
0.808602
0.819565
0.811779
0.83937
0.80296
0.812605
0.823639
0.815478
0.817698
0.821449
0.689026
0.784145
0.794776
0.803082
0.847557
0.80204
0.802661
0.635183
0.810796
0.813435
0.810682
0.818952
0.805715
0.813004
0.727016
0.84356
0.707435
0.800316
0.817235
0.807174
0.653602
0.682788
0.815281
0.805613
0.804174
0.78536
0.801509
0.829191
0.813424
0.804924
0.80208
0.812195
0.619642
0.812279
0.802974
0.698745
0.815458
0.61817
0.783934
0.815418
0.837741
0.805842
0.812392
0.792386
0.795478
0.803976
0.801414
0.811922
0.811048
0.808904
0.80322
0.757286
0.804044
0.81243
0.81188
0.816155
0.81143
0.815822
0.814807
0.834212
0.738252
0.806603
0.815551
0.802371
0.542579
0.682477
0.811155
0.813165
0.815104
0.780326
0.808235
0.812686
0.80312
0.799882
0.802679
0.819868
0.820699
0.814886
0.784795
0.808079
0.805597
0.54969
0.773857
0.757346
0.806433
0.735545
0.676115
0.797534
0.76752
0.82766
0.814814
0.814588
0.808324
0.540326
0.815509
0.583463
0.696196
0.824595
0.869687
0.741494
0.816492
0.852837
0.694934
0.815295
0.808976
0.814835
0.807288
0.656181
0.85452
0.737344
0.7301
0.80329
0.804552
0.799483
0.833378
0.81508
0.690996
0.815433
0.800259
0.691923
0.839472
0.798088
0.622043
0.772835
0.815591
0.807829
0.814719
0.784406
0.725219
0.77007
0.837
0.688523
0.815854
0.817251
0.826866
0.76522
0.821992
0.691698
0.804551
0.660532
0.700635
0.800436
0.822681
0.788432
0.814467
0.815287
0.815109
0.813879
0.577285
0.802537
0.814859
0.743274
0.810038
0.815325
0.81171
0.715366
0.692385
0.741239
0.620541
0.807247
0.681571
0.815549
0.801879
0.814895
0.836972
0.687318
0.804434
0.819725
0.832422
0.737874
0.781763
0.764788
0.773002
0.812268
0.566112
0.673034
0.815196
0.8053
0.812243
0.804533
0.712861
0.780241
0.724552
0.760566
0.799589
0.831872
0.812202
0.691187
0.823332
0.817788
0.810851
0.68591
0.69284
0.681565
0.872113
0.81579
0.816545
0.608987
0.711308
0.641276
0.803407
0.80034
0.67172
0.811915
0.824432
0.749144
0.799458
0.729809
0.814062
0.692366
0.814635
0.810472
0.801445
0.803086
0.825507
0.744223
0.815651
0.814871
0.780321
0.553361
0.81626
0.810858
0.757879
0.813764
0.74746
0.802893
0.826388
0.659313
0.818065
0.802704
0.809969
0.583552
0.632228
0.735182
0.806359
0.81202
0.810753
0.821002
0.814729
0.815886
0.704371
0.801918
0.813076
0.826191
0.703424
0.72631
0.812168
0.81182
0.696232
0.814337
0.774406
0.70198
0.811877
0.695884
0.804195
0.66238
0.802881
0.73018
0.666868
0.811102
0.786158
0.744161
0.631071
0.840071
0.821061
0.814843
0.770322
0.814087
0.800078
0.786082
0.799905
0.801681
0.815088
0.731768
0.809692
0.800016
0.818708
0.598343
0.801364
0.812866
0.813825
0.811524
0.812082
0.74622
0.802962
0.764072
0.750731
0.818548
0.646754
0.818485
0.817608
0.803086
0.815519
0.816749
0.720698
0.768468
0.822052
0.785318
0.803736
0.815956
0.875064
0.817949
0.798263
0.816739
0.815231
0.793958
0.81842
0.816836
0.773226
0.698327
0.841178
0.797012
0.803177
0.822575
0.781104
0.817781
0.824789
0.818594
0.816812
0.870523
0.803106
0.804873
0.818197
0.803101
0.815336
0.806938
0.735805
0.815259
0.819648
0.753848
0.708565
0.815144
0.843236
0.822329
0.653618
0.821703
0.773658
0.80827
0.801916
0.72967
0.803123
0.798666
0.815466
0.816845
0.693713
0.704723
0.802204
0.787577
0.801583
0.824806
0.722038
0.814867
0.802419
0.800171
0.823371
0.815331
0.713016
0.81558
0.763136
0.80244
0.832584
0.803357
0.773346
0.797893
0.794629
0.814981
0.586874
0.814826
0.694932
0.678385
0.803461
0.819475
0.814879
0.802557
0.815008
0.808397
0.724118
0.787646
0.857119
0.803026
0.833481
0.807413
0.542691
0.762208
0.779828
0.647672
0.737675
0.578505
0.820086
0.813158
0.813915
0.802432
0.766769
0.684692
0.764405
0.752236
0.782042
0.814797
0.844903
0.819314
0.805813
0.819278
0.823708
0.802648
0.807558
0.704956
0.80314
0.756248
0.808659
0.797829
0.751586
0.822306
0.788417
0.803543
0.789777
0.84088
0.727862
0.800877
0.799436
0.804875
0.617344
0.81537
0.81525
0.82175
0.63131
0.81513
0.815132
0.79851
0.803839
0.793206
0.775249
0.806223
0.794574
0.81586
0.75312
0.803778
0.875276
0.762689
0.747901
0.806963
0.783977
0.842558
0.799878
0.779538
0.815377
0.798183
0.792532
0.808045
0.825503
0.835682
0.799714
0.573701
0.820364
0.828186
0.772101
0.830688
0.838176
0.822793
0.826212
0.807255
0.832875
0.826767
0.783729
0.80891
0.811267
0.806274
0.822622
0.803364
0.82732
0.792903
0.803147
0.805721
0.726523
0.807078
0.560921
0.81787
0.825237
0.828547
0.805724
0.818065
0.823825
0.819354
0.820722
0.838737
0.833043
0.787866
0.800324
0.821617
0.815273
0.816849
0.800201
0.806358
0.865541
0.819944
0.847324
0.814986
0.800601
0.82456
0.799726
0.833401
0.813336
0.815248
0.805249
0.726216
0.802882
0.804489
0.814939
0.8033
0.802022
0.822029
0.804547
0.80414
0.777891
0.819671
0.717335
0.814061
0.780241
0.75879
0.803528
0.813221
0.818924
0.715017
0.819223
0.815142
0.826496
0.816977
0.789639
0.816171
0.84727
0.833022
0.814846
0.81166
0.801533
0.743619
0.677443
0.814953
0.820509
0.770799
0.814272
0.807698
0.811675
0.805352
0.798439
0.776102
0.802365
0.79998
0.841389
0.817275
0.811323
0.806234
0.60292
0.730964
0.802121
0.783288
0.804025
0.815576
0.805842
0.815945
0.779752
0.815022
0.804718
0.810559
0.803644
0.817725
0.803151
0.815731
0.810761
0.815712
0.812697
0.717131
0.814348
0.815542
0.596725
0.814785
0.796699
0.802717
0.858729
0.818214
0.810571
0.872462
0.815159
0.815242
0.816709
0.818708
0.815139
0.764163
0.830238
0.801239
0.803093
0.814412
0.815111
0.81659
0.814971
0.813296
0.822762
0.803886
0.812373
0.808971
0.815073
0.81989
0.814992
0.811651
0.819141
0.808843
0.695761
0.659091
0.802549
0.808466
0.803253
0.811153
0.818243
0.816974
0.802813
0.803731
0.80047
0.800729
0.816762
0.844312
0.81841
0.811395
0.818351
0.818032
0.845982
0.81734
0.82097
0.78555
0.81567
0.806704
0.801156
0.791935
0.810647
0.818363
0.814823
0.815023
0.835922
0.805983
0.812541
0.816477
0.821443
0.80342
0.803111
0.805422
0.810748
0.814935
0.801464
0.802925
0.816759
0.822409
0.800696
0.605831
0.804162
0.796775
0.817132
0.798535
0.802672
0.748112
0.840749
0.802651
0.799634
0.834699
0.829622
0.810121
0.826092
0.800354
0.817708
0.817286
0.818557
0.803511
0.818141
0.727947
0.822174
0.811425
0.799982
0.812937
0.820377
0.799031
0.803893
0.782237
0.815052
0.815216
0.815324
0.818347
0.806321
0.816905
0.815608
0.825902
0.821888
0.83757
0.805816
0.694967
0.81778
0.84053
0.819613
0.804485
0.799922
0.80323
0.816093
0.814003
0.81581
0.743643
0.737975
0.800617
0.802864
0.815485
0.816397
0.79859
0.652636
0.708074
0.807918
0.768919
0.815658
0.702998
0.802994
0.72787
0.803139
0.819846
0.803075
0.817135
0.812591
0.798469
0.808465
0.793341
0.829758
0.815353
0.801076
0.803376
0.815674
0.821492
0.749191
0.822522
0.803624
0.783059
0.815228
0.803725
0.810355
0.814413
0.81481
0.835195
0.792587
0.798844
0.815106
0.758764
0.806482
0.814549
0.800897
0.81575
0.841137
0.802123
0.84314
0.808545
0.790222
0.811614
0.802571
0.851897
0.788343
0.803085
0.815797
0.83148
0.808256
0.813486
0.815495
0.802731
0.802617
0.825842
0.782534
0.814042
0.815085
0.64392
0.815287
0.712387
0.817503
0.838133
0.824322
0.803862
0.814306
0.814949
0.725446
0.814496
0.800673
0.801458
0.800717
0.815502
0.863795
0.801101
0.800836
0.785272
0.840535
0.82786
0.819379
0.812994
0.746551
0.803314
0.803282
0.730512
0.799272
0.714092
0.810222
0.800845
0.676057
0.880231
0.702129
0.772051
0.801132
0.743098
0.808247
0.798763
0.802982
0.660003
0.796627
0.783976
0.798817
0.72862
0.818471
0.822246
0.884559
0.809326
0.831189
0.644757
0.799791
0.786694
0.744215
0.751182
0.768827
0.705729
0.803022
0.799144
0.803097
0.763507
0.62679
0.811298
0.612516
0.820906
0.822661
0.811374
0.736531
0.81187
0.795228
0.818881
0.782625
0.806949
0.797019
0.809726
0.716403
0.801332
0.722146
0.801178
0.798603
0.685858
0.803492
0.814852
0.814913
0.803023
0.761005
0.814678
0.732036
0.690431
0.802202
0.814911
0.87441
0.814813
0.814178
0.880578
0.86542
0.830764
0.717645
0.801855
0.811767
0.821188
0.797792
0.680849
0.722421
0.67597
0.802304
0.704216
0.768318
0.79924
0.616469
0.689288
0.83598
0.773404
0.745154
0.830309
0.759014
0.769096
0.635615
0.731203
0.784932
0.819458
0.86949
0.837681
0.815241
0.794428
0.799505
0.715637
0.815099
0.693792
0.796917
0.814891
0.783389
0.762344
0.801474
0.782622
0.80212
0.800596
0.811404
0.810967
0.867116
0.57225
0.538805
0.80229
0.806789
0.698119
0.809862
0.802719
0.837406
0.803401
0.802291
0.567199
0.555714
0.808294
0.812066
0.815014
0.726412
0.803087
0.8103
0.684333
0.811091
0.802618
0.813531
0.803114
0.80036
0.802164
0.813979
0.802875
0.816908
0.803152
0.862035
0.814336
0.802427
0.721068
0.670008
0.815042
0.58533
0.812491
0.809908
0.835746
0.813544
0.802964
0.810619
0.813026
0.812778
0.81465
0.801517
0.853853
0.856412
0.802167
0.655297
0.808186
0.822291
0.799337
0.803099
0.819752
0.733996
0.803188
0.825019
0.82109
0.815335
0.814882
0.76649
0.745332
0.800683
0.833849
0.802719
0.814055
0.804381
0.803586
0.804917
0.813656
0.80873
0.798581
0.806768
0.80591
0.824448
0.806578
0.806173
0.81721
0.806741
0.80332
0.812753
0.802896
0.802763
0.805702
0.807717
0.812891
0.773514
0.805226
0.802634
0.814812
0.79958
0.803659
0.806757
0.831662
0.80493
0.650161
0.800671
0.815036
0.804559
0.814653
0.762937
0.814808
0.750571
0.80358
0.802115
0.803963
0.818812
0.850945
0.804267
0.803202
0.746866
0.829388
0.814797
0.820089
0.824825
0.814491
0.736588
0.81776
0.722142
0.800974
0.827366
0.80231
0.700003
0.825597
0.814471
0.815985
0.82385
0.815203
0.773213
0.816796
0.648695
0.710546
0.814891
0.822329
0.675956
0.818963
0.658529
0.821133
0.806695
0.816294
0.803117
0.805482
0.814609
0.831551
0.825006
0.671635
0.812875
0.841904
0.78138
0.846178
0.80018
0.70588
0.838364
0.819188
0.83539
0.688314
0.683616
0.832706
0.657545
0.830407
0.814904
0.828372
0.806207
0.826651
0.787608
0.825143
0.823748
0.707587
0.865605
0.822552
0.82154
0.823522
0.759124
0.802764
0.524064
0.802989
0.82066
0.813357
0.804671
0.825698
0.81485
0.7979
0.819887
0.802929
0.680524
0.792332
0.83411
0.814231
0.715881
0.799118
0.821476
0.575996
0.814584
0.815407
0.802567
0.809838
0.726149
0.817715
0.802966
0.80341
0.795893
0.793848
0.797851
0.794613
0.803235
0.812249
0.81924
0.813923
0.572571
0.892981
0.706136
0.797806
0.739588
0.791389
0.814826
0.815519
0.815403
0.604488
0.818807
0.817132
0.803828
0.817797
0.836554
0.839424
0.78282
0.798361
0.79941
0.725258
0.752692
0.815077
0.763932
0.815094
0.818875
0.814644
0.813416
0.801887
0.77527
0.811975
0.815934
0.728454
0.810513
0.815715
0.817935
0.807719
0.80939
0.764679
0.814434
0.808112
0.803112
0.807354
0.616583
0.806417
0.804252
0.805837
0.821152
0.845497
0.804624
0.774217
0.805199
0.771514
0.820107
0.8057
0.812608
0.814836
0.850121
0.803336
0.744359
0.819703
0.815075
0.727099
0.80083
0.816075
0.758423
0.812484
0.569296
0.806492
0.685665
0.801132
0.811007
0.812322
0.81706
0.80413
0.815593
0.817563
0.800955
0.804279
0.84434
0.81599
0.796149
0.816036
0.801899
0.801466
0.80021
0.801178
0.806996
0.814457
0.80154
0.769962
0.818264
0.812822
0.808799
0.814846
0.586723
0.803297
0.813608
0.815123
0.787438
0.748291
0.718734
0.812345
0.81469
0.825801
0.789302
0.603003
0.771474
0.640385
0.816575
0.744984
0.812067
0.830151
0.695401
0.799616
0.833736
0.749525
0.80053
0.803105
0.815392
0.802211
0.698826
0.800631
0.548835
0.801709
0.802388
0.802144
0.576894
0.80287
0.803371
0.80312
0.728496
0.737402
0.803365
0.776381
0.815466
0.722125
0.70667
0.81487
0.80127
0.752552
0.854069
0.813685
0.812125
0.669332
0.802734
0.800495
0.800399
0.802413
0.656676
0.803189
0.815129
0.654369
0.685398
0.805767
0.790368
0.814965
0.823064
0.814845
0.815048
0.816273
0.803593
0.815036
0.814782
0.813295
0.829172
0.80242
0.801747
0.810288
0.727091
0.809506
0.814637
0.862722
0.810868
0.637976
0.774617
0.802134
0.776099
0.816528
0.811659
0.82991
0.813992
0.864524
0.801888
0.814414
0.593773
0.815549
0.833739
0.802862
0.814103
0.62492
0.815219
0.802657
0.816485
0.802175
0.817352
0.815783
0.754552
0.803506
0.80309
0.835001
0.861836
0.819541
0.815919
0.724946
0.7416
0.80246
0.802978
0.811953
0.817896
0.799484
0.802807
0.819329
0.806386
0.807469
0.739273
0.80266
0.817338
0.813778
0.768241
0.760388
0.811578
0.796377
0.856929
0.718688
0.834464
0.810836
0.711349
0.799636
0.814269
0.787402
0.800634
0.799671
0.814878
0.777283
0.774399
0.813218
0.696766
0.798596
0.765494
0.814742
0.817098
0.801942
0.787513
0.738454
0.752273
0.773903
0.81446
0.818781
0.805639
0.661093
0.802037
0.795681
0.777764
0.809683
0.812783
0.799487
0.803106
0.634205
0.80395
0.804574
0.851225
0.803644
0.808995
0.833196
0.805251
0.809969
0.852147
0.61303
0.803976
0.81598
0.80534
0.804952
0.805644
0.804516
0.804617
0.804133
0.805732
0.806273
0.724561
0.805625
0.806959
0.806651
0.814944
0.808088
0.818381
0.803061
0.803455
0.81454
0.814713
0.809875
0.803312
0.81617
0.813095
0.809673
0.815864
0.708358
0.813759
0.831398
0.814757
0.854204
0.749641
0.807937
0.814825
0.800769
0.605193
0.803205
0.772275
0.82174
0.627212
0.815406
0.829408
0.8145
0.811732
0.802029
0.827031
0.819075
0.803534
0.7647
0.816914
0.758445
0.547348
0.814171
0.694688
0.695051
0.820337
0.827526
0.82734
0.816515
0.847458
0.573563
0.876798
0.805181
0.825821
0.824147
0.812818
0.681869
0.814693
0.822603
0.816226
0.800973
0.773609
0.822209
0.565807
0.812995
0.8431
0.803077
0.839534
0.821362
0.803237
0.669348
0.843275
0.820302
0.83634
0.800805
0.813702
0.803015
0.8337
0.802768
0.813627
0.831268
0.829117
0.821967
0.824168
0.830759
0.738824
0.661675
0.564913
0.827266
0.825736
0.767261
0.756459
0.806268
0.824301
0.846781
0.591422
0.823014
0.821919
0.821005
0.81947
0.803883
0.820726
0.658359
0.744267
0.8202
0.797332
0.870059
0.89009
0.776341
0.80383
0.66947
0.835461
0.730572
0.7188
0.819074
0.801591
0.783378
0.661521
0.802117
0.81491
0.788796
0.711929
0.800402
0.817095
0.797928
0.677225
0.823401
0.792743
0.815587
0.833181
0.815092
0.795617
0.816031
0.815792
0.785773
0.803932
0.710881
0.840569
0.792987
0.810981
0.781851
0.804327
0.69664
0.800742
0.813424
0.812057
0.810889
0.809362
0.808269
0.80751
0.80588
0.804766
0.806691
0.725274
0.805318
0.801372
0.795833
0.803243
0.844407
0.715293
0.803153
0.776041
0.883935
0.854348
0.797934
0.723553
0.803249
0.797644
0.719162
0.803255
0.801632
0.734272
0.803598
0.789869
0.79724
0.801019
0.737339
0.779641
0.804385
0.747241
0.764274
0.769368
0.801341
0.81453
0.808534
0.758603
0.751182
0.799457
0.813569
0.803261
0.792867
0.801037
0.928626
0.860509
0.817604
0.814718
0.723427
0.844272
0.74751
0.825995
0.816436
0.898116
0.814885
0.797084
0.588626
0.814916
0.7972
0.814949
0.79762
0.845498
0.521471
0.832744
0.801489
0.805539
0.804818
0.803703
0.855839
0.801208
0.817257
0.701495
0.665086
0.6666
0.814993
0.503423
0.797617
0.72183
0.841747
0.814703
0.558006
0.80199
0.814404
0.814078
0.718929
0.801633
0.524627
0.797131
0.815129
0.797252
0.802658
0.797493
0.815297
0.833859
0.803225
0.798201
0.81569
0.798467
0.815841
0.813958
0.798751
0.816012
0.813616
0.816211
0.798864
0.816435
0.679459
0.799059
0.816686
0.803022
0.79925
0.816939
0.697892
0.814906
0.798167
0.814854
0.798332
0.809903
0.838278
0.861249
0.800876
0.800339
0.817879
0.815285
0.799981
0.799604
0.863512
0.812158
0.817551
0.810356
0.849841
0.82843
0.816523
0.825622
0.846152
0.814846
0.801472
0.819117
0.811557
0.801899
0.814737
0.799942
0.807447
0.78304
0.806706
0.814957
0.810769