# vtk DataFile Version 1.0
unstructured grid
ascii
DATASET UNSTRUCTURED_GRID
points 3920 float
-1 0 0
-1 1 0
2 0 0
2 1 0
0 0 0
1 0 0
-1 1 0.1
-1 0 0.1
0 0 0.1
1 0 0.1
2 0 0.1
2 1 0.1
-0.98 0 0
-0.96 0 0
-0.94 0 0
-0.92 0 0
-0.9 0 0
-0.88 0 0
-0.86 0 0
-0.84 0 0
-0.82 0 0
-0.8 0 0
-0.78 0 0
-0.76 0 0
-0.74 0 0
-0.72 0 0
-0.7 0 0
-0.68 0 0
-0.66 0 0
-0.64 0 0
-0.62 0 0
-0.6 0 0
-0.58 0 0
-0.56 0 0
-0.54 0 0
-0.52 0 0
-0.5 0 0
-0.48 0 0
-0.46 0 0
-0.44 0 0
-0.42 0 0
-0.4 0 0
-0.38 0 0
-0.36 0 0
-0.34 0 0
-0.32 0 0
-0.3 0 0
-0.28 0 0
-0.26 0 0
-0.24 0 0
-0.22 0 0
-0.2 0 0
-0.18 0 0
-0.16 0 0
-0.14 0 0
-0.12 0 0
-0.1 0 0
-0.08 0 0
-0.06 0 0
-0.04 0 0
-0.02 0 0
1.02 0 0
1.04 0 0
1.06 0 0
1.08 0 0
1.1 0 0
1.12 0 0
1.14 0 0
1.16 0 0
1.18 0 0
1.2 0 0
1.22 0 0
1.24 0 0
1.26 0 0
1.28 0 0
1.3 0 0
1.32 0 0
1.34 0 0
1.36 0 0
1.38 0 0
1.4 0 0
1.42 0 0
1.44 0 0
1.46 0 0
1.48 0 0
1.5 0 0
1.52 0 0
1.54 0 0
1.56 0 0
1.58 0 0
1.6 0 0
1.62 0 0
1.64 0 0
1.66 0 0
1.68 0 0
1.7 0 0
1.72 0 0
1.74 0 0
1.76 0 0
1.78 0 0
1.8 0 0
1.82 0 0
1.84 0 0
1.86 0 0
1.88 0 0
1.9 0 0
1.92 0 0
1.94 0 0
1.96 0 0
1.98 0 0
2 0.0199133 0
2 0.0414128 0
2 0.0646247 0
2 0.0896856 0
2 0.116743 0
2 0.145955 0
2 0.177494 0
2 0.211545 0
2 0.248309 0
2 0.288001 0
2 0.330854 0
2 0.377121 0
2 0.427073 0
2 0.481004 0
2 0.539231 0
2 0.602096 0
2 0.669968 0
2 0.743247 0
2 0.822362 0
2 0.907779 0
1.9 1 0
1.8 1 0
1.7 1 0
1.6 1 0
1.5 1 0
1.4 1 0
1.3 1 0
1.2 1 0
1.1 1 0
1 1 0
0.9 1 0
0.8 1 0
0.7 1 0
0.6 1 0
0.5 1 0
0.4 1 0
0.3 1 0
0.2 1 0
0.1 1 0
3.69793e-12 1 0
-0.1 1 0
-0.2 1 0
-0.3 1 0
-0.4 1 0
-0.5 1 0
-0.6 1 0
-0.7 1 0
-0.8 1 0
-0.9 1 0
-1 0.907779 0
-1 0.822362 0
-1 0.743247 0
-1 0.669968 0
-1 0.602096 0
-1 0.539231 0
-1 0.481004 0
-1 0.427073 0
-1 0.377121 0
-1 0.330854 0
-1 0.288001 0
-1 0.248309 0
-1 0.211545 0
-1 0.177494 0
-1 0.145955 0
-1 0.116743 0
-1 0.0896856 0
-1 0.0646247 0
-1 0.0414128 0
-1 0.0199133 0
0.0182781 0.00745351 0
0.0366672 0.0146286 0
0.0551632 0.0215237 0
0.0737617 0.0281372 0
0.0924585 0.0344675 0
0.111249 0.0405131 0
0.13013 0.0462728 0
0.149095 0.0517451 0
0.168142 0.0569289 0
0.187265 0.0618228 0
0.20646 0.0664258 0
0.225723 0.0707368 0
0.245049 0.0747549 0
0.264434 0.078479 0
0.283873 0.0819084 0
0.303362 0.0850422 0
0.322896 0.0878798 0
0.342472 0.0904204 0
0.362083 0.0926635 0
0.381726 0.0946086 0
0.401397 0.0962552 0
0.42109 0.0976029 0
0.440802 0.0986514 0
0.460527 0.0994006 0
0.480261 0.0998501 0
0.5 0.1 0
0.519739 0.0998501 0
0.539473 0.0994006 0
0.559198 0.0986514 0
0.57891 0.0976029 0
0.598603 0.0962552 0
0.618274 0.0946086 0
0.637917 0.0926635 0
0.657528 0.0904204 0
0.677104 0.0878798 0
0.696638 0.0850422 0
0.716127 0.0819084 0
0.735566 0.078479 0
0.754951 0.0747549 0
0.774277 0.0707368 0
0.79354 0.0664258 0
0.812735 0.0618228 0
0.831858 0.0569289 0
0.850905 0.0517451 0
0.86987 0.0462728 0
0.888751 0.0405131 0
0.907542 0.0344675 0
0.926238 0.0281372 0
0.944837 0.0215237 0
0.963333 0.0146286 0
0.981722 0.00745351 0
-1 0.907779 0.1
-1 0.822362 0.1
-1 0.743247 0.1
-1 0.669968 0.1
-1 0.602096 0.1
-1 0.539231 0.1
-1 0.481004 0.1
-1 0.427073 0.1
-1 0.377121 0.1
-1 0.330854 0.1
-1 0.288001 0.1
-1 0.248309 0.1
-1 0.211545 0.1
-1 0.177494 0.1
-1 0.145955 0.1
-1 0.116743 0.1
-1 0.0896856 0.1
-1 0.0646247 0.1
-1 0.0414128 0.1
-1 0.0199133 0.1
-0.98 0 0.1
-0.96 0 0.1
-0.94 0 0.1
-0.92 0 0.1
-0.9 0 0.1
-0.88 0 0.1
-0.86 0 0.1
-0.84 0 0.1
-0.82 0 0.1
-0.8 0 0.1
-0.78 0 0.1
-0.76 0 0.1
-0.74 0 0.1
-0.72 0 0.1
-0.7 0 0.1
-0.68 0 0.1
-0.66 0 0.1
-0.64 0 0.1
-0.62 0 0.1
-0.6 0 0.1
-0.58 0 0.1
-0.56 0 0.1
-0.54 0 0.1
-0.52 0 0.1
-0.5 0 0.1
-0.48 0 0.1
-0.46 0 0.1
-0.44 0 0.1
-0.42 0 0.1
-0.4 0 0.1
-0.38 0 0.1
-0.36 0 0.1
-0.34 0 0.1
-0.32 0 0.1
-0.3 0 0.1
-0.28 0 0.1
-0.26 0 0.1
-0.24 0 0.1
-0.22 0 0.1
-0.2 0 0.1
-0.18 0 0.1
-0.16 0 0.1
-0.14 0 0.1
-0.12 0 0.1
-0.1 0 0.1
-0.08 0 0.1
-0.06 0 0.1
-0.04 0 0.1
-0.02 0 0.1
0.0182781 0.00745351 0.1
0.0366672 0.0146286 0.1
0.0551632 0.0215237 0.1
0.0737617 0.0281372 0.1
0.0924585 0.0344675 0.1
0.111249 0.0405131 0.1
0.13013 0.0462728 0.1
0.149095 0.0517451 0.1
0.168142 0.0569289 0.1
0.187265 0.0618228 0.1
0.20646 0.0664258 0.1
0.225723 0.0707368 0.1
0.245049 0.0747549 0.1
0.264434 0.078479 0.1
0.283873 0.0819084 0.1
0.303362 0.0850422 0.1
0.322896 0.0878798 0.1
0.342472 0.0904204 0.1
0.362083 0.0926635 0.1
0.381726 0.0946086 0.1
0.401397 0.0962552 0.1
0.42109 0.0976029 0.1
0.440802 0.0986514 0.1
0.460527 0.0994006 0.1
0.480261 0.0998501 0.1
0.5 0.1 0.1
0.519739 0.0998501 0.1
0.539473 0.0994006 0.1
0.559198 0.0986514 0.1
0.57891 0.0976029 0.1
0.598603 0.0962552 0.1
0.618274 0.0946086 0.1
0.637917 0.0926635 0.1
0.657528 0.0904204 0.1
0.677104 0.0878798 0.1
0.696638 0.0850422 0.1
0.716127 0.0819084 0.1
0.735566 0.078479 0.1
0.754951 0.0747549 0.1
0.774277 0.0707368 0.1
0.79354 0.0664258 0.1
0.812735 0.0618228 0.1
0.831858 0.0569289 0.1
0.850905 0.0517451 0.1
0.86987 0.0462728 0.1
0.888751 0.0405131 0.1
0.907542 0.0344675 0.1
0.926238 0.0281372 0.1
0.944837 0.0215237 0.1
0.963333 0.0146286 0.1
0.981722 0.00745351 0.1
1.02 0 0.1
1.04 0 0.1
1.06 0 0.1
1.08 0 0.1
1.1 0 0.1
1.12 0 0.1
1.14 0 0.1
1.16 0 0.1
1.18 0 0.1
1.2 0 0.1
1.22 0 0.1
1.24 0 0.1
1.26 0 0.1
1.28 0 0.1
1.3 0 0.1
1.32 0 0.1
1.34 0 0.1
1.36 0 0.1
1.38 0 0.1
1.4 0 0.1
1.42 0 0.1
1.44 0 0.1
1.46 0 0.1
1.48 0 0.1
1.5 0 0.1
1.52 0 0.1
1.54 0 0.1
1.56 0 0.1
1.58 0 0.1
1.6 0 0.1
1.62 0 0.1
1.64 0 0.1
1.66 0 0.1
1.68 0 0.1
1.7 0 0.1
1.72 0 0.1
1.74 0 0.1
1.76 0 0.1
1.78 0 0.1
1.8 0 0.1
1.82 0 0.1
1.84 0 0.1
1.86 0 0.1
1.88 0 0.1
1.9 0 0.1
1.92 0 0.1
1.94 0 0.1
1.96 0 0.1
1.98 0 0.1
2 0.0199133 0.1
2 0.0414128 0.1
2 0.0646247 0.1
2 0.0896856 0.1
2 0.116743 0.1
2 0.145955 0.1
2 0.177494 0.1
2 0.211545 0.1
2 0.248309 0.1
2 0.288001 0.1
2 0.330854 0.1
2 0.377121 0.1
2 0.427073 0.1
2 0.481004 0.1
2 0.539231 0.1
2 0.602096 0.1
2 0.669968 0.1
2 0.743247 0.1
2 0.822362 0.1
2 0.907779 0.1
1.9 1 0.1
1.8 1 0.1
1.7 1 0.1
1.6 1 0.1
1.5 1 0.1
1.4 1 0.1
1.3 1 0.1
1.2 1 0.1
1.1 1 0.1
1 1 0.1
0.9 1 0.1
0.8 1 0.1
0.7 1 0.1
0.6 1 0.1
0.5 1 0.1
0.4 1 0.1
0.3 1 0.1
0.2 1 0.1
0.1 1 0.1
3.69793e-12 1 0.1
-0.1 1 0.1
-0.2 1 0.1
-0.3 1 0.1
-0.4 1 0.1
-0.5 1 0.1
-0.6 1 0.1
-0.7 1 0.1
-0.8 1 0.1
-0.9 1 0.1
1.08758 0.0158154 0
-0.0898513 0.0203294 0
0.0966181 0.0537636 0
0.90205 0.0548881 0
1.21055 0.0202058 0
-0.209811 0.0159577 0
1.3305 0.0176902 0
-0.33 0.0173205 0
1.45324 0.0148141 0
-0.448654 0.0159854 0
1.56842 0.0191785 0
-0.569936 0.0166364 0
0.193292 0.0805369 0
0.805051 0.0813623 0
0.709096 0.100353 0
0.288591 0.0996656 0
0.390184 0.111848 0
0.61033 0.111742 0
0.488809 0.116278 0
1.67175 0.0169692 0
-0.67 0.0169809 0
-0.955017 0.454039 0
1.95131 0.44569 0
1.74981 0.0168753 0
-0.75 0.0173205 0
-0.968032 0.266538 0
1.96871 0.266267 0
0.978232 0.0305687 0
0.0208675 0.026451 0
-0.150454 0.91842 0
1.13854 0.907437 0
1.45012 0.904365 0
-0.445923 0.908903 0
-0.853423 0.0157019 0
1.84881 0.016319 0
0.853689 0.915652 0
0.153944 0.912184 0
0.545151 0.914125 0
0.549913 0.115152 0
1.51 0.0173205 0
-0.506989 0.01651 0
1.27 0.0173205 0
1.14976 0.0173333 0
-0.268171 0.0206442 0
-0.150501 0.0153244 0
-0.391384 0.0153993 0
1.38886 0.0171544 0
-0.973694 0.161724 0
1.97441 0.162392 0
-0.945221 0.633523 0
1.94544 0.63312 0
1.91008 0.0186068 0
-0.91 0.0169616 0
-0.030664 0.0194327 0
1.03074 0.0165456 0
-0.966065 0.353575 0
1.96128 0.359765 0
1.93879 0.781254 0
-0.937057 0.781882 0
-0.980746 0.080709 0
1.9772 0.0760699 0
0.058735 0.0409372 0
0.355202 0.913001 0
0.86356 0.0661005 0
0.134223 0.0651111 0
0.941972 0.0397386 0
-0.653034 0.915003 0
1.65328 0.904589 0
0.770126 0.0881325 0
0.232946 0.0902008 0
0.330582 0.105648 0
0.670612 0.108365 0
0.428707 0.116145 0
1.80993 0.016629 0
-0.810168 0.0172178 0
-0.71 0.0173205 0
1.63047 0.0175504 0
1.70842 0.0169661 0
-0.628824 0.0181787 0
-0.949815 0.0133898 0
1.95 0.0173205 0
1.85542 0.907891 0
-0.85 0.913397 0
1.9833 0.0307692 0
-0.983315 0.0309709 0
-0.750025 0.916468 0
-0.701107 0.836904 0
-0.607741 0.836428 0
-0.656448 0.759827 0
-0.572936 0.758144 0
-0.61411 0.691195 0
-0.539534 0.689068 0
-0.578542 0.626111 0
-0.507461 0.624216 0
-0.544001 0.566638 0
-0.477696 0.564279 0
-0.511582 0.51001 0
-0.451689 0.507147 0
-0.481834 0.457732 0
-0.426137 0.454624 0
-0.453236 0.407539 0
-0.398845 0.406233 0
-0.507958 0.409496 0
-0.368427 0.460177 0
-0.344602 0.405209 0
-0.315696 0.447824 0
-0.294128 0.402169 0
-0.262844 0.444518 0
-0.241968 0.388746 0
-0.209878 0.439557 0
-0.185184 0.391135 0
-0.156687 0.437338 0
-0.133719 0.390776 0
-0.104405 0.434306 0
-0.0818745 0.388334 0
-0.0528785 0.431165 0
-0.0305984 0.385639 0
-0.00180552 0.427863 0
0.0194564 0.382608 0
0.0485809 0.42449 0
0.0701962 0.37973 0
0.0985483 0.421145 0
0.119893 0.377339 0
0.147837 0.417911 0
0.172552 0.36751 0
0.197018 0.412597 0
0.221203 0.37141 0
0.24512 0.409646 0
-0.48178 0.364657 0
-0.531053 0.364782 0
-0.0599102 0.344151 0
-0.324909 0.359566 0
0.266181 0.368462 0
0.292132 0.407649 0
0.311992 0.365779 0
0.338918 0.404821 0
0.357567 0.355909 0
0.384723 0.40053 0
0.404675 0.359681 0
0.430617 0.398558 0
0.450457 0.35827 0
0.474237 0.395182 0
0.496746 0.34898 0
0.520548 0.397931 0
0.542071 0.353121 0
0.566011 0.389914 0
0.585061 0.350856 0
0.609352 0.38696 0
0.629069 0.348168 0
0.655979 0.391217 0
0.67472 0.346182 0
0.699346 0.381414 0
0.719333 0.341965 0
0.743718 0.377547 0
0.764028 0.339036 0
0.788201 0.373582 0
0.807659 0.336101 0
0.832821 0.372249 0
0.852309 0.334017 0
0.877785 0.370339 0
0.897875 0.331141 0
0.922904 0.366281 0
0.943173 0.327335 0
0.968282 0.363358 0
0.989029 0.324222 0
1.01391 0.361511 0
1.03465 0.321428 0
1.05949 0.358447 0
1.08389 0.312052 0
1.10575 0.355104 0
1.12889 0.31562 0
1.15067 0.353235 0
1.17157 0.312819 0
1.19626 0.349369 0
1.21618 0.309863 0
1.2416 0.346914 0
1.26131 0.30715 0
1.28691 0.344312 0
1.30571 0.303752 0
1.33144 0.341222 0
1.35018 0.300911 0
1.3758 0.338308 0
1.39501 0.298931 0
1.42015 0.335235 0
1.43904 0.296349 0
1.46355 0.330194 0
1.48256 0.293347 0
1.50685 0.326967 0
1.52589 0.29055 0
1.54996 0.325305 0
1.56909 0.287929 0
[...]
CELL_DATA 3694
SCALARS rho float
LOOKUP_TABLE default
0.73499
0.670352
0.803718
0.812756
0.826306
0.804996
0.791493
0.799715
0.809746
0.802576
0.817062
0.817055
0.840263
0.789223
0.800526
0.750146
0.803195
0.802823
0.759861
0.84983
0.817011
0.822799
0.696832
0.8033
0.693406
0.839162
0.719984
0.80601
0.836794
0.798335
0.798529
0.718481
0.803378
0.824453
0.802633
0.79715
0.837001
0.822594
0.824589
0.778105
0.804544
0.817212
0.834122
0.825025
0.805033
0.812644
0.80055
0.666116
0.679002
0.720354
0.801972
0.802882
0.846594
0.801959
0.628882
0.8379
0.80245
0.818792
0.832539
0.753842
0.796147
0.814834
0.841888
0.799328
0.842411
0.83062
0.807353
0.813302
0.736496
0.858127
0.803099
0.807487
0.822822
0.803159
0.824225
0.802857
0.814078
0.799393
0.813653
0.80266
0.713439
0.818125
0.802195
0.776705
0.809599
0.799346
0.818137
0.714535
0.736123
0.824876
0.798965
0.802256
0.820238
0.81522
0.674591
0.806409
0.722828
0.817547
0.812083
0.839745
0.814385
0.762205
0.718693
0.809547
0.809038
0.81483
0.817525
0.806908
0.715484
0.814104
0.799151
0.722069
0.720972
0.823285
0.86774
0.802075
0.799525
0.811884
0.803084
0.801976
0.765613
0.82236
0.819478
0.769634
0.704583
0.758297
0.817189
0.776684
0.843371
0.700078
0.767094
0.800268
0.807826
0.777435
0.800661
0.79539
0.805349
0.802303
0.797713
0.814316
0.813531
0.710075
0.816716
0.813384
0.757421
0.668374
0.676783
0.797846
0.81579
0.813
0.744113
0.802613
0.554883
0.778368
0.68532
0.763122
0.713302
0.783525
0.606094
0.792939
0.837405
0.644361
0.781922
0.736837
0.84394
0.55309
0.817103
0.800152
0.80262
0.673015
0.80149
0.662261
0.857651
0.536417
0.799781
0.633294
0.872382
0.833132
0.82045
0.745068
0.813873
0.721871
0.826735
0.73734
0.648131
0.803049
0.675891
0.8232
0.801601
0.850799
0.791673
0.70436
0.814552
0.798115
0.741871
0.852758
0.811295
0.848675
0.73636
0.742675
0.770797
0.793616
0.83153
0.834132
0.816783
0.813924
0.668803
0.804512
0.72661
0.803139
0.70845
0.797194
0.795542
0.801409
0.825529
0.763406
0.830235
0.749279
0.82547
0.819678
0.815744
0.853002
0.829338
0.70298
0.826883
0.687376
0.787671
0.809822
0.850966
0.83001
0.808087
0.794325
0.745077
0.817422
0.836539
0.817236
0.714763
0.799618
0.695078
0.79206
0.795398
0.809817
0.637415
0.807447
0.757478
0.797771
0.803059
0.758998
0.814983
0.865689
0.784113
0.692274
0.804338
0.801404
0.646757
0.792128
0.777765
0.8023
0.838833
0.814589
0.607851
0.815001
0.810032
0.796693
0.815272
0.802577
0.815281
0.814386
0.835515
0.755998
0.801757
0.834699
0.810254
0.803099
0.796013
0.814757
0.72832
0.58722
0.816683
0.829524
0.820254
0.804212
0.681271
0.81527
0.815002
0.816631
0.713139
0.797087
0.814858
0.540218
0.802768
0.869031
0.678758
0.756112
0.838541
0.826854
0.8146
0.707316
0.809333
0.814853
0.80372
0.801551
0.812048
0.83652
0.817143
0.76708
0.806936
0.803003
0.646173
0.820853
0.827719
0.671355
0.790869
0.818704
0.82078
0.678706
0.683223
0.821273
0.823942
0.809456
0.733457
0.706671
0.713396
0.732483
0.820161
0.776508
0.804067
0.732316
0.742056
0.822369
0.810061
0.818979
0.769721
0.814982
0.813652
0.817194
0.815818
0.802699
0.80745
0.803675
0.692063
0.802663
0.812684
0.694796
0.806966
0.80502
0.819287
0.785705
0.805856
0.791736
0.814742
0.820843
0.820035
0.797996
0.681336
0.710749
0.799332
0.810798
0.622524
0.803789
0.807298
0.817155
0.743084
0.804184
0.816225
0.811409
0.817669
0.804948
0.797222
0.764246
0.804123
0.843416
0.819893
0.706983
0.803535
0.702182
0.704743
0.802972
0.614506
0.770479
0.784698
0.807967
0.813267
0.825159
0.816979
0.812564
0.820045
0.82813
0.802788
0.764393
0.809684
0.658801
0.819105
0.757056
0.727596
0.687689
0.813792
0.853914
0.819131
0.808591
0.822046
0.815161
0.786782
0.758126
0.809455
0.693041
0.791111
0.843458
0.826521
0.800741
0.863952
0.813299
0.8164
0.81741
0.830963
0.629563
0.798554
0.731202
0.797762
0.73506
0.818904
0.808586
0.787154
0.684508
0.814642
0.829933
0.811745
0.802856
0.803712
0.824242
0.803768
0.710917
0.790253
0.80307
0.814594
0.813857
0.812484
0.871571
0.827691
0.8093
0.831993
0.682044
0.823292
0.83752
0.816075
0.627558
0.815137
0.809092
0.845405
0.821242
0.802894
0.592256
0.810008
0.695935
0.806029
0.802856
0.812066
0.813396
0.825132
0.804992
0.811138
0.815906
0.724159
0.862862
0.801875
0.8501
0.816282
0.574214
0.803819
0.796622
0.811467
0.817534
0.649576
0.802788
0.809557
0.812908
0.807034
0.793803
0.815467
0.817189
0.796062
0.803747
0.821328
0.836824
0.730275
0.8062
0.809532
0.813
0.68235
0.805137
0.8159
0.799125
0.803996
0.522681
0.832835
0.763575
0.814511
0.817613
0.830777
0.846173
0.81601
0.811479
0.716041
0.798802
0.852319
0.808341
0.709888
0.800078
0.802586
0.872161
0.845217
0.818944
0.801977
0.809601
0.755379
0.815282
0.813773
0.584887
0.802572
0.729527
0.750158
0.803017
0.811262
0.780948
0.821278
0.815123
0.838004
0.815861
0.800419
0.808847
0.7386
0.736766
0.804092
0.807962
0.821
0.802134
0.751729
0.688824
0.813424
0.815101
0.813937
0.594664
0.813535
0.816596
0.824624
0.802979
0.808592
0.819555
0.811775
0.839363
0.802958
0.8126
0.823631
0.815466
0.81769
0.821442
0.688982
0.784138
0.794767
0.80308
0.847551
0.802039
0.802653
0.635159
0.810788
0.813423
0.810678
0.818941
0.805712
0.81299
0.727003
0.843553
0.707447
0.800312
0.817224
0.80717
0.653487
0.682838
0.815274
0.80561
0.80417
0.785348
0.801507
0.829184
0.813413
0.804921
0.802077
0.812184
0.619618
0.812266
0.80297
0.698688
0.815448
0.618084
0.783921
0.815407
0.837735
0.805831
0.812378
0.792375
0.795468
0.803972
0.801412
0.811909
0.811044
0.808893
0.803218
0.757282
0.804041
0.812416
0.811866
0.816147
0.811416
0.81581
0.814793
0.834207
0.738222
0.806599
0.815539
0.802367
0.54253
0.682427
0.811148
0.813151
0.815091
0.78032
0.808228
0.812679
0.803116
0.799878
0.802675
0.81986
0.820691
0.814873
0.784784
0.80807
0.805586
0.549311
0.773846
0.757328
0.806426
0.735533
0.676055
0.797529
0.767509
0.827652
0.814799
0.814574
0.80832
0.540279
0.815502
0.583428
0.696139
0.824586
0.869683
0.741469
0.816481
0.852831
0.694911
0.815284
0.808972
0.814831
0.807284
0.656159
0.854514
0.73734
0.730067
0.803286
0.804549
0.79948
0.833375
0.815066
0.690974
0.815425
0.800257
0.691863
0.839465
0.798083
0.622014
0.772825
0.815579
0.807818
0.814705
0.784402
0.725182
0.770055
0.836994
0.688506
0.815842
0.817242
0.826858
0.765209
0.821983
0.691663
0.804548
0.66051
0.700619
0.800428
0.822674
0.788421
0.814452
0.815275
0.815096
0.813865
0.577239
0.802535
0.814844
0.743263
0.810034
0.815313
0.811697
0.715376
0.692419
0.741227
0.62049
0.807243
0.681546
0.815537
0.801878
0.814882
0.836967
0.687291
0.804426
0.819716
0.832416
0.737847
0.781752
0.764784
0.772992
0.812258
0.565921
0.672958
0.815183
0.805297
0.812234
0.80453
0.712832
0.780232
0.724517
0.760564
0.799584
0.831864
0.812198
0.691171
0.823323
0.81778
0.810839
0.68586
0.692876
0.681536
0.872109
0.815778
0.816534
0.608953
0.711293
0.641253
0.803403
0.800337
0.6717
0.81191
0.824426
0.749122
0.799452
0.729779
0.814049
0.69235
0.81462
0.810468
0.801435
0.803085
0.825501
0.74421
0.815638
0.814857
0.780313
0.553264
0.816253
0.810846
0.757861
0.813749
0.747461
0.802889
0.826381
0.659199
0.818055
0.802703
0.809965
0.583502
0.631915
0.735166
0.806355
0.812008
0.810741
0.820993
0.814722
0.815874
0.704356
0.801916
0.813065
0.826182
0.703408
0.726275
0.812154
0.811812
0.696208
0.814333
0.774397
0.702
0.811873
0.695867
0.804185
0.662358
0.80288
0.730183
0.666835
0.81109
0.786151
0.744147
0.631047
0.840066
0.821057
0.814832
0.770312
0.814072
0.800075
0.786073
0.799901
0.801678
0.815078
0.731738
0.809688
0.800012
0.818697
0.598309
0.80136
0.812855
0.813814
0.811513
0.812071
0.7462
0.802953
0.764062
0.750712
0.818538
0.646699
0.818475
0.817598
0.803084
0.815508
0.816738
0.720658
0.768466
0.822042
0.785308
0.803733
0.815945
0.87506
0.81794
0.798252
0.816728
0.815218
0.793953
0.81841
0.816826
0.773215
0.698276
0.841171
0.797007
0.803176
0.822571
0.781095
0.81777
0.824785
0.818583
0.816801
0.870519
0.803105
0.804869
0.818186
0.8031
0.815324
0.806934
0.735776
0.815247
0.819638
0.753847
0.708518
0.815132
0.843229
0.822325
0.653526
0.821693
0.773648
0.808259
0.801912
0.729653
0.803122
0.798662
0.815462
0.816835
0.693658
0.704682
0.802201
0.787572
0.801577
0.8248
0.722045
0.814853
0.802416
0.800166
0.823365
0.815318
0.712983
0.815568
0.763123
0.802436
0.83258
0.803354
0.773334
0.79789
0.794627
0.814968
0.586437
0.814812
0.69496
0.678301
0.803458
0.819465
0.814864
0.802554
0.814995
0.808388
0.724092
0.78764
0.857114
0.803025
0.833476
0.807409
0.542613
0.762207
0.779815
0.64763
0.737654
0.578458
0.820079
0.813143
0.813906
0.80243
0.766762
0.684667
0.76439
0.752232
0.782034
0.814783
0.844898
0.819304
0.805809
0.819275
0.823702
0.802644
0.807553
0.704909
0.803137
0.756237
0.808655
0.797824
0.751569
0.822299
0.78841
0.80354
0.789766
0.840875
0.727842
0.800874
0.799431
0.804872
0.61732
0.815357
0.815237
0.821743
0.63125
0.815117
0.815119
0.798505
0.803836
0.793201
0.775236
0.806216
0.794563
0.815848
0.753119
0.803768
0.875273
0.762673
0.747885
0.806953
0.783972
0.842552
0.799868
0.779525
0.815367
0.798179
0.792526
0.808041
0.825494
0.835675
0.799711
0.573658
0.820354
0.828178
0.772094
0.83068
0.83817
0.822784
0.826203
0.807251
0.832868
0.826758
0.783724
0.808904
0.811255
0.806264
0.822613
0.803362
0.827316
0.792897
0.80314
0.805717
0.726501
0.807074
0.560878
0.81786
0.825229
0.828539
0.805718
0.818059
0.823816
0.81935
0.820712
0.83873
0.833035
0.787855
0.800322
0.821607
0.815261
0.816838
0.800197
0.806354
0.865537
0.819934
0.847318
0.814974
0.800597
0.824556
0.799722
0.833397
0.813324
0.815238
0.805246
0.726181
0.802879
0.804486
0.814926
0.803298
0.802014
0.822025
0.804542
0.804137
0.777883
0.819667
0.717309
0.814055
0.780228
0.758776
0.803525
0.813217
0.81892
0.714988
0.819212
0.815137
0.826492
0.816967
0.789631
0.81616
0.847265
0.833016
0.814838
0.811656
0.801531
0.7436
0.677394
0.814939
0.820503
0.770786
0.814261
0.807694
0.811663
0.805349
0.798434
0.776094
0.802363
0.799977
0.841383
0.817264
0.811318
0.806229
0.60289
0.730934
0.802117
0.783277
0.804021
0.815565
0.805838
0.815933
0.779743
0.815008
0.804714
0.810547
0.80364
0.817714
0.80315
0.815719
0.810749
0.8157
0.812686
0.717106
0.814338
0.81553
0.596693
0.814772
0.796694
0.802713
0.858724
0.818204
0.81056
0.872458
0.815147
0.815229
0.816698
0.818698
0.815128
0.764153
0.830235
0.801234
0.80309
0.814402
0.815099
0.816578
0.814958
0.813286
0.822756
0.803884
0.812362
0.808967
0.815067
0.819886
0.814979
0.81164
0.819131
0.808839
0.695798
0.659058
0.802547
0.80846
0.803251
0.811142
0.818233
0.816964
0.80281
0.803725
0.800466
0.800726
0.816751
0.844306
0.818399
0.81139
0.818341
0.818021
0.845975
0.81733
0.820965
0.785543
0.815659
0.806701
0.80115
0.791929
0.810636
0.818352
0.81481
0.815011
0.835918
0.805974
0.812527
0.816467
0.821438
0.803417
0.803108
0.805419
0.810735
0.814922
0.801461
0.802915
0.816748
0.822405
0.800692
0.60511
0.804159
0.796767
0.817126
0.798531
0.80267
0.7481
0.840742
0.802648
0.799631
0.834691
0.829614
0.810117
0.826084
0.80035
0.817697
0.817276
0.818547
0.803509
0.81813
0.727911
0.822165
0.811421
0.799978
0.812932
0.820367
0.799027
0.80389
0.782226
0.815048
0.815203
0.815311
0.818336
0.806318
0.816894
0.815596
0.825895
0.821884
0.837563
0.805812
0.694951
0.81777
0.840525
0.819602
0.804482
0.799919
0.803227
0.816084
0.813999
0.815798
0.743632
0.737947
0.800613
0.802861
0.815473
0.816387
0.798579
0.652591
0.708059
0.807914
0.768917
0.815646
0.70297
0.802993
0.727856
0.803138
0.81984
0.803074
0.817123
0.812579
0.798466
0.808461
0.79333
0.829754
0.81534
0.801072
0.803373
0.815663
0.821483
0.749175
0.822514
0.803621
0.783056
0.815215
0.803722
0.810349
0.814398
0.814797
0.835188
0.792576
0.79884
0.815093
0.758753
0.806478
0.814535
0.800894
0.815738
0.841133
0.802119
0.843134
0.808537
0.790214
0.8116
0.80257
0.851892
0.788337
0.803083
0.815785
0.831472
0.808252
0.813473
0.815483
0.802728
0.802615
0.825838
0.782525
0.814029
0.815072
0.643849
0.815274
0.712373
0.817499
0.838127
0.824313
0.803857
0.814292
0.814935
0.72543
0.814482
0.800668
0.801456
0.800713
0.81549
0.86379
0.801098
0.800832
0.785265
0.840528
0.827856
0.819369
0.812982
0.746538
0.803305
0.803282
0.730499
0.799266
0.714077
0.81021
0.800842
0.676037
0.880228
0.702114
0.772046
0.801126
0.743079
0.808244
0.798759
0.802981
0.65998
0.796623
0.783969
0.798812
0.728586
0.818461
0.822237
0.884556
0.809322
0.831182
0.644733
0.799786
0.786686
0.74419
0.75116
0.768811
0.7057
0.80302
0.799139
0.803094
0.763492
0.626761
0.811294
0.612482
0.820897
0.822654
0.81137
0.736521
0.811862
0.795217
0.818872
0.782617
0.806938
0.797016
0.809714
0.716389
0.801329
0.722129
0.801175
0.798599
0.685815
0.803489
0.814838
0.814899
0.803022
0.760994
0.814664
0.732039
0.690413
0.8022
0.814897
0.874407
0.814798
0.814165
0.880575
0.865416
0.830758
0.717655
0.801852
0.811763
0.821181
0.797783
0.680807
0.722408
0.675918
0.802302
0.704235
0.768305
0.799236
0.616397
0.689261
0.835975
0.773392
0.745139
0.830302
0.759001
0.769093
0.635325
0.731186
0.784922
0.819449
0.869487
0.837676
0.815228
0.794418
0.799501
0.715617
0.815085
0.693774
0.796913
0.814877
0.783386
0.762333
0.801465
0.782612
0.802117
0.800593
0.811392
0.810962
0.867113
0.572041
0.538729
0.802288
0.80678
0.698095
0.809856
0.802717
0.8374
0.803398
0.80229
0.56715
0.555612
0.80829
0.812054
0.815001
0.726376
0.803086
0.810292
0.684304
0.811078
0.802616
0.813517
0.803114
0.800352
0.802163
0.813964
0.802874
0.816904
0.80315
0.862031
0.814321
0.802426
0.721069
0.669973
0.815029
0.585279
0.812483
0.809903
0.83574
0.813532
0.802962
0.810615
0.813011
0.812766
0.814635
0.801515
0.853846
0.856407
0.802162
0.655251
0.808176
0.822287
0.799334
0.803098
0.819744
0.733966
0.803187
0.825012
0.821082
0.815324
0.814869
0.76648
0.74533
0.800678
0.833843
0.802714
0.814046
0.804376
0.803581
0.804912
0.813641
0.808725
0.798576
0.806764
0.805905
0.824443
0.806574
0.80617
0.817199
0.806736
0.803319
0.812738
0.802895
0.802762
0.805698
0.807712
0.812876
0.773503
0.805223
0.802633
0.814797
0.799577
0.803656
0.806753
0.831655
0.804927
0.650105
0.800668
0.815024
0.804556
0.814649
0.762923
0.814796
0.750551
0.803577
0.802113
0.803961
0.818807
0.85094
0.804264
0.803201
0.746865
0.82938
0.814782
0.820079
0.824821
0.814481
0.736559
0.81775
0.722103
0.80097
0.827358
0.802308
0.699947
0.825589
0.814462
0.815973
0.823842
0.81519
0.773202
0.816784
0.648623
0.7105
0.814876
0.82232
0.675887
0.818952
0.658508
0.821124
0.806689
0.816282
0.803116
0.805476
0.814599
0.831544
0.825002
0.671589
0.812861
0.841898
0.781372
0.846172
0.800177
0.705835
0.838357
0.819178
0.835383
0.688258
0.683546
0.832699
0.657457
0.830399
0.81489
0.828364
0.806203
0.826642
0.787602
0.825135
0.823739
0.707547
0.865601
0.822543
0.821531
0.823518
0.759111
0.802762
0.523988
0.802979
0.820651
0.813344
0.804667
0.82569
0.814835
0.797895
0.819877
0.802928
0.680442
0.792326
0.834104
0.814217
0.715848
0.799107
0.821472
0.575941
0.814571
0.815394
0.802562
0.809834
0.726122
0.817707
0.802965
0.803408
0.795888
0.793837
0.797846
0.79461
0.803234
0.812234
0.819236
0.81391
0.572528
0.892979
0.70609
0.797802
0.739567
0.791384
0.814811
0.815506
0.81539
0.604451
0.818797
0.817128
0.803825
0.817788
0.836547
0.839419
0.782814
0.798358
0.799407
0.725222
0.752674
0.815063
0.763921
0.81509
0.818865
0.81463
0.813412
0.801886
0.775258
0.811971
0.815922
0.728433
0.810509
0.815703
0.817925
0.807715
0.809386
0.764664
0.81442
0.808108
0.803111
0.80735
0.616546
0.806413
0.804249
0.805833
0.821142
0.845491
0.804621
0.774203
0.805195
0.771506
0.820097
0.80569
0.812593
0.814821
0.850116
0.803334
0.744347
0.819699
0.815061
0.727083
0.800825
0.816063
0.758414
0.812469
0.569253
0.806488
0.685648
0.801127
0.811
0.81231
0.817049
0.804126
0.815584
0.817553
0.800951
0.804273
0.844333
0.815979
0.796145
0.816026
0.801893
0.80146
0.800207
0.801174
0.806986
0.814443
0.801536
0.769947
0.818253
0.812815
0.808795
0.814831
0.586684
0.803293
0.813604
0.81511
0.787427
0.748274
0.71874
0.81233
0.814675
0.825792
0.78929
0.602967
0.771464
0.640335
0.816563
0.744984
0.812052
0.830144
0.695349
0.799612
0.833729
0.749503
0.800526
0.803104
0.81538
0.802203
0.69881
0.800628
0.548772
0.801705
0.802386
0.802141
0.576446
0.802868
0.803369
0.803118
0.728483
0.737389
0.803363
0.776371
0.815453
0.72211
0.706654
0.814857
0.801267
0.75254
0.854065
0.81367
0.812111
0.66931
0.802731
0.800492
0.800396
0.802411
0.656646
0.803187
0.815116
0.654345
0.685378
0.805762
0.790359
0.814951
0.823058
0.814832
0.815036
0.816262
0.803591
0.815022
0.814769
0.813288
0.829166
0.802416
0.801744
0.810283
0.727055
0.809502
0.814625
0.862718
0.81086
0.637949
0.774603
0.802132
0.776091
0.816517
0.811647
0.829904
0.813986
0.86452
0.801883
0.814401
0.593734
0.815543
0.833733
0.802861
0.814088
0.624888
0.815208
0.802655
0.816474
0.802173
0.817341
0.815771
0.75455
0.803503
0.803089
0.834995
0.861831
0.819536
0.815907
0.724951
0.741576
0.802458
0.802975
0.811948
0.817886
0.799481
0.802805
0.81932
0.806376
0.807465
0.739273
0.802658
0.817328
0.813768
0.768228
0.760385
0.811568
0.796372
0.856925
0.718673
0.834457
0.810826
0.711361
0.799632
0.814257
0.787398
0.800631
0.799667
0.814866
0.777272
0.774395
0.813205
0.696758
0.798593
0.765481
0.814728
0.817087
0.801939
0.787502
0.738437
0.752258
0.773893
0.814447
0.818771
0.805629
0.660923
0.802028
0.795671
0.777759
0.809679
0.812769
0.799482
0.803101
0.634144
0.803945
0.804569
0.851219
0.803642
0.80899
0.83319
0.805246
0.809958
0.852142
0.612979
0.803973
0.815968
0.805337
0.804948
0.805641
0.804513
0.804614
0.80413
0.805728
0.806268
0.724542
0.805621
0.806954
0.806642
0.814933
0.808083
0.818373
0.803061
0.803452
0.814528
0.814702
0.809863
0.803311
0.816165
0.81309
0.809664
0.815852
0.708335
0.813746
0.831391
0.814744
0.854198
0.749629
0.807927
0.814811
0.800763
0.604952
0.803204
0.772266
0.821731
0.627189
0.815393
0.829401
0.814486
0.811723
0.802026
0.827024
0.819068
0.80353
0.764689
0.816903
0.758437
0.547296
0.814157
0.694715
0.695025
0.820333
0.827518
0.827331
0.816503
0.847453
0.57343
0.87679
0.805177
0.825813
0.824138
0.812807
0.681837
0.814679
0.822594
0.816214
0.800966
0.773605
0.822205
0.56576
0.812986
0.843094
0.803075
0.839527
0.821353
0.803236
0.669308
0.843268
0.820292
0.836333
0.800802
0.813693
0.803014
0.833693
0.802765
0.813618
0.83126
0.829109
0.821963
0.824159
0.830754
0.738824
0.661624
0.564833
0.827257
0.825727
0.767249
0.756442
0.806258
0.824292
0.846775
0.591368
0.823005
0.82191
0.820995
0.81946
0.803879
0.820721
0.658299
0.744243
0.82019
0.797326
0.870051
0.890087
0.776332
0.803819
0.669451
0.835455
0.730539
0.718758
0.819069
0.801587
0.783371
0.661446
0.802115
0.814896
0.788789
0.711885
0.800392
0.817091
0.797923
0.677148
0.823395
0.792738
0.815574
0.833174
0.815088
0.795607
0.816019
0.815779
0.785767
0.803929
0.71084
0.840564
0.792981
0.81097
0.781843
0.804323
0.69658
0.80074
0.81342
0.812053
0.810885
0.809358
0.808265
0.807506
0.805877
0.804762
0.806687
0.725238
0.805314
0.80137
0.795829
0.80324
0.844402
0.715258
0.803152
0.776033
0.883932
0.85434
0.79793
0.723523
0.803244
0.797639
0.71913
0.803252
0.801628
0.734247
0.803594
0.789858
0.797234
0.801015
0.737322
0.779629
0.804376
0.747222
0.764265
0.769353
0.801337
0.814518
0.80853
0.758587
0.75117
0.799454
0.813555
0.803259
0.792859
0.801035
0.928625
0.860505
0.817594
0.814703
0.72343
0.844266
0.747499
0.82599
0.81643
0.898114
0.81487
0.797079
0.58859
0.814901
0.797195
0.814936
0.797614
0.845494
0.521392
0.832737
0.801486
0.805535
0.804814
0.803699
0.855831
0.801205
0.817246
0.70148
0.664976
0.666582
0.814979
0.503343
0.797613
0.721809
0.841742
0.814696
0.557963
0.801982
0.81439
0.814064
0.718915
0.801629
0.524585
0.797125
0.815115
0.797246
0.802656
0.797487
0.815284
0.833854
0.803225
0.798195
0.815678
0.798461
0.815828
0.813951
0.798745
0.816
0.813603
0.8162
0.798857
0.816423
0.679442
0.799052
0.816674
0.80302
0.799244
0.816927
0.697863
0.814892
0.798163
0.814839
0.798325
0.809892
0.83827
0.861244
0.800873
0.800332
0.817868
0.815281
0.799974
0.799597
0.863505
0.81215
0.81754
0.810345
0.849836
0.828422
0.816512
0.825614
0.846146
0.814832
0.801465
0.819107
0.81155
0.801892
0.814723
0.799937
0.80744
0.783033
0.806699
0.814945
0.810762
0.820218