# vtk DataFile Version 1.0
unstructured grid
ascii
DATASET UNSTRUCTURED_GRID
points 3920 float
-1 0 0
-1 1 0
2 0 0
2 1 0
0 0 0
1 0 0
-1 1 0.1
-1 0 0.1
0 0 0.1
1 0 0.1
2 0 0.1
2 1 0.1
-0.98 0 0
-0.96 0 0
-0.94 0 0
-0.92 0 0
-0.9 0 0
-0.88 0 0
-0.86 0 0
-0.84 0 0
-0.82 0 0
-0.8 0 0
-0.78 0 0
-0.76 0 0
-0.74 0 0
-0.72 0 0
-0.7 0 0
-0.68 0 0
-0.66 0 0
-0.64 0 0
-0.62 0 0
-0.6 0 0
-0.58 0 0
-0.56 0 0
-0.54 0 0
-0.52 0 0
-0.5 0 0
-0.48 0 0
-0.46 0 0
-0.44 0 0
-0.42 0 0
-0.4 0 0
-0.38 0 0
-0.36 0 0
-0.34 0 0
-0.32 0 0
-0.3 0 0
-0.28 0 0
-0.26 0 0
-0.24 0 0
-0.22 0 0
-0.2 0 0
-0.18 0 0
-0.16 0 0
-0.14 0 0
-0.12 0 0
-0.1 0 0
-0.08 0 0
-0.06 0 0
-0.04 0 0
-0.02 0 0
1.02 0 0
1.04 0 0
1.06 0 0
1.08 0 0
1.1 0 0
1.12 0 0
1.14 0 0
1.16 0 0
1.18 0 0
1.2 0 0
1.22 0 0
1.24 0 0
1.26 0 0
1.28 0 0
1.3 0 0
1.32 0 0
1.34 0 0
1.36 0 0
1.38 0 0
1.4 0 0
1.42 0 0
1.44 0 0
1.46 0 0
1.48 0 0
1.5 0 0
1.52 0 0
1.54 0 0
1.56 0 0
1.58 0 0
1.6 0 0
1.62 0 0
1.64 0 0
1.66 0 0
1.68 0 0
1.7 0 0
1.72 0 0
1.74 0 0
1.76 0 0
1.78 0 0
1.8 0 0
1.82 0 0
1.84 0 0
1.86 0 0
1.88 0 0
1.9 0 0
1.92 0 0
1.94 0 0
1.96 0 0
1.98 0 0
2 0.0199133 0
2 0.0414128 0
2 0.0646247 0
2 0.0896856 0
2 0.116743 0
2 0.145955 0
2 0.177494 0
2 0.211545 0
2 0.248309 0
2 0.288001 0
2 0.330854 0
2 0.377121 0
2 0.427073 0
2 0.481004 0
2 0.539231 0
2 0.602096 0
2 0.669968 0
2 0.743247 0
2 0.822362 0
2 0.907779 0
1.9 1 0
1.8 1 0
1.7 1 0
1.6 1 0
1.5 1 0
1.4 1 0
1.3 1 0
1.2 1 0
1.1 1 0
1 1 0
0.9 1 0
0.8 1 0
0.7 1 0
0.6 1 0
0.5 1 0
0.4 1 0
0.3 1 0
0.2 1 0
0.1 1 0
3.69793e-12 1 0
-0.1 1 0
-0.2 1 0
-0.3 1 0
-0.4 1 0
-0.5 1 0
-0.6 1 0
-0.7 1 0
-0.8 1 0
-0.9 1 0
-1 0.907779 0
-1 0.822362 0
-1 0.743247 0
-1 0.669968 0
-1 0.602096 0
-1 0.539231 0
-1 0.481004 0
-1 0.427073 0
-1 0.377121 0
-1 0.330854 0
-1 0.288001 0
-1 0.248309 0
-1 0.211545 0
-1 0.177494 0
-1 0.145955 0
-1 0.116743 0
-1 0.0896856 0
-1 0.0646247 0
-1 0.0414128 0
-1 0.0199133 0
0.0182781 0.00745351 0
0.0366672 0.0146286 0
0.0551632 0.0215237 0
0.0737617 0.0281372 0
0.0924585 0.0344675 0
0.111249 0.0405131 0
0.13013 0.0462728 0
0.149095 0.0517451 0
0.168142 0.0569289 0
0.187265 0.0618228 0
0.20646 0.0664258 0
0.225723 0.0707368 0
0.245049 0.0747549 0
0.264434 0.078479 0
0.283873 0.0819084 0
0.303362 0.0850422 0
0.322896 0.0878798 0
0.342472 0.0904204 0
0.362083 0.0926635 0
0.381726 0.0946086 0
0.401397 0.0962552 0
0.42109 0.0976029 0
0.440802 0.0986514 0
0.460527 0.0994006 0
0.480261 0.0998501 0
0.5 0.1 0
0.519739 0.0998501 0
0.539473 0.0994006 0
0.559198 0.0986514 0
0.57891 0.0976029 0
0.598603 0.0962552 0
0.618274 0.0946086 0
0.637917 0.0926635 0
0.657528 0.0904204 0
0.677104 0.0878798 0
0.696638 0.0850422 0
0.716127 0.0819084 0
0.735566 0.078479 0
0.754951 0.0747549 0
0.774277 0.0707368 0
0.79354 0.0664258 0
0.812735 0.0618228 0
0.831858 0.0569289 0
0.850905 0.0517451 0
0.86987 0.0462728 0
0.888751 0.0405131 0
0.907542 0.0344675 0
0.926238 0.0281372 0
0.944837 0.0215237 0
0.963333 0.0146286 0
0.981722 0.00745351 0
-1 0.907779 0.1
-1 0.822362 0.1
-1 0.743247 0.1
-1 0.669968 0.1
-1 0.602096 0.1
-1 0.539231 0.1
-1 0.481004 0.1
-1 0.427073 0.1
-1 0.377121 0.1
-1 0.330854 0.1
-1 0.288001 0.1
-1 0.248309 0.1
-1 0.211545 0.1
-1 0.177494 0.1
-1 0.145955 0.1
-1 0.116743 0.1
-1 0.0896856 0.1
-1 0.0646247 0.1
-1 0.0414128 0.1
-1 0.0199133 0.1
-0.98 0 0.1
-0.96 0 0.1
-0.94 0 0.1
-0.92 0 0.1
-0.9 0 0.1
-0.88 0 0.1
-0.86 0 0.1
-0.84 0 0.1
-0.82 0 0.1
-0.8 0 0.1
-0.78 0 0.1
-0.76 0 0.1
-0.74 0 0.1
-0.72 0 0.1
-0.7 0 0.1
-0.68 0 0.1
-0.66 0 0.1
-0.64 0 0.1
-0.62 0 0.1
-0.6 0 0.1
-0.58 0 0.1
-0.56 0 0.1
-0.54 0 0.1
-0.52 0 0.1
-0.5 0 0.1
-0.48 0 0.1
-0.46 0 0.1
-0.44 0 0.1
-0.42 0 0.1
-0.4 0 0.1
-0.38 0 0.1
-0.36 0 0.1
-0.34 0 0.1
-0.32 0 0.1
-0.3 0 0.1
-0.28 0 0.1
-0.26 0 0.1
-0.24 0 0.1
-0.22 0 0.1
-0.2 0 0.1
-0.18 0 0.1
-0.16 0 0.1
-0.14 0 0.1
-0.12 0 0.1
-0.1 0 0.1
-0.08 0 0.1
-0.06 0 0.1
-0.04 0 0.1
-0.02 0 0.1
0.0182781 0.00745351 0.1
0.0366672 0.0146286 0.1
0.0551632 0.0215237 0.1
0.0737617 0.0281372 0.1
0.0924585 0.0344675 0.1
0.111249 0.0405131 0.1
0.13013 0.0462728 0.1
0.149095 0.0517451 0.1
0.168142 0.0569289 0.1
0.187265 0.0618228 0.1
0.20646 0.0664258 0.1
0.225723 0.0707368 0.1
0.245049 0.0747549 0.1
0.264434 0.078479 0.1
0.283873 0.0819084 0.1
0.303362 0.0850422 0.1
0.322896 0.0878798 0.1
0.342472 0.0904204 0.1
0.362083 0.0926635 0.1
0.381726 0.0946086 0.1
0.401397 0.0962552 0.1
0.42109 0.0976029 0.1
0.440802 0.0986514 0.1
0.460527 0.0994006 0.1
0.480261 0.0998501 0.1
0.5 0.1 0.1
0.519739 0.0998501 0.1
0.539473 0.0994006 0.1
0.559198 0.0986514 0.1
0.57891 0.0976029 0.1
0.598603 0.0962552 0.1
0.618274 0.0946086 0.1
0.637917 0.0926635 0.1
0.657528 0.0904204 0.1
0.677104 0.0878798 0.1
0.696638 0.0850422 0.1
0.716127 0.0819084 0.1
0.735566 0.078479 0.1
0.754951 0.0747549 0.1
0.774277 0.0707368 0.1
0.79354 0.0664258 0.1
0.812735 0.0618228 0.1
0.831858 0.0569289 0.1
0.850905 0.0517451 0.1
0.86987 0.0462728 0.1
0.888751 0.0405131 0.1
0.907542 0.0344675 0.1
0.926238 0.0281372 0.1
0.944837 0.0215237 0.1
0.963333 0.0146286 0.1
0.981722 0.00745351 0.1
1.02 0 0.1
1.04 0 0.1
1.06 0 0.1
1.08 0 0.1
1.1 0 0.1
1.12 0 0.1
1.14 0 0.1
1.16 0 0.1
1.18 0 0.1
1.2 0 0.1
1.22 0 0.1
1.24 0 0.1
1.26 0 0.1
1.28 0 0.1
1.3 0 0.1
1.32 0 0.1
1.34 0 0.1
1.36 0 0.1
1.38 0 0.1
1.4 0 0.1
1.42 0 0.1
1.44 0 0.1
1.46 0 0.1
1.48 0 0.1
1.5 0 0.1
1.52 0 0.1
1.54 0 0.1
1.56 0 0.1
1.58 0 0.1
1.6 0 0.1
1.62 0 0.1
1.64 0 0.1
1.66 0 0.1
1.68 0 0.1
1.7 0 0.1
1.72 0 0.1
1.74 0 0.1
1.76 0 0.1
1.78 0 0.1
1.8 0 0.1
1.82 0 0.1
1.84 0 0.1
1.86 0 0.1
1.88 0 0.1
1.9 0 0.1
1.92 0 0.1
1.94 0 0.1
1.96 0 0.1
1.98 0 0.1
2 0.0199133 0.1
2 0.0414128 0.1
2 0.0646247 0.1
2 0.0896856 0.1
2 0.116743 0.1
2 0.145955 0.1
2 0.177494 0.1
2 0.211545 0.1
2 0.248309 0.1
2 0.288001 0.1
2 0.330854 0.1
2 0.377121 0.1
2 0.427073 0.1
2 0.481004 0.1
2 0.539231 0.1
2 0.602096 0.1
2 0.669968 0.1
2 0.743247 0.1
2 0.822362 0.1
2 0.907779 0.1
1.9 1 0.1
1.8 1 0.1
1.7 1 0.1
1.6 1 0.1
1.5 1 0.1
1.4 1 0.1
1.3 1 0.1
1.2 1 0.1
1.1 1 0.1
1 1 0.1
0.9 1 0.1
0.8 1 0.1
0.7 1 0.1
0.6 1 0.1
0.5 1 0.1
0.4 1 0.1
0.3 1 0.1
0.2 1 0.1
0.1 1 0.1
3.69793e-12 1 0.1
-0.1 1 0.1
-0.2 1 0.1
-0.3 1 0.1
-0.4 1 0.1
-0.5 1 0.1
-0.6 1 0.1
-0.7 1 0.1
-0.8 1 0.1
-0.9 1 0.1
1.08758 0.0158154 0
-0.0898513 0.0203294 0
0.0966181 0.0537636 0
0.90205 0.0548881 0
1.21055 0.0202058 0
-0.209811 0.0159577 0
1.3305 0.0176902 0
-0.33 0.0173205 0
1.45324 0.0148141 0
-0.448654 0.0159854 0
1.56842 0.0191785 0
-0.569936 0.0166364 0
0.193292 0.0805369 0
0.805051 0.0813623 0
0.709096 0.100353 0
0.288591 0.0996656 0
0.390184 0.111848 0
0.61033 0.111742 0
0.488809 0.116278 0
1.67175 0.0169692 0
-0.67 0.0169809 0
-0.955017 0.454039 0
1.95131 0.44569 0
1.74981 0.0168753 0
-0.75 0.0173205 0
-0.968032 0.266538 0
1.96871 0.266267 0
0.978232 0.0305687 0
0.0208675 0.026451 0
-0.150454 0.91842 0
1.13854 0.907437 0
1.45012 0.904365 0
-0.445923 0.908903 0
-0.853423 0.0157019 0
1.84881 0.016319 0
0.853689 0.915652 0
0.153944 0.912184 0
0.545151 0.914125 0
0.549913 0.115152 0
1.51 0.0173205 0
-0.506989 0.01651 0
1.27 0.0173205 0
1.14976 0.0173333 0
-0.268171 0.0206442 0
-0.150501 0.0153244 0
-0.391384 0.0153993 0
1.38886 0.0171544 0
-0.973694 0.161724 0
1.97441 0.162392 0
-0.945221 0.633523 0
1.94544 0.63312 0
1.91008 0.0186068 0
-0.91 0.0169616 0
-0.030664 0.0194327 0
1.03074 0.0165456 0
-0.966065 0.353575 0
1.96128 0.359765 0
1.93879 0.781254 0
-0.937057 0.781882 0
-0.980746 0.080709 0
1.9772 0.0760699 0
0.058735 0.0409372 0
0.355202 0.913001 0
0.86356 0.0661005 0
0.134223 0.0651111 0
0.941972 0.0397386 0
-0.653034 0.915003 0
1.65328 0.904589 0
0.770126 0.0881325 0
0.232946 0.0902008 0
0.330582 0.105648 0
0.670612 0.108365 0
0.428707 0.116145 0
1.80993 0.016629 0
-0.810168 0.0172178 0
-0.71 0.0173205 0
1.63047 0.0175504 0
1.70842 0.0169661 0
-0.628824 0.0181787 0
-0.949815 0.0133898 0
1.95 0.0173205 0
1.85542 0.907891 0
-0.85 0.913397 0
1.9833 0.0307692 0
-0.983315 0.0309709 0
-0.750025 0.916468 0
-0.701107 0.836904 0
-0.607741 0.836428 0
-0.656448 0.759827 0
-0.572936 0.758144 0
-0.61411 0.691195 0
-0.539534 0.689068 0
-0.578542 0.626111 0
-0.507461 0.624216 0
-0.544001 0.566638 0
-0.477696 0.564279 0
-0.511582 0.51001 0
-0.451689 0.507147 0
-0.481834 0.457732 0
-0.426137 0.454624 0
-0.453236 0.407539 0
-0.398845 0.406233 0
-0.507958 0.409496 0
-0.368427 0.460177 0
-0.344602 0.405209 0
-0.315696 0.447824 0
-0.294128 0.402169 0
-0.262844 0.444518 0
-0.241968 0.388746 0
-0.209878 0.439557 0
-0.185184 0.391135 0
-0.156687 0.437338 0
-0.133719 0.390776 0
-0.104405 0.434306 0
-0.0818745 0.388334 0
-0.0528785 0.431165 0
-0.0305984 0.385639 0
-0.00180552 0.427863 0
0.0194564 0.382608 0
0.0485809 0.42449 0
0.0701962 0.37973 0
0.0985483 0.421145 0
0.119893 0.377339 0
0.147837 0.417911 0
0.172552 0.36751 0
0.197018 0.412597 0
0.221203 0.37141 0
0.24512 0.409646 0
-0.48178 0.364657 0
-0.531053 0.364782 0
-0.0599102 0.344151 0
-0.324909 0.359566 0
0.266181 0.368462 0
0.292132 0.407649 0
0.311992 0.365779 0
0.338918 0.404821 0
0.357567 0.355909 0
0.384723 0.40053 0
0.404675 0.359681 0
0.430617 0.398558 0
0.450457 0.35827 0
0.474237 0.395182 0
0.496746 0.34898 0
0.520548 0.397931 0
0.542071 0.353121 0
0.566011 0.389914 0
0.585061 0.350856 0
0.609352 0.38696 0
0.629069 0.348168 0
0.655979 0.391217 0
0.67472 0.346182 0
0.699346 0.381414 0
0.719333 0.341965 0
0.743718 0.377547 0
0.764028 0.339036 0
0.788201 0.373582 0
0.807659 0.336101 0
0.832821 0.372249 0
0.852309 0.334017 0
0.877785 0.370339 0
0.897875 0.331141 0
0.922904 0.366281 0
0.943173 0.327335 0
0.968282 0.363358 0
0.989029 0.324222 0
1.01391 0.361511 0
1.03465 0.321428 0
1.05949 0.358447 0
1.08389 0.312052 0
1.10575 0.355104 0
1.12889 0.31562 0
1.15067 0.353235 0
1.17157 0.312819 0
1.19626 0.349369 0
1.21618 0.309863 0
1.2416 0.346914 0
1.26131 0.30715 0
1.28691 0.344312 0
1.30571 0.303752 0
1.33144 0.341222 0
1.35018 0.300911 0
1.3758 0.338308 0
1.39501 0.298931 0
1.42015 0.335235 0
1.43904 0.296349 0
1.46355 0.330194 0
1.48256 0.293347 0
1.50685 0.326967 0
1.52589 0.29055 0
1.54996 0.325305 0
1.56909 0.287929 0
[...]
CELL_DATA 3694
SCALARS rho float
LOOKUP_TABLE default
0.752302
0.703136
0.807098
0.828925
0.835525
0.808554
0.79798
0.803274
0.823459
0.80521
0.830576
0.830562
0.844204
0.796419
0.803976
0.773698
0.805282
0.805629
0.780178
0.856021
0.827557
0.834044
0.739707
0.806879
0.737077
0.843197
0.737973
0.810908
0.840819
0.800142
0.800277
0.735658
0.806069
0.829072
0.80605
0.810162
0.843986
0.83367
0.834081
0.786297
0.807898
0.821832
0.838286
0.829636
0.811035
0.828928
0.804829
0.709846
0.704522
0.755395
0.805797
0.804271
0.853061
0.807312
0.702192
0.84491
0.805835
0.829494
0.836431
0.768993
0.80262
0.832086
0.849503
0.802721
0.85042
0.839959
0.8121
0.830096
0.7476
0.864307
0.804214
0.811973
0.834064
0.805327
0.834869
0.804327
0.819159
0.801648
0.827683
0.80627
0.745665
0.822995
0.80346
0.784972
0.82235
0.801714
0.828907
0.745649
0.747605
0.833613
0.81081
0.80487
0.825069
0.825859
0.69922
0.810452
0.740563
0.830731
0.827047
0.847575
0.829815
0.782154
0.731104
0.822984
0.821789
0.832073
0.830759
0.810991
0.73721
0.827572
0.804635
0.756593
0.733193
0.832036
0.873044
0.804569
0.811476
0.826884
0.804161
0.804398
0.776561
0.827178
0.830684
0.784408
0.717161
0.774113
0.830092
0.7928
0.849957
0.739153
0.778106
0.806857
0.812328
0.788314
0.804978
0.806958
0.808975
0.803615
0.799515
0.829634
0.82733
0.740886
0.830045
0.82976
0.773241
0.712182
0.701212
0.799991
0.830503
0.817551
0.768286
0.804303
0.657728
0.791725
0.723956
0.7828
0.732181
0.796518
0.652346
0.800083
0.840998
0.677242
0.791374
0.754077
0.851753
0.654967
0.821691
0.803446
0.807179
0.698891
0.803889
0.698997
0.863901
0.662054
0.805228
0.705169
0.874486
0.8424
0.831449
0.755435
0.827254
0.736465
0.837104
0.751177
0.679496
0.805052
0.688552
0.834167
0.805412
0.857734
0.799351
0.716528
0.832096
0.800288
0.763672
0.855911
0.816113
0.854761
0.753415
0.767408
0.783218
0.805356
0.841035
0.837951
0.821461
0.829611
0.707626
0.807777
0.754128
0.804844
0.746281
0.807831
0.800703
0.806783
0.836137
0.782648
0.839971
0.764672
0.836101
0.830356
0.830536
0.856073
0.833433
0.743904
0.83722
0.694133
0.796049
0.821531
0.857904
0.839376
0.821484
0.801221
0.768928
0.830733
0.844889
0.830648
0.744687
0.811799
0.725296
0.80495
0.80059
0.822177
0.69546
0.811794
0.776478
0.804596
0.8041
0.775617
0.831364
0.868161
0.791927
0.704597
0.810315
0.805598
0.679598
0.805768
0.788601
0.80405
0.845742
0.831692
0.654316
0.831053
0.815733
0.809752
0.830823
0.804196
0.820102
0.824342
0.839253
0.772576
0.802943
0.84371
0.815231
0.804198
0.80228
0.832102
0.739859
0.636407
0.829942
0.833694
0.832026
0.810423
0.730414
0.83082
0.830947
0.827415
0.747696
0.807707
0.83202
0.665922
0.803967
0.873605
0.691936
0.777993
0.846653
0.835438
0.832071
0.71963
0.814175
0.832056
0.806599
0.804447
0.817293
0.843514
0.82204
0.780176
0.811596
0.804651
0.67749
0.832666
0.837879
0.710191
0.803952
0.831335
0.825597
0.710489
0.678291
0.832945
0.834596
0.813793
0.745069
0.733306
0.739313
0.762392
0.832016
0.792664
0.807191
0.762618
0.75261
0.833437
0.822634
0.823857
0.784503
0.831357
0.829661
0.830571
0.829286
0.805219
0.811751
0.808121
0.703611
0.803756
0.817339
0.736948
0.811914
0.808704
0.83167
0.794014
0.811636
0.799209
0.831972
0.832662
0.832124
0.80041
0.731232
0.748033
0.804597
0.815607
0.688421
0.806761
0.812256
0.821676
0.764833
0.808852
0.829281
0.826562
0.830744
0.808484
0.803078
0.781518
0.808869
0.85126
0.824686
0.719263
0.807252
0.741111
0.71747
0.805578
0.651346
0.783035
0.793712
0.813689
0.830795
0.834745
0.829901
0.822686
0.832132
0.837954
0.804559
0.781528
0.81501
0.69997
0.83126
0.773541
0.755309
0.726448
0.829771
0.859643
0.831274
0.813576
0.826929
0.830973
0.795279
0.77719
0.823161
0.714643
0.797642
0.850379
0.830771
0.804847
0.869625
0.817899
0.828195
0.830724
0.834844
0.688726
0.810914
0.761866
0.799628
0.748698
0.828754
0.813437
0.799565
0.689537
0.831502
0.833972
0.827239
0.805238
0.807402
0.834945
0.806621
0.745975
0.798049
0.804095
0.831288
0.826742
0.826082
0.87628
0.837849
0.813695
0.841406
0.713994
0.834396
0.846106
0.830106
0.664024
0.831038
0.813571
0.852984
0.832914
0.805023
0.640375
0.814501
0.73552
0.810137
0.804287
0.81702
0.830802
0.829344
0.808644
0.816411
0.829453
0.757383
0.868575
0.803169
0.857137
0.829479
0.659942
0.806753
0.803077
0.826176
0.830726
0.711841
0.804629
0.813959
0.817467
0.811235
0.799533
0.830633
0.830189
0.809058
0.808466
0.832755
0.843892
0.761691
0.810341
0.814508
0.826768
0.70762
0.80905
0.827724
0.801355
0.807623
0.659391
0.842139
0.782899
0.83197
0.830693
0.840149
0.852914
0.829075
0.827154
0.747746
0.801108
0.858071
0.82174
0.729288
0.802161
0.804087
0.876851
0.852814
0.831446
0.803094
0.814781
0.7704
0.830179
0.818468
0.638437
0.805351
0.761269
0.763912
0.806337
0.826429
0.790027
0.826423
0.830584
0.841947
0.828147
0.805209
0.820652
0.749942
0.757006
0.807181
0.820635
0.831507
0.805384
0.765461
0.728952
0.830394
0.819763
0.818957
0.645656
0.82988
0.826593
0.835419
0.805457
0.819942
0.830901
0.81678
0.847742
0.805309
0.817284
0.833504
0.83062
0.82716
0.830603
0.733299
0.793103
0.806221
0.805409
0.854925
0.804089
0.813456
0.668795
0.820887
0.827672
0.815277
0.831472
0.809549
0.829744
0.744594
0.851371
0.719899
0.802866
0.830651
0.811399
0.714431
0.687766
0.820282
0.809544
0.808044
0.799364
0.803914
0.838867
0.826325
0.808365
0.804889
0.825802
0.656552
0.827376
0.806465
0.739487
0.827739
0.69858
0.798827
0.82935
0.844752
0.818757
0.828699
0.805982
0.80721
0.807817
0.80398
0.82737
0.815676
0.822586
0.805128
0.76684
0.807926
0.829161
0.828413
0.826457
0.827099
0.830175
0.831281
0.841407
0.7656
0.810833
0.83005
0.805653
0.631678
0.729847
0.816113
0.830058
0.830545
0.789478
0.813192
0.81764
0.806672
0.804691
0.805826
0.829364
0.830392
0.831171
0.798942
0.819657
0.818564
0.670495
0.786013
0.775674
0.816025
0.751955
0.727348
0.79927
0.780435
0.837487
0.832089
0.831253
0.81356
0.629095
0.820465
0.636776
0.739719
0.835383
0.8742
0.768091
0.829659
0.859495
0.725338
0.829216
0.81437
0.81947
0.813138
0.687997
0.861149
0.751216
0.761708
0.808159
0.807959
0.801112
0.837194
0.831143
0.721043
0.825078
0.803438
0.736896
0.84783
0.800334
0.664501
0.785163
0.830092
0.820803
0.830942
0.792531
0.758122
0.787808
0.840977
0.711847
0.830457
0.828265
0.8372
0.778946
0.833464
0.731413
0.807996
0.690214
0.722217
0.810836
0.827363
0.802582
0.831993
0.830352
0.830858
0.831304
0.644587
0.803412
0.832188
0.759094
0.814722
0.830221
0.827685
0.728239
0.702705
0.757235
0.685408
0.813155
0.714761
0.830606
0.802876
0.831204
0.840922
0.701239
0.815061
0.830583
0.83984
0.766047
0.795962
0.773775
0.785804
0.824303
0.676302
0.684397
0.830893
0.809038
0.824074
0.807851
0.74551
0.792473
0.754172
0.770072
0.802566
0.841291
0.816814
0.712963
0.834426
0.827452
0.825628
0.732579
0.703068
0.717828
0.877001
0.830261
0.828619
0.657463
0.731998
0.676511
0.807029
0.801787
0.700105
0.816622
0.832572
0.773292
0.802979
0.755597
0.829225
0.714714
0.831838
0.815957
0.813395
0.804322
0.833536
0.7608
0.830571
0.831808
0.790385
0.665281
0.821233
0.824877
0.776082
0.83129
0.757969
0.806616
0.835268
0.713349
0.83096
0.803492
0.815617
0.655156
0.688458
0.755426
0.810287
0.825919
0.825132
0.832569
0.8197
0.830038
0.724922
0.802864
0.826302
0.836395
0.724784
0.7593
0.82792
0.822221
0.727179
0.819775
0.787039
0.714618
0.816571
0.718664
0.816074
0.69204
0.804038
0.742499
0.709838
0.82478
0.794879
0.76349
0.667449
0.847436
0.825886
0.8274
0.783721
0.831519
0.801746
0.79788
0.80224
0.806125
0.827194
0.762304
0.814691
0.802179
0.831325
0.649233
0.804639
0.825609
0.826262
0.824891
0.825131
0.765826
0.813932
0.777321
0.76995
0.830874
0.705543
0.830665
0.830006
0.804446
0.828217
0.82938
0.753453
0.777611
0.833309
0.798288
0.807845
0.828827
0.879239
0.829415
0.811266
0.830502
0.830808
0.799688
0.831162
0.828213
0.78541
0.741402
0.849293
0.803811
0.804521
0.827036
0.793219
0.83072
0.829194
0.831227
0.830468
0.875487
0.804528
0.808857
0.830979
0.80452
0.830037
0.811267
0.761276
0.829785
0.831868
0.763697
0.747408
0.829492
0.84689
0.826779
0.715028
0.833252
0.785542
0.821453
0.805088
0.751797
0.804163
0.800696
0.820109
0.828684
0.722855
0.743919
0.804906
0.795619
0.805413
0.832904
0.7345
0.831697
0.805474
0.803545
0.83149
0.830749
0.747553
0.829904
0.778066
0.806515
0.836678
0.80601
0.787929
0.804539
0.801394
0.830617
0.678559
0.832142
0.705764
0.724902
0.806196
0.83178
0.831796
0.804749
0.830794
0.81893
0.753866
0.795039
0.863333
0.804387
0.840867
0.812476
0.656051
0.771635
0.795436
0.700056
0.76262
0.647398
0.828476
0.830531
0.824364
0.803701
0.777834
0.71813
0.782326
0.762127
0.791718
0.832147
0.848317
0.831674
0.810053
0.824149
0.831788
0.805889
0.812346
0.735734
0.806137
0.770703
0.813164
0.799895
0.772541
0.831649
0.796491
0.806332
0.803652
0.847943
0.748139
0.80298
0.802281
0.808664
0.65439
0.830667
0.830706
0.826506
0.697256
0.830748
0.830401
0.800623
0.806884
0.800077
0.790993
0.81114
0.807477
0.830466
0.763499
0.815922
0.879436
0.778828
0.768468
0.818843
0.792205
0.850449
0.812248
0.795281
0.826685
0.803431
0.799895
0.812726
0.836104
0.844501
0.804364
0.638358
0.831973
0.83783
0.782735
0.840293
0.845944
0.83367
0.836272
0.812112
0.841605
0.837081
0.792586
0.813735
0.825975
0.818713
0.833873
0.805995
0.831514
0.800429
0.807818
0.811338
0.753745
0.812379
0.638094
0.830666
0.83587
0.838524
0.81036
0.822822
0.834775
0.823867
0.832536
0.847121
0.842264
0.801665
0.801685
0.83315
0.82899
0.83039
0.802665
0.810806
0.870814
0.83203
0.854632
0.829143
0.802884
0.828856
0.806299
0.837435
0.827041
0.826939
0.809272
0.755573
0.805105
0.808022
0.830412
0.807112
0.812133
0.82643
0.81062
0.807431
0.788394
0.824166
0.739933
0.818941
0.795772
0.774629
0.806343
0.817824
0.823781
0.747623
0.831583
0.819754
0.830698
0.829766
0.800821
0.830387
0.850554
0.837199
0.82499
0.816218
0.803594
0.76628
0.726094
0.83146
0.825594
0.787196
0.827272
0.812054
0.825586
0.809334
0.800677
0.786733
0.80362
0.801967
0.848759
0.830519
0.81601
0.812113
0.648229
0.756859
0.80656
0.797444
0.807737
0.828866
0.809987
0.830418
0.789932
0.831253
0.808557
0.824936
0.807184
0.830394
0.803928
0.830467
0.824444
0.829476
0.825945
0.747177
0.826934
0.830554
0.644772
0.831258
0.802904
0.80638
0.864731
0.829784
0.824592
0.877012
0.829689
0.829949
0.830476
0.831209
0.827856
0.777572
0.834188
0.804459
0.805531
0.826561
0.830201
0.830484
0.83076
0.825769
0.827321
0.807251
0.825136
0.8134
0.819925
0.824404
0.83093
0.824725
0.83112
0.813865
0.706394
0.703461
0.804648
0.813269
0.805801
0.82454
0.83043
0.829225
0.804944
0.808234
0.803072
0.802772
0.829561
0.85093
0.831152
0.816223
0.830684
0.83093
0.849439
0.829746
0.825608
0.794369
0.828551
0.811007
0.805283
0.799181
0.822861
0.830845
0.830817
0.829373
0.839609
0.817972
0.828728
0.829117
0.825938
0.806044
0.806016
0.809315
0.825521
0.830574
0.80345
0.814955
0.830421
0.826801
0.803439
0.673986
0.807329
0.807258
0.821913
0.805232
0.806016
0.763654
0.848891
0.807213
0.801587
0.843681
0.83943
0.814652
0.836562
0.802587
0.830648
0.828785
0.83119
0.806209
0.830923
0.760503
0.833563
0.816339
0.802413
0.817625
0.832325
0.804788
0.806839
0.796561
0.81959
0.8308
0.830743
0.830986
0.810331
0.83055
0.830198
0.834977
0.826264
0.846152
0.809869
0.716571
0.830319
0.847283
0.831835
0.808266
0.801548
0.806609
0.82751
0.818611
0.829953
0.759566
0.766217
0.803293
0.807077
0.82981
0.828856
0.811567
0.704975
0.728349
0.812281
0.777665
0.830524
0.72401
0.804433
0.746419
0.804005
0.82452
0.804165
0.830511
0.827293
0.802506
0.812823
0.806218
0.833897
0.830653
0.803955
0.806464
0.829145
0.832744
0.769202
0.832149
0.806374
0.790775
0.830686
0.806609
0.815199
0.831857
0.83066
0.843609
0.805613
0.800298
0.830722
0.772991
0.810709
0.831702
0.805204
0.829717
0.844634
0.805129
0.85041
0.818845
0.801317
0.827795
0.804004
0.854868
0.796254
0.80513
0.830503
0.840986
0.812541
0.829258
0.830231
0.805013
0.8051
0.830087
0.794244
0.82969
0.830356
0.708423
0.830356
0.731637
0.82204
0.846046
0.834804
0.81
0.830905
0.831164
0.7467
0.831557
0.804291
0.802627
0.803086
0.829649
0.869299
0.803283
0.803639
0.793655
0.848801
0.831935
0.831349
0.827071
0.762921
0.814793
0.803997
0.748861
0.802711
0.734598
0.824596
0.803652
0.704181
0.884059
0.722032
0.780539
0.805516
0.765622
0.812626
0.800929
0.804253
0.691698
0.801427
0.793095
0.801413
0.760973
0.830957
0.83363
0.88799
0.813792
0.835492
0.68002
0.80281
0.798413
0.770124
0.772309
0.787015
0.740041
0.806273
0.801862
0.806384
0.779452
0.668877
0.815819
0.661101
0.831174
0.830872
0.815943
0.752863
0.821683
0.808512
0.830098
0.791888
0.820114
0.801601
0.823745
0.735943
0.803667
0.745234
0.803436
0.800541
0.730403
0.806958
0.831698
0.831571
0.804784
0.775646
0.830917
0.7443
0.714981
0.803797
0.831664
0.878962
0.83184
0.829517
0.884231
0.870189
0.838318
0.730529
0.804085
0.81634
0.825925
0.810003
0.726094
0.740885
0.725609
0.80404
0.717058
0.782438
0.800976
0.693242
0.703766
0.843217
0.788066
0.764517
0.83952
0.775947
0.778136
0.691083
0.75335
0.798016
0.829542
0.874009
0.844964
0.83054
0.806313
0.801309
0.741529
0.831061
0.718154
0.803538
0.831876
0.791165
0.776847
0.812627
0.795725
0.80617
0.802476
0.825698
0.816257
0.871989
0.679201
0.652031
0.804213
0.817499
0.729282
0.814686
0.804542
0.844953
0.806202
0.803212
0.649369
0.668273
0.813952
0.82658
0.831253
0.759303
0.804246
0.820853
0.720618
0.826296
0.804002
0.831054
0.803826
0.810733
0.80306
0.831512
0.803643
0.821834
0.80556
0.867512
0.831866
0.803269
0.732995
0.713116
0.830136
0.658234
0.823074
0.814575
0.843678
0.826949
0.805153
0.815325
0.830542
0.827479
0.832188
0.802522
0.85693
0.86254
0.805728
0.70799
0.820292
0.826757
0.802957
0.804759
0.83012
0.763958
0.803878
0.834002
0.831038
0.828636
0.830357
0.779734
0.756572
0.804155
0.842209
0.806815
0.824791
0.808628
0.807753
0.809268
0.831063
0.813354
0.801154
0.811597
0.810328
0.82882
0.811188
0.810567
0.830458
0.811236
0.803958
0.830277
0.804236
0.803604
0.809885
0.812278
0.830267
0.785645
0.809193
0.804539
0.832367
0.800904
0.806411
0.811807
0.840463
0.808648
0.708627
0.802224
0.828767
0.808027
0.819412
0.777985
0.828971
0.770006
0.806123
0.803073
0.806945
0.823411
0.857709
0.807488
0.803953
0.758025
0.838651
0.83184
0.831705
0.829067
0.826226
0.76202
0.83056
0.75464
0.805858
0.837057
0.803743
0.738821
0.835686
0.825502
0.830467
0.834356
0.830895
0.785208
0.830339
0.711745
0.748873
0.831823
0.83323
0.727912
0.831456
0.688133
0.832398
0.8114
0.830374
0.804119
0.810074
0.825967
0.835808
0.829201
0.679209
0.82976
0.849824
0.791162
0.853543
0.803386
0.746054
0.846762
0.831548
0.84422
0.735088
0.730954
0.841947
0.717998
0.840027
0.831574
0.838353
0.811515
0.836968
0.795781
0.83578
0.834701
0.746138
0.871021
0.833804
0.833076
0.827784
0.775903
0.80439
0.652408
0.815248
0.832477
0.829147
0.810326
0.836061
0.832409
0.799442
0.831974
0.804639
0.726867
0.799263
0.838114
0.83084
0.749963
0.811611
0.825823
0.662964
0.830674
0.830699
0.808627
0.814432
0.755748
0.827882
0.804328
0.805755
0.801799
0.806884
0.804612
0.80145
0.803877
0.829765
0.82367
0.8291
0.636003
0.895947
0.737275
0.803051
0.764424
0.799063
0.832321
0.830533
0.830704
0.658055
0.830344
0.821602
0.807072
0.828914
0.840521
0.843128
0.791789
0.8024
0.80404
0.758505
0.773659
0.831151
0.777815
0.819609
0.831222
0.830723
0.817904
0.803971
0.791116
0.816416
0.830402
0.749144
0.814909
0.830451
0.830924
0.811968
0.813701
0.7827
0.831584
0.812356
0.805087
0.811466
0.67133
0.810429
0.807657
0.809699
0.832569
0.848852
0.808201
0.791091
0.808919
0.782287
0.831872
0.818225
0.82998
0.832384
0.8532
0.805743
0.760433
0.824132
0.831185
0.748327
0.804394
0.830427
0.771587
0.83001
0.632237
0.810676
0.709275
0.804852
0.820252
0.826811
0.830619
0.807334
0.826563
0.830112
0.80347
0.808821
0.847909
0.83021
0.802044
0.828503
0.806194
0.805712
0.801962
0.803837
0.818668
0.831185
0.804341
0.787691
0.830901
0.821991
0.813483
0.832346
0.643531
0.80931
0.818337
0.830973
0.801353
0.7691
0.730901
0.829698
0.832163
0.836015
0.803277
0.655852
0.784763
0.698903
0.830483
0.755545
0.829571
0.834544
0.739288
0.801475
0.84254
0.773451
0.804598
0.804822
0.829533
0.812163
0.721429
0.802579
0.652497
0.804808
0.804386
0.805439
0.674551
0.804159
0.805892
0.806058
0.745884
0.755182
0.806137
0.789338
0.830662
0.741907
0.728613
0.830854
0.805585
0.768455
0.859773
0.830713
0.829457
0.69989
0.806414
0.801968
0.802196
0.803513
0.697647
0.8057
0.830872
0.688468
0.712292
0.811704
0.801885
0.831355
0.831369
0.829589
0.829963
0.830077
0.806666
0.831153
0.829359
0.822477
0.83345
0.806023
0.803889
0.814988
0.759875
0.814057
0.829225
0.867787
0.820592
0.677598
0.791391
0.803961
0.78674
0.830339
0.825935
0.837684
0.818809
0.869547
0.805768
0.829266
0.655183
0.820398
0.841324
0.80386
0.831253
0.669875
0.828338
0.804345
0.830306
0.803273
0.830457
0.830123
0.764827
0.807333
0.803818
0.842678
0.867241
0.824129
0.83049
0.738103
0.76796
0.803826
0.805269
0.816798
0.830556
0.801029
0.804881
0.831147
0.818555
0.811726
0.751428
0.804149
0.829581
0.825796
0.782325
0.770406
0.82418
0.803243
0.862924
0.738078
0.842413
0.823747
0.724988
0.805504
0.829137
0.794993
0.801799
0.806181
0.830175
0.791639
0.783152
0.829343
0.7122
0.800053
0.781654
0.83043
0.83062
0.804255
0.800447
0.759596
0.770664
0.786295
0.83082
0.831283
0.817909
0.699567
0.813324
0.807613
0.787017
0.815294
0.828583
0.80524
0.807233
0.700203
0.808153
0.808869
0.858213
0.806512
0.813661
0.841495
0.809641
0.823394
0.85872
0.679891
0.807064
0.83046
0.809672
0.809063
0.810201
0.808102
0.808496
0.807492
0.810536
0.810725
0.748864
0.810678
0.8115
0.817582
0.828483
0.812684
0.82879
0.803951
0.806523
0.828946
0.828683
0.823894
0.803948
0.821203
0.81791
0.82049
0.829828
0.7374
0.829217
0.840108
0.830614
0.860854
0.764654
0.820362
0.83193
0.804786
0.688618
0.80541
0.784829
0.833278
0.660945
0.830566
0.838546
0.83098
0.822601
0.803794
0.831847
0.828215
0.806698
0.778158
0.830321
0.771437
0.638496
0.8317
0.706162
0.72856
0.824992
0.837081
0.837359
0.830227
0.854611
0.678306
0.87888
0.810501
0.835766
0.834492
0.826986
0.720923
0.831512
0.833345
0.830301
0.805043
0.781963
0.826672
0.646074
0.824037
0.850815
0.806066
0.847733
0.832467
0.80388
0.715449
0.846959
0.831759
0.844994
0.803241
0.824996
0.803788
0.842761
0.80475
0.825265
0.840719
0.838933
0.826393
0.835073
0.834956
0.749744
0.714594
0.668031
0.837431
0.836222
0.781199
0.774039
0.818966
0.835104
0.850054
0.666521
0.834121
0.833319
0.832682
0.831694
0.809557
0.825173
0.715161
0.766694
0.832154
0.799763
0.872443
0.893465
0.787563
0.816199
0.695768
0.839385
0.759382
0.75344
0.823572
0.807725
0.792651
0.719395
0.803268
0.831017
0.796607
0.749806
0.812907
0.821633
0.804698
0.726905
0.831421
0.800291
0.830466
0.842142
0.819666
0.808555
0.830364
0.830395
0.794392
0.80726
0.748768
0.844203
0.799633
0.823625
0.791315
0.807824
0.734597
0.801911
0.817997
0.81657
0.815332
0.813775
0.812577
0.811706
0.809838
0.808423
0.810767
0.75846
0.809122
0.80244
0.801586
0.805717
0.847828
0.75053
0.805034
0.786345
0.887381
0.857622
0.802972
0.754887
0.807012
0.80433
0.745298
0.805835
0.804683
0.761418
0.808619
0.803533
0.799604
0.803604
0.756135
0.794803
0.816052
0.770075
0.77671
0.786587
0.804059
0.82951
0.812834
0.778329
0.766445
0.803861
0.830453
0.805346
0.80343
0.802301
0.929029
0.865638
0.829372
0.832263
0.73521
0.851494
0.762646
0.830434
0.82507
0.900699
0.831946
0.799036
0.646469
0.831753
0.799278
0.831565
0.799799
0.85177
0.648927
0.841593
0.805071
0.80966
0.810836
0.80746
0.858903
0.803042
0.830366
0.721373
0.665062
0.691004
0.831395
0.635629
0.799631
0.748836
0.84827
0.820306
0.619273
0.812053
0.830778
0.830931
0.737588
0.804579
0.615226
0.799756
0.831087
0.799999
0.804593
0.800353
0.830824
0.841157
0.80388
0.801396
0.830568
0.801776
0.830512
0.819007
0.802175
0.830477
0.829088
0.830468
0.802537
0.830485
0.702891
0.802845
0.83053
0.804416
0.80315
0.830585
0.73314
0.831468
0.799814
0.832197
0.804974
0.823069
0.842255
0.867193
0.802471
0.804539
0.830932
0.819991
0.804079
0.803604
0.866271
0.821774
0.830803
0.823536
0.856159
0.838458
0.8298
0.83022
0.853741
0.831585
0.805968
0.831564
0.820733
0.806487
0.831061
0.803077
0.816761
0.790691
0.811754
0.829692
0.815831