# vtk DataFile Version 1.0
unstructured grid
ascii
DATASET UNSTRUCTURED_GRID
points 3920 float
-1 0 0
-1 1 0
2 0 0
2 1 0
0 0 0
1 0 0
-1 1 0.1
-1 0 0.1
0 0 0.1
1 0 0.1
2 0 0.1
2 1 0.1
-0.98 0 0
-0.96 0 0
-0.94 0 0
-0.92 0 0
-0.9 0 0
-0.88 0 0
-0.86 0 0
-0.84 0 0
-0.82 0 0
-0.8 0 0
-0.78 0 0
-0.76 0 0
-0.74 0 0
-0.72 0 0
-0.7 0 0
-0.68 0 0
-0.66 0 0
-0.64 0 0
-0.62 0 0
-0.6 0 0
-0.58 0 0
-0.56 0 0
-0.54 0 0
-0.52 0 0
-0.5 0 0
-0.48 0 0
-0.46 0 0
-0.44 0 0
-0.42 0 0
-0.4 0 0
-0.38 0 0
-0.36 0 0
-0.34 0 0
-0.32 0 0
-0.3 0 0
-0.28 0 0
-0.26 0 0
-0.24 0 0
-0.22 0 0
-0.2 0 0
-0.18 0 0
-0.16 0 0
-0.14 0 0
-0.12 0 0
-0.1 0 0
-0.08 0 0
-0.06 0 0
-0.04 0 0
-0.02 0 0
1.02 0 0
1.04 0 0
1.06 0 0
1.08 0 0
1.1 0 0
1.12 0 0
1.14 0 0
1.16 0 0
1.18 0 0
1.2 0 0
1.22 0 0
1.24 0 0
1.26 0 0
1.28 0 0
1.3 0 0
1.32 0 0
1.34 0 0
1.36 0 0
1.38 0 0
1.4 0 0
1.42 0 0
1.44 0 0
1.46 0 0
1.48 0 0
1.5 0 0
1.52 0 0
1.54 0 0
1.56 0 0
1.58 0 0
1.6 0 0
1.62 0 0
1.64 0 0
1.66 0 0
1.68 0 0
1.7 0 0
1.72 0 0
1.74 0 0
1.76 0 0
1.78 0 0
1.8 0 0
1.82 0 0
1.84 0 0
1.86 0 0
1.88 0 0
1.9 0 0
1.92 0 0
1.94 0 0
1.96 0 0
1.98 0 0
2 0.0199133 0
2 0.0414128 0
2 0.0646247 0
2 0.0896856 0
2 0.116743 0
2 0.145955 0
2 0.177494 0
2 0.211545 0
2 0.248309 0
2 0.288001 0
2 0.330854 0
2 0.377121 0
2 0.427073 0
2 0.481004 0
2 0.539231 0
2 0.602096 0
2 0.669968 0
2 0.743247 0
2 0.822362 0
2 0.907779 0
1.9 1 0
1.8 1 0
1.7 1 0
1.6 1 0
1.5 1 0
1.4 1 0
1.3 1 0
1.2 1 0
1.1 1 0
1 1 0
0.9 1 0
0.8 1 0
0.7 1 0
0.6 1 0
0.5 1 0
0.4 1 0
0.3 1 0
0.2 1 0
0.1 1 0
3.69793e-12 1 0
-0.1 1 0
-0.2 1 0
-0.3 1 0
-0.4 1 0
-0.5 1 0
-0.6 1 0
-0.7 1 0
-0.8 1 0
-0.9 1 0
-1 0.907779 0
-1 0.822362 0
-1 0.743247 0
-1 0.669968 0
-1 0.602096 0
-1 0.539231 0
-1 0.481004 0
-1 0.427073 0
-1 0.377121 0
-1 0.330854 0
-1 0.288001 0
-1 0.248309 0
-1 0.211545 0
-1 0.177494 0
-1 0.145955 0
-1 0.116743 0
-1 0.0896856 0
-1 0.0646247 0
-1 0.0414128 0
-1 0.0199133 0
0.0182781 0.00745351 0
0.0366672 0.0146286 0
0.0551632 0.0215237 0
0.0737617 0.0281372 0
0.0924585 0.0344675 0
0.111249 0.0405131 0
0.13013 0.0462728 0
0.149095 0.0517451 0
0.168142 0.0569289 0
0.187265 0.0618228 0
0.20646 0.0664258 0
0.225723 0.0707368 0
0.245049 0.0747549 0
0.264434 0.078479 0
0.283873 0.0819084 0
0.303362 0.0850422 0
0.322896 0.0878798 0
0.342472 0.0904204 0
0.362083 0.0926635 0
0.381726 0.0946086 0
0.401397 0.0962552 0
0.42109 0.0976029 0
0.440802 0.0986514 0
0.460527 0.0994006 0
0.480261 0.0998501 0
0.5 0.1 0
0.519739 0.0998501 0
0.539473 0.0994006 0
0.559198 0.0986514 0
0.57891 0.0976029 0
0.598603 0.0962552 0
0.618274 0.0946086 0
0.637917 0.0926635 0
0.657528 0.0904204 0
0.677104 0.0878798 0
0.696638 0.0850422 0
0.716127 0.0819084 0
0.735566 0.078479 0
0.754951 0.0747549 0
0.774277 0.0707368 0
0.79354 0.0664258 0
0.812735 0.0618228 0
0.831858 0.0569289 0
0.850905 0.0517451 0
0.86987 0.0462728 0
0.888751 0.0405131 0
0.907542 0.0344675 0
0.926238 0.0281372 0
0.944837 0.0215237 0
0.963333 0.0146286 0
0.981722 0.00745351 0
-1 0.907779 0.1
-1 0.822362 0.1
-1 0.743247 0.1
-1 0.669968 0.1
-1 0.602096 0.1
-1 0.539231 0.1
-1 0.481004 0.1
-1 0.427073 0.1
-1 0.377121 0.1
-1 0.330854 0.1
-1 0.288001 0.1
-1 0.248309 0.1
-1 0.211545 0.1
-1 0.177494 0.1
-1 0.145955 0.1
-1 0.116743 0.1
-1 0.0896856 0.1
-1 0.0646247 0.1
-1 0.0414128 0.1
-1 0.0199133 0.1
-0.98 0 0.1
-0.96 0 0.1
-0.94 0 0.1
-0.92 0 0.1
-0.9 0 0.1
-0.88 0 0.1
-0.86 0 0.1
-0.84 0 0.1
-0.82 0 0.1
-0.8 0 0.1
-0.78 0 0.1
-0.76 0 0.1
-0.74 0 0.1
-0.72 0 0.1
-0.7 0 0.1
-0.68 0 0.1
-0.66 0 0.1
-0.64 0 0.1
-0.62 0 0.1
-0.6 0 0.1
-0.58 0 0.1
-0.56 0 0.1
-0.54 0 0.1
-0.52 0 0.1
-0.5 0 0.1
-0.48 0 0.1
-0.46 0 0.1
-0.44 0 0.1
-0.42 0 0.1
-0.4 0 0.1
-0.38 0 0.1
-0.36 0 0.1
-0.34 0 0.1
-0.32 0 0.1
-0.3 0 0.1
-0.28 0 0.1
-0.26 0 0.1
-0.24 0 0.1
-0.22 0 0.1
-0.2 0 0.1
-0.18 0 0.1
-0.16 0 0.1
-0.14 0 0.1
-0.12 0 0.1
-0.1 0 0.1
-0.08 0 0.1
-0.06 0 0.1
-0.04 0 0.1
-0.02 0 0.1
0.0182781 0.00745351 0.1
0.0366672 0.0146286 0.1
0.0551632 0.0215237 0.1
0.0737617 0.0281372 0.1
0.0924585 0.0344675 0.1
0.111249 0.0405131 0.1
0.13013 0.0462728 0.1
0.149095 0.0517451 0.1
0.168142 0.0569289 0.1
0.187265 0.0618228 0.1
0.20646 0.0664258 0.1
0.225723 0.0707368 0.1
0.245049 0.0747549 0.1
0.264434 0.078479 0.1
0.283873 0.0819084 0.1
0.303362 0.0850422 0.1
0.322896 0.0878798 0.1
0.342472 0.0904204 0.1
0.362083 0.0926635 0.1
0.381726 0.0946086 0.1
0.401397 0.0962552 0.1
0.42109 0.0976029 0.1
0.440802 0.0986514 0.1
0.460527 0.0994006 0.1
0.480261 0.0998501 0.1
0.5 0.1 0.1
0.519739 0.0998501 0.1
0.539473 0.0994006 0.1
0.559198 0.0986514 0.1
0.57891 0.0976029 0.1
0.598603 0.0962552 0.1
0.618274 0.0946086 0.1
0.637917 0.0926635 0.1
0.657528 0.0904204 0.1
0.677104 0.0878798 0.1
0.696638 0.0850422 0.1
0.716127 0.0819084 0.1
0.735566 0.078479 0.1
0.754951 0.0747549 0.1
0.774277 0.0707368 0.1
0.79354 0.0664258 0.1
0.812735 0.0618228 0.1
0.831858 0.0569289 0.1
0.850905 0.0517451 0.1
0.86987 0.0462728 0.1
0.888751 0.0405131 0.1
0.907542 0.0344675 0.1
0.926238 0.0281372 0.1
0.944837 0.0215237 0.1
0.963333 0.0146286 0.1
0.981722 0.00745351 0.1
1.02 0 0.1
1.04 0 0.1
1.06 0 0.1
1.08 0 0.1
1.1 0 0.1
1.12 0 0.1
1.14 0 0.1
1.16 0 0.1
1.18 0 0.1
1.2 0 0.1
1.22 0 0.1
1.24 0 0.1
1.26 0 0.1
1.28 0 0.1
1.3 0 0.1
1.32 0 0.1
1.34 0 0.1
1.36 0 0.1
1.38 0 0.1
1.4 0 0.1
1.42 0 0.1
1.44 0 0.1
1.46 0 0.1
1.48 0 0.1
1.5 0 0.1
1.52 0 0.1
1.54 0 0.1
1.56 0 0.1
1.58 0 0.1
1.6 0 0.1
1.62 0 0.1
1.64 0 0.1
1.66 0 0.1
1.68 0 0.1
1.7 0 0.1
1.72 0 0.1
1.74 0 0.1
1.76 0 0.1
1.78 0 0.1
1.8 0 0.1
1.82 0 0.1
1.84 0 0.1
1.86 0 0.1
1.88 0 0.1
1.9 0 0.1
1.92 0 0.1
1.94 0 0.1
1.96 0 0.1
1.98 0 0.1
2 0.0199133 0.1
2 0.0414128 0.1
2 0.0646247 0.1
2 0.0896856 0.1
2 0.116743 0.1
2 0.145955 0.1
2 0.177494 0.1
2 0.211545 0.1
2 0.248309 0.1
2 0.288001 0.1
2 0.330854 0.1
2 0.377121 0.1
2 0.427073 0.1
2 0.481004 0.1
2 0.539231 0.1
2 0.602096 0.1
2 0.669968 0.1
2 0.743247 0.1
2 0.822362 0.1
2 0.907779 0.1
1.9 1 0.1
1.8 1 0.1
1.7 1 0.1
1.6 1 0.1
1.5 1 0.1
1.4 1 0.1
1.3 1 0.1
1.2 1 0.1
1.1 1 0.1
1 1 0.1
0.9 1 0.1
0.8 1 0.1
0.7 1 0.1
0.6 1 0.1
0.5 1 0.1
0.4 1 0.1
0.3 1 0.1
0.2 1 0.1
0.1 1 0.1
3.69793e-12 1 0.1
-0.1 1 0.1
-0.2 1 0.1
-0.3 1 0.1
-0.4 1 0.1
-0.5 1 0.1
-0.6 1 0.1
-0.7 1 0.1
-0.8 1 0.1
-0.9 1 0.1
1.08758 0.0158154 0
-0.0898513 0.0203294 0
0.0966181 0.0537636 0
0.90205 0.0548881 0
1.21055 0.0202058 0
-0.209811 0.0159577 0
1.3305 0.0176902 0
-0.33 0.0173205 0
1.45324 0.0148141 0
-0.448654 0.0159854 0
1.56842 0.0191785 0
-0.569936 0.0166364 0
0.193292 0.0805369 0
0.805051 0.0813623 0
0.709096 0.100353 0
0.288591 0.0996656 0
0.390184 0.111848 0
0.61033 0.111742 0
0.488809 0.116278 0
1.67175 0.0169692 0
-0.67 0.0169809 0
-0.955017 0.454039 0
1.95131 0.44569 0
1.74981 0.0168753 0
-0.75 0.0173205 0
-0.968032 0.266538 0
1.96871 0.266267 0
0.978232 0.0305687 0
0.0208675 0.026451 0
-0.150454 0.91842 0
1.13854 0.907437 0
1.45012 0.904365 0
-0.445923 0.908903 0
-0.853423 0.0157019 0
1.84881 0.016319 0
0.853689 0.915652 0
0.153944 0.912184 0
0.545151 0.914125 0
0.549913 0.115152 0
1.51 0.0173205 0
-0.506989 0.01651 0
1.27 0.0173205 0
1.14976 0.0173333 0
-0.268171 0.0206442 0
-0.150501 0.0153244 0
-0.391384 0.0153993 0
1.38886 0.0171544 0
-0.973694 0.161724 0
1.97441 0.162392 0
-0.945221 0.633523 0
1.94544 0.63312 0
1.91008 0.0186068 0
-0.91 0.0169616 0
-0.030664 0.0194327 0
1.03074 0.0165456 0
-0.966065 0.353575 0
1.96128 0.359765 0
1.93879 0.781254 0
-0.937057 0.781882 0
-0.980746 0.080709 0
1.9772 0.0760699 0
0.058735 0.0409372 0
0.355202 0.913001 0
0.86356 0.0661005 0
0.134223 0.0651111 0
0.941972 0.0397386 0
-0.653034 0.915003 0
1.65328 0.904589 0
0.770126 0.0881325 0
0.232946 0.0902008 0
0.330582 0.105648 0
0.670612 0.108365 0
0.428707 0.116145 0
1.80993 0.016629 0
-0.810168 0.0172178 0
-0.71 0.0173205 0
1.63047 0.0175504 0
1.70842 0.0169661 0
-0.628824 0.0181787 0
-0.949815 0.0133898 0
1.95 0.0173205 0
1.85542 0.907891 0
-0.85 0.913397 0
1.9833 0.0307692 0
-0.983315 0.0309709 0
-0.750025 0.916468 0
-0.701107 0.836904 0
-0.607741 0.836428 0
-0.656448 0.759827 0
-0.572936 0.758144 0
-0.61411 0.691195 0
-0.539534 0.689068 0
-0.578542 0.626111 0
-0.507461 0.624216 0
-0.544001 0.566638 0
-0.477696 0.564279 0
-0.511582 0.51001 0
-0.451689 0.507147 0
-0.481834 0.457732 0
-0.426137 0.454624 0
-0.453236 0.407539 0
-0.398845 0.406233 0
-0.507958 0.409496 0
-0.368427 0.460177 0
-0.344602 0.405209 0
-0.315696 0.447824 0
-0.294128 0.402169 0
-0.262844 0.444518 0
-0.241968 0.388746 0
-0.209878 0.439557 0
-0.185184 0.391135 0
-0.156687 0.437338 0
-0.133719 0.390776 0
-0.104405 0.434306 0
-0.0818745 0.388334 0
-0.0528785 0.431165 0
-0.0305984 0.385639 0
-0.00180552 0.427863 0
0.0194564 0.382608 0
0.0485809 0.42449 0
0.0701962 0.37973 0
0.0985483 0.421145 0
0.119893 0.377339 0
0.147837 0.417911 0
0.172552 0.36751 0
0.197018 0.412597 0
0.221203 0.37141 0
0.24512 0.409646 0
-0.48178 0.364657 0
-0.531053 0.364782 0
-0.0599102 0.344151 0
-0.324909 0.359566 0
0.266181 0.368462 0
0.292132 0.407649 0
0.311992 0.365779 0
0.338918 0.404821 0
0.357567 0.355909 0
0.384723 0.40053 0
0.404675 0.359681 0
0.430617 0.398558 0
0.450457 0.35827 0
0.474237 0.395182 0
0.496746 0.34898 0
0.520548 0.397931 0
0.542071 0.353121 0
0.566011 0.389914 0
0.585061 0.350856 0
0.609352 0.38696 0
0.629069 0.348168 0
0.655979 0.391217 0
0.67472 0.346182 0
0.699346 0.381414 0
0.719333 0.341965 0
0.743718 0.377547 0
0.764028 0.339036 0
0.788201 0.373582 0
0.807659 0.336101 0
0.832821 0.372249 0
0.852309 0.334017 0
0.877785 0.370339 0
0.897875 0.331141 0
0.922904 0.366281 0
0.943173 0.327335 0
0.968282 0.363358 0
0.989029 0.324222 0
1.01391 0.361511 0
1.03465 0.321428 0
1.05949 0.358447 0
1.08389 0.312052 0
1.10575 0.355104 0
1.12889 0.31562 0
1.15067 0.353235 0
1.17157 0.312819 0
1.19626 0.349369 0
1.21618 0.309863 0
1.2416 0.346914 0
1.26131 0.30715 0
1.28691 0.344312 0
1.30571 0.303752 0
1.33144 0.341222 0
1.35018 0.300911 0
1.3758 0.338308 0
1.39501 0.298931 0
1.42015 0.335235 0
1.43904 0.296349 0
1.46355 0.330194 0
1.48256 0.293347 0
1.50685 0.326967 0
1.52589 0.29055 0
1.54996 0.325305 0
1.56909 0.287929 0
[...]
CELL_DATA 3694
SCALARS rho float
LOOKUP_TABLE default
0.744014
0.685813
0.804209
0.822199
0.831934
0.805622
0.792747
0.800917
0.818182
0.803321
0.825363
0.825353
0.840882
0.790712
0.801655
0.762042
0.803659
0.803554
0.770276
0.85358
0.823465
0.829818
0.717828
0.803836
0.714812
0.83985
0.723255
0.807223
0.837567
0.799387
0.799558
0.721054
0.804023
0.825357
0.80356
0.804853
0.841052
0.829502
0.830389
0.779125
0.805166
0.817932
0.834932
0.825931
0.805821
0.822127
0.801828
0.688671
0.691519
0.736966
0.802522
0.803163
0.850487
0.80273
0.668615
0.841971
0.803392
0.825396
0.83292
0.76188
0.79725
0.824617
0.846566
0.800529
0.847376
0.836404
0.808457
0.82295
0.737671
0.861969
0.803419
0.80809
0.829839
0.803624
0.830858
0.803158
0.814622
0.80043
0.822219
0.803165
0.727433
0.819138
0.802748
0.777791
0.817482
0.800398
0.82478
0.7278
0.737029
0.830081
0.805764
0.803024
0.821246
0.821699
0.686767
0.807054
0.732111
0.82568
0.821075
0.844551
0.823543
0.772518
0.71867
0.817835
0.816917
0.82461
0.825682
0.807543
0.721601
0.822391
0.800006
0.738379
0.721201
0.828448
0.871071
0.802837
0.806437
0.820893
0.803413
0.802733
0.767621
0.822945
0.826445
0.777452
0.704019
0.763098
0.825174
0.785388
0.847279
0.719043
0.76922
0.80122
0.808455
0.780336
0.80194
0.801813
0.805972
0.802847
0.798812
0.823432
0.821985
0.724951
0.824924
0.822892
0.762147
0.690947
0.68885
0.798975
0.824649
0.813572
0.753688
0.803136
0.604751
0.785538
0.703731
0.773319
0.723125
0.790568
0.627331
0.794285
0.837716
0.659909
0.78423
0.745819
0.848782
0.601488
0.817831
0.801282
0.803865
0.685664
0.80183
0.679463
0.861539
0.627107
0.800607
0.672207
0.872756
0.838893
0.827287
0.746294
0.822118
0.722602
0.833202
0.739269
0.663206
0.803414
0.670316
0.830041
0.802149
0.855094
0.792919
0.702125
0.824423
0.799236
0.74977
0.853314
0.811903
0.852325
0.745298
0.752551
0.774117
0.800113
0.837444
0.834477
0.817242
0.823183
0.686905
0.805129
0.740138
0.803545
0.726132
0.803079
0.796416
0.802185
0.832149
0.773374
0.836296
0.757421
0.832104
0.826278
0.824637
0.853485
0.829802
0.722795
0.83333
0.677202
0.789438
0.816989
0.855265
0.835808
0.816354
0.795417
0.754473
0.82562
0.841681
0.825486
0.729304
0.806732
0.706914
0.799307
0.796277
0.817447
0.664845
0.808306
0.767242
0.798743
0.80337
0.767677
0.824485
0.866102
0.785126
0.689889
0.805127
0.802626
0.662278
0.800034
0.780652
0.802569
0.842859
0.824327
0.629181
0.824387
0.810729
0.804411
0.824472
0.803102
0.815789
0.820267
0.835872
0.764645
0.802359
0.840296
0.811385
0.803397
0.797098
0.824568
0.729424
0.609726
0.824857
0.829927
0.827591
0.805207
0.705752
0.82447
0.82435
0.823257
0.728682
0.802956
0.824614
0.631373
0.803187
0.871834
0.673638
0.767257
0.843537
0.831984
0.824449
0.705277
0.809953
0.824621
0.804329
0.802475
0.812647
0.840585
0.818174
0.770606
0.807579
0.80342
0.661242
0.828217
0.834052
0.689477
0.798214
0.826539
0.82128
0.693854
0.660357
0.828553
0.830579
0.810076
0.734428
0.719595
0.726071
0.74552
0.827547
0.785216
0.804686
0.745698
0.74332
0.82927
0.817836
0.820008
0.777569
0.824481
0.823031
0.825427
0.824101
0.80311
0.808287
0.804842
0.688655
0.803086
0.813492
0.715178
0.808167
0.80564
0.826983
0.787591
0.80661
0.79316
0.824518
0.828211
0.827562
0.799155
0.706618
0.7281
0.800142
0.811381
0.653613
0.804385
0.80849
0.817775
0.750995
0.804787
0.824293
0.820485
0.825745
0.805553
0.798196
0.773235
0.805353
0.848274
0.82087
0.70548
0.804455
0.721129
0.704528
0.803625
0.631317
0.773873
0.786597
0.808587
0.823138
0.831045
0.824974
0.818529
0.82757
0.834232
0.803111
0.773328
0.810295
0.677749
0.826669
0.765633
0.74124
0.706179
0.82316
0.85732
0.826688
0.80976
0.822705
0.82446
0.788599
0.767919
0.817888
0.704024
0.792382
0.84765
0.82686
0.801348
0.867499
0.813867
0.823729
0.825609
0.83125
0.657288
0.805766
0.744787
0.798864
0.736674
0.824856
0.809197
0.793924
0.672584
0.824302
0.830398
0.82095
0.803497
0.804235
0.830914
0.804357
0.726761
0.791508
0.803354
0.824202
0.821834
0.820846
0.874537
0.834023
0.809901
0.837846
0.697281
0.830223
0.842844
0.824629
0.644078
0.824468
0.809894
0.850096
0.828521
0.803268
0.614034
0.81079
0.715151
0.806632
0.803129
0.813155
0.823231
0.825556
0.805578
0.811763
0.824226
0.739244
0.866429
0.802483
0.854463
0.824424
0.612099
0.804384
0.797722
0.820358
0.825671
0.685154
0.803134
0.810175
0.813618
0.807652
0.794835
0.824516
0.825225
0.803686
0.804984
0.828454
0.840947
0.744463
0.806833
0.81068
0.821443
0.694714
0.805967
0.823244
0.80017
0.804839
0.627072
0.83862
0.773602
0.824357
0.825691
0.836588
0.850271
0.824083
0.820756
0.729723
0.799892
0.855733
0.81661
0.719907
0.801015
0.80283
0.875117
0.84992
0.826707
0.802537
0.810246
0.763332
0.824221
0.814632
0.608433
0.803336
0.744737
0.752975
0.803874
0.820345
0.782567
0.822124
0.82429
0.838723
0.823493
0.801132
0.816064
0.73945
0.746968
0.804687
0.815779
0.827496
0.803069
0.754595
0.708126
0.823126
0.815925
0.814496
0.617261
0.823033
0.822589
0.831361
0.803627
0.815441
0.826617
0.812329
0.844559
0.803349
0.813188
0.829702
0.82451
0.823272
0.826903
0.710689
0.78594
0.801097
0.803679
0.852119
0.802338
0.808768
0.650878
0.816647
0.822093
0.81153
0.826721
0.806333
0.822627
0.736224
0.848396
0.706752
0.801306
0.825481
0.807813
0.687993
0.67093
0.816372
0.806241
0.805081
0.793093
0.801848
0.835198
0.821405
0.80554
0.802929
0.820557
0.636118
0.821315
0.803892
0.71821
0.823082
0.663443
0.792241
0.823923
0.841811
0.81379
0.821874
0.800263
0.802019
0.804899
0.801773
0.8211
0.811884
0.81732
0.803586
0.758566
0.804548
0.822053
0.821442
0.822393
0.820697
0.824518
0.824332
0.838395
0.74976
0.807453
0.824312
0.803297
0.576935
0.705767
0.81226
0.822835
0.824255
0.781949
0.809402
0.813763
0.804033
0.800597
0.803528
0.825545
0.826563
0.824347
0.7926
0.815088
0.813575
0.648079
0.777306
0.763731
0.811817
0.744198
0.701784
0.79863
0.770938
0.833757
0.824594
0.824177
0.808972
0.574331
0.816567
0.606906
0.717434
0.831324
0.872454
0.754608
0.824613
0.856958
0.709586
0.823795
0.809664
0.815592
0.807992
0.671319
0.858633
0.739299
0.745216
0.803954
0.805128
0.800418
0.833746
0.824462
0.705432
0.821099
0.800713
0.714052
0.844651
0.799212
0.641466
0.776307
0.824353
0.815835
0.824158
0.785557
0.74011
0.779425
0.837532
0.700086
0.824659
0.824052
0.833308
0.772574
0.829147
0.710791
0.805157
0.674906
0.71153
0.806209
0.823606
0.796488
0.824322
0.824288
0.824376
0.823708
0.605384
0.802955
0.824655
0.751634
0.810628
0.824257
0.821084
0.714719
0.686319
0.7497
0.650642
0.808032
0.697237
0.824546
0.802429
0.824363
0.837469
0.683463
0.81046
0.826454
0.836698
0.751629
0.789465
0.766073
0.779945
0.819709
0.647665
0.666088
0.824444
0.805917
0.819542
0.805129
0.728702
0.786898
0.73705
0.76172
0.800701
0.837726
0.81301
0.702285
0.830253
0.823552
0.819771
0.708856
0.687544
0.698661
0.875199
0.824538
0.824047
0.63087
0.721791
0.657504
0.804316
0.801142
0.68549
0.812815
0.829077
0.761244
0.800666
0.739892
0.823111
0.703596
0.824393
0.811115
0.808461
0.803447
0.8301
0.752896
0.82459
0.824546
0.782702
0.622882
0.817334
0.819434
0.764203
0.823622
0.74848
0.803885
0.831744
0.689586
0.82604
0.803088
0.810609
0.614142
0.667781
0.745393
0.806992
0.820529
0.819499
0.828212
0.815803
0.824491
0.714857
0.802446
0.821237
0.832536
0.714193
0.741965
0.821456
0.817979
0.711085
0.815057
0.78125
0.699065
0.812465
0.707232
0.811297
0.676728
0.803093
0.730832
0.686942
0.819507
0.788
0.753992
0.647549
0.844529
0.821588
0.822629
0.77753
0.823916
0.800943
0.792525
0.800902
0.802303
0.822602
0.746539
0.810315
0.800961
0.826531
0.620977
0.802377
0.820756
0.821536
0.819765
0.820147
0.752823
0.809214
0.767486
0.757343
0.826206
0.675474
0.826058
0.825307
0.803427
0.823386
0.82458
0.735219
0.769641
0.82907
0.792387
0.804295
0.823919
0.877658
0.825073
0.806023
0.825157
0.824433
0.794976
0.826311
0.823887
0.776664
0.719272
0.846204
0.797907
0.803521
0.823251
0.787688
0.825779
0.825186
0.826426
0.825178
0.873648
0.803457
0.805763
0.82611
0.80343
0.824186
0.80757
0.745901
0.824034
0.827247
0.754944
0.726937
0.823841
0.843881
0.822939
0.687026
0.828904
0.776823
0.816408
0.80285
0.740696
0.803334
0.799716
0.816224
0.8242
0.704632
0.723774
0.803021
0.788845
0.802707
0.829447
0.722102
0.824509
0.803269
0.801304
0.827997
0.824472
0.729783
0.824264
0.76763
0.803024
0.833042
0.803961
0.781115
0.798715
0.795414
0.824207
0.656312
0.824618
0.6894
0.702353
0.804048
0.827122
0.824548
0.803197
0.82429
0.814524
0.738679
0.788808
0.860977
0.803348
0.837789
0.808076
0.607638
0.763309
0.788365
0.6723
0.750064
0.60755
0.824849
0.822975
0.820194
0.802939
0.768905
0.700509
0.773736
0.753567
0.784324
0.824599
0.845315
0.826993
0.806434
0.819766
0.82832
0.803511
0.80866
0.717707
0.803873
0.763988
0.809263
0.798947
0.762216
0.827937
0.790111
0.804178
0.797685
0.845118
0.733756
0.801723
0.800543
0.805482
0.633911
0.824464
0.824406
0.822724
0.663649
0.824348
0.824216
0.799574
0.804402
0.794498
0.783684
0.807427
0.802
0.824666
0.75433
0.811085
0.877891
0.767975
0.7583
0.814176
0.785179
0.847437
0.807178
0.78816
0.82236
0.799018
0.793898
0.808656
0.832115
0.841149
0.800418
0.600556
0.827596
0.834157
0.774247
0.83666
0.842909
0.829567
0.832456
0.8079
0.838242
0.833194
0.785348
0.809985
0.820152
0.813894
0.829641
0.803883
0.827695
0.794125
0.804386
0.806493
0.739952
0.807777
0.59153
0.825792
0.831868
0.834758
0.806844
0.818975
0.830656
0.820015
0.828083
0.843928
0.838768
0.795588
0.801118
0.828808
0.823676
0.825159
0.801188
0.806985
0.868829
0.827465
0.851842
0.823598
0.801519
0.825007
0.80068
0.833837
0.821741
0.822494
0.80586
0.738576
0.803476
0.805073
0.824104
0.803814
0.807644
0.822529
0.805372
0.804716
0.780384
0.820232
0.724228
0.815067
0.788746
0.763617
0.804092
0.813925
0.819376
0.730859
0.826901
0.815815
0.826895
0.824896
0.795787
0.824803
0.847666
0.833773
0.820912
0.812384
0.802285
0.754967
0.701375
0.824488
0.821248
0.779463
0.822306
0.808502
0.820191
0.806179
0.799535
0.778538
0.80288
0.800909
0.845881
0.825434
0.812238
0.807037
0.623713
0.741147
0.802743
0.791026
0.804875
0.823763
0.806683
0.824693
0.782187
0.824463
0.805548
0.819305
0.804486
0.825576
0.803413
0.824594
0.819169
0.824136
0.82087
0.731726
0.822149
0.824521
0.618536
0.824309
0.797746
0.803713
0.862452
0.825408
0.819149
0.875321
0.823936
0.824094
0.825129
0.826466
0.823016
0.767685
0.830531
0.802255
0.803694
0.821948
0.824124
0.825071
0.824254
0.821027
0.823566
0.80438
0.820274
0.80975
0.816064
0.820532
0.824329
0.81973
0.826596
0.80946
0.690888
0.679508
0.803188
0.809551
0.803855
0.819405
0.82582
0.824585
0.803407
0.804898
0.801452
0.801583
0.824686
0.848282
0.826301
0.812413
0.826013
0.826008
0.846534
0.825043
0.821813
0.787436
0.823639
0.807309
0.80237
0.79332
0.818188
0.82611
0.824181
0.823721
0.836211
0.813253
0.821982
0.824313
0.822144
0.804002
0.803837
0.806021
0.819667
0.824162
0.802218
0.810103
0.825128
0.823003
0.801677
0.652653
0.804727
0.80258
0.818069
0.799485
0.803145
0.756347
0.845789
0.803277
0.800585
0.840273
0.835726
0.810888
0.83262
0.801288
0.825706
0.824426
0.826389
0.804069
0.826054
0.743061
0.829278
0.811992
0.800984
0.813811
0.827817
0.799928
0.8045
0.790046
0.815704
0.824421
0.824465
0.826182
0.806937
0.825265
0.824407
0.831403
0.822403
0.842889
0.806641
0.705941
0.82556
0.844522
0.827212
0.805326
0.800798
0.804072
0.823165
0.814768
0.824411
0.747466
0.75177
0.801599
0.803443
0.824169
0.824129
0.806341
0.677529
0.71841
0.808526
0.769981
0.824576
0.707197
0.803311
0.737421
0.803441
0.820716
0.80335
0.825361
0.821461
0.799076
0.809246
0.800665
0.830137
0.824448
0.802048
0.80411
0.823953
0.828503
0.759366
0.828387
0.804226
0.784079
0.824385
0.804364
0.811399
0.824245
0.824116
0.840365
0.799988
0.799801
0.824324
0.766374
0.807358
0.824292
0.801518
0.82427
0.841479
0.802993
0.84758
0.814497
0.796315
0.821061
0.802811
0.852237
0.789561
0.803461
0.824646
0.83739
0.808875
0.822773
0.824359
0.803372
0.803013
0.826344
0.788937
0.823279
0.82417
0.677354
0.82429
0.722313
0.818096
0.842977
0.830841
0.804738
0.823875
0.824385
0.736086
0.824212
0.801818
0.802093
0.801637
0.824107
0.867227
0.801942
0.801816
0.787175
0.845658
0.828234
0.82683
0.821581
0.755104
0.81003
0.803464
0.739949
0.800479
0.724467
0.818971
0.801242
0.68967
0.88268
0.712351
0.773307
0.802395
0.754386
0.808872
0.79982
0.80321
0.675069
0.797401
0.785921
0.799933
0.743866
0.826221
0.829347
0.886768
0.809932
0.832007
0.661026
0.800898
0.793085
0.757027
0.759052
0.778407
0.722222
0.803487
0.800254
0.803565
0.768705
0.646033
0.812035
0.634528
0.827223
0.827355
0.811959
0.740091
0.81754
0.803045
0.825847
0.784869
0.815069
0.797752
0.81831
0.726416
0.802172
0.733542
0.802018
0.799647
0.707577
0.804336
0.824498
0.824498
0.80337
0.768786
0.824123
0.732686
0.702499
0.802799
0.824527
0.877294
0.824517
0.823294
0.882904
0.868333
0.835158
0.717103
0.8026
0.812361
0.822127
0.804831
0.702817
0.731958
0.700371
0.802572
0.701604
0.772653
0.800198
0.655826
0.68599
0.840255
0.781195
0.754987
0.835993
0.767801
0.77018
0.670273
0.742224
0.792047
0.825608
0.872297
0.842036
0.824336
0.80104
0.800456
0.728265
0.824444
0.705747
0.797659
0.824581
0.784318
0.770038
0.807817
0.789703
0.802693
0.801446
0.820104
0.811561
0.870148
0.650711
0.602562
0.802935
0.813007
0.713094
0.810915
0.803248
0.841961
0.803866
0.802758
0.601098
0.626467
0.808867
0.820858
0.824458
0.741514
0.803427
0.816538
0.701478
0.820185
0.803093
0.823389
0.803399
0.806109
0.802648
0.823838
0.803227
0.817339
0.80373
0.865432
0.824193
0.802861
0.721867
0.690252
0.824056
0.616917
0.818841
0.810857
0.840566
0.821795
0.803534
0.81124
0.822885
0.821647
0.824508
0.80211
0.854329
0.860202
0.803183
0.680566
0.815608
0.822638
0.799868
0.803447
0.826125
0.74848
0.803431
0.830428
0.827167
0.823528
0.824047
0.773644
0.746457
0.801798
0.838959
0.803831
0.820581
0.80544
0.804669
0.80597
0.82348
0.809703
0.79971
0.807379
0.806937
0.825079
0.807173
0.806752
0.825371
0.807751
0.80352
0.822615
0.803113
0.803138
0.806275
0.808709
0.82271
0.776928
0.805794
0.802937
0.824674
0.800452
0.804175
0.807389
0.837067
0.805482
0.678938
0.801451
0.823445
0.805092
0.815171
0.767501
0.823423
0.757317
0.804043
0.802622
0.804478
0.819578
0.855123
0.804789
0.803436
0.747948
0.8351
0.824505
0.827324
0.825147
0.821759
0.746683
0.825684
0.736524
0.801674
0.833362
0.802861
0.718239
0.831855
0.821237
0.824736
0.830381
0.824449
0.776432
0.825107
0.681301
0.728613
0.824564
0.829115
0.702514
0.826717
0.67295
0.828151
0.8078
0.824862
0.80337
0.806603
0.821616
0.832331
0.825336
0.661209
0.822544
0.846799
0.783707
0.850727
0.800639
0.725259
0.843561
0.826866
0.840863
0.711457
0.707509
0.838442
0.690087
0.836387
0.824493
0.834585
0.806881
0.833079
0.78934
0.831776
0.83058
0.726313
0.868991
0.82957
0.828733
0.823894
0.767841
0.803246
0.610188
0.81036
0.828022
0.822651
0.805429
0.83215
0.824713
0.798951
0.827408
0.803268
0.704276
0.793643
0.834724
0.823803
0.732443
0.806484
0.821896
0.615171
0.823977
0.824498
0.803424
0.810463
0.740655
0.823882
0.803266
0.803841
0.796884
0.801344
0.798876
0.795494
0.803416
0.822111
0.819718
0.822978
0.598782
0.894956
0.71918
0.798631
0.751929
0.792658
0.824671
0.824498
0.824498
0.627625
0.825983
0.817646
0.804553
0.824683
0.837251
0.839947
0.784475
0.798971
0.800098
0.741059
0.763328
0.824462
0.771383
0.815666
0.826546
0.824034
0.814008
0.802192
0.783751
0.812589
0.82468
0.734672
0.811166
0.824577
0.82596
0.808496
0.810057
0.774057
0.824177
0.808812
0.803508
0.808051
0.640565
0.807141
0.804975
0.806556
0.828267
0.84593
0.805356
0.783269
0.805923
0.773722
0.827435
0.813369
0.822427
0.824696
0.850494
0.8038
0.748318
0.820245
0.824472
0.737711
0.801952
0.824768
0.761383
0.822348
0.595385
0.807314
0.697384
0.802265
0.816201
0.821102
0.825377
0.804725
0.822332
0.825348
0.801874
0.805437
0.844922
0.824625
0.797149
0.823772
0.803109
0.802684
0.801075
0.802096
0.81405
0.824067
0.802451
0.779317
0.826098
0.817986
0.809422
0.824692
0.611388
0.804164
0.814161
0.824428
0.795219
0.758816
0.719031
0.82216
0.824529
0.83215
0.797263
0.625753
0.77861
0.668346
0.825062
0.746006
0.821927
0.831012
0.716808
0.800559
0.839169
0.761491
0.801111
0.803468
0.823994
0.807769
0.710068
0.801481
0.597569
0.802647
0.803024
0.802617
0.652329
0.803274
0.803888
0.803572
0.737586
0.746594
0.803814
0.783372
0.824519
0.732189
0.717646
0.824225
0.801897
0.760903
0.857469
0.823393
0.821934
0.683958
0.803264
0.801277
0.801251
0.802887
0.67549
0.803772
0.824394
0.670296
0.698479
0.806555
0.796679
0.82446
0.827832
0.823715
0.823989
0.824712
0.804066
0.824437
0.823582
0.818478
0.829889
0.803422
0.802494
0.811229
0.742337
0.810096
0.823442
0.865808
0.816416
0.656214
0.783624
0.802776
0.778543
0.82497
0.820349
0.834445
0.814955
0.86762
0.803006
0.823334
0.6202
0.816522
0.838227
0.803241
0.823846
0.645351
0.823317
0.802942
0.824931
0.802692
0.825439
0.824473
0.755686
0.804026
0.803365
0.839596
0.865174
0.820283
0.824709
0.725373
0.754579
0.802974
0.803553
0.812962
0.825743
0.800408
0.803374
0.826686
0.813807
0.808105
0.740397
0.803137
0.824946
0.821225
0.772552
0.761618
0.81938
0.797307
0.860628
0.728612
0.839264
0.81882
0.710398
0.800538
0.823196
0.788365
0.801386
0.800442
0.823975
0.784984
0.775524
0.822634
0.69516
0.799579
0.773973
0.823989
0.825397
0.802691
0.794609
0.74908
0.761708
0.78065
0.823948
0.82654
0.813116
0.679612
0.808505
0.802374
0.779323
0.810286
0.822085
0.800383
0.804201
0.666912
0.805018
0.805627
0.855556
0.804163
0.809964
0.838243
0.806295
0.818245
0.8562
0.643777
0.804488
0.82473
0.805936
0.805539
0.806254
0.805052
0.805199
0.804671
0.806369
0.807286
0.736531
0.806291
0.807968
0.813039
0.82326
0.809068
0.824754
0.803385
0.803917
0.823267
0.82324
0.818458
0.803498
0.816662
0.814077
0.816101
0.824382
0.722449
0.822926
0.836726
0.824065
0.858332
0.757649
0.815582
0.824553
0.801984
0.663791
0.803635
0.779115
0.828936
0.642887
0.824445
0.835024
0.824028
0.818285
0.802684
0.827833
0.824434
0.804262
0.771977
0.825157
0.761307
0.583161
0.824028
0.691262
0.711051
0.820764
0.833422
0.833568
0.824909
0.851869
0.643439
0.877223
0.805888
0.831977
0.830567
0.821449
0.700343
0.824332
0.829283
0.824793
0.802187
0.774748
0.822616
0.598328
0.819727
0.847861
0.803559
0.8446
0.828276
0.803402
0.691323
0.843946
0.827438
0.841696
0.801724
0.820643
0.803325
0.839318
0.803331
0.820815
0.837137
0.835221
0.822383
0.830972
0.831432
0.739868
0.687532
0.620594
0.833595
0.832271
0.771375
0.762309
0.814072
0.831038
0.847179
0.624693
0.829942
0.829029
0.828283
0.82707
0.804672
0.821166
0.686796
0.752687
0.827643
0.798527
0.870535
0.892314
0.779277
0.811322
0.682337
0.836037
0.742736
0.734583
0.81956
0.802503
0.785542
0.691674
0.80266
0.824308
0.790427
0.729865
0.807849
0.81762
0.799008
0.702818
0.827996
0.794024
0.82451
0.838723
0.815664
0.803147
0.824717
0.824597
0.787367
0.804659
0.729127
0.841058
0.794231
0.818805
0.784155
0.805057
0.714441
0.801467
0.814033
0.812679
0.811525
0.810051
0.808967
0.808216
0.806614
0.805497
0.807405
0.740538
0.806046
0.801999
0.79681
0.803797
0.844852
0.732362
0.80358
0.778199
0.886141
0.854968
0.798731
0.738841
0.804229
0.798477
0.728998
0.803814
0.802576
0.747674
0.804272
0.797615
0.798432
0.801939
0.742796
0.78788
0.811323
0.758704
0.767139
0.778451
0.802252
0.8235
0.809164
0.768737
0.755095
0.800115
0.823234
0.803686
0.798748
0.801732
0.929202
0.863603
0.82492
0.824578
0.724115
0.848698
0.755588
0.82676
0.821328
0.899886
0.824599
0.798241
0.613106
0.824559
0.798365
0.82452
0.798777
0.849211
0.606637
0.8382
0.802012
0.806427
0.805557
0.804622
0.85643
0.801969
0.825346
0.711787
0.646213
0.678795
0.824493
0.591385
0.79874
0.735039
0.845566
0.815697
0.585062
0.807591
0.823896
0.823729
0.728582
0.802562
0.558392
0.79836
0.824472
0.798488
0.803247
0.798729
0.82448
0.838069
0.803396
0.799438
0.824612
0.799704
0.824675
0.815075
0.79999
0.824755
0.822788
0.824861
0.800126
0.824989
0.691185
0.800327
0.825142
0.803408
0.800524
0.825299
0.714743
0.82446
0.799207
0.824654
0.799481
0.818034
0.839045
0.864956
0.801641
0.801608
0.825937
0.816121
0.80125
0.800875
0.864043
0.817653
0.825712
0.818495
0.853688
0.834676
0.8247
0.826545
0.850853
0.824458
0.802744
0.826845
0.816711
0.803172
0.82421
0.801055
0.8127
0.78432