# vtk DataFile Version 1.0
unstructured grid
ascii
DATASET UNSTRUCTURED_GRID
points 3920 float
-1 0 0
-1 1 0
2 0 0
2 1 0
0 0 0
1 0 0
-1 1 0.1
-1 0 0.1
0 0 0.1
1 0 0.1
2 0 0.1
2 1 0.1
-0.98 0 0
-0.96 0 0
-0.94 0 0
-0.92 0 0
-0.9 0 0
-0.88 0 0
-0.86 0 0
-0.84 0 0
-0.82 0 0
-0.8 0 0
-0.78 0 0
-0.76 0 0
-0.74 0 0
-0.72 0 0
-0.7 0 0
-0.68 0 0
-0.66 0 0
-0.64 0 0
-0.62 0 0
-0.6 0 0
-0.58 0 0
-0.56 0 0
-0.54 0 0
-0.52 0 0
-0.5 0 0
-0.48 0 0
-0.46 0 0
-0.44 0 0
-0.42 0 0
-0.4 0 0
-0.38 0 0
-0.36 0 0
-0.34 0 0
-0.32 0 0
-0.3 0 0
-0.28 0 0
-0.26 0 0
-0.24 0 0
-0.22 0 0
-0.2 0 0
-0.18 0 0
-0.16 0 0
-0.14 0 0
-0.12 0 0
-0.1 0 0
-0.08 0 0
-0.06 0 0
-0.04 0 0
-0.02 0 0
1.02 0 0
1.04 0 0
1.06 0 0
1.08 0 0
1.1 0 0
1.12 0 0
1.14 0 0
1.16 0 0
1.18 0 0
1.2 0 0
1.22 0 0
1.24 0 0
1.26 0 0
1.28 0 0
1.3 0 0
1.32 0 0
1.34 0 0
1.36 0 0
1.38 0 0
1.4 0 0
1.42 0 0
1.44 0 0
1.46 0 0
1.48 0 0
1.5 0 0
1.52 0 0
1.54 0 0
1.56 0 0
1.58 0 0
1.6 0 0
1.62 0 0
1.64 0 0
1.66 0 0
1.68 0 0
1.7 0 0
1.72 0 0
1.74 0 0
1.76 0 0
1.78 0 0
1.8 0 0
1.82 0 0
1.84 0 0
1.86 0 0
1.88 0 0
1.9 0 0
1.92 0 0
1.94 0 0
1.96 0 0
1.98 0 0
2 0.0199133 0
2 0.0414128 0
2 0.0646247 0
2 0.0896856 0
2 0.116743 0
2 0.145955 0
2 0.177494 0
2 0.211545 0
2 0.248309 0
2 0.288001 0
2 0.330854 0
2 0.377121 0
2 0.427073 0
2 0.481004 0
2 0.539231 0
2 0.602096 0
2 0.669968 0
2 0.743247 0
2 0.822362 0
2 0.907779 0
1.9 1 0
1.8 1 0
1.7 1 0
1.6 1 0
1.5 1 0
1.4 1 0
1.3 1 0
1.2 1 0
1.1 1 0
1 1 0
0.9 1 0
0.8 1 0
0.7 1 0
0.6 1 0
0.5 1 0
0.4 1 0
0.3 1 0
0.2 1 0
0.1 1 0
3.69793e-12 1 0
-0.1 1 0
-0.2 1 0
-0.3 1 0
-0.4 1 0
-0.5 1 0
-0.6 1 0
-0.7 1 0
-0.8 1 0
-0.9 1 0
-1 0.907779 0
-1 0.822362 0
-1 0.743247 0
-1 0.669968 0
-1 0.602096 0
-1 0.539231 0
-1 0.481004 0
-1 0.427073 0
-1 0.377121 0
-1 0.330854 0
-1 0.288001 0
-1 0.248309 0
-1 0.211545 0
-1 0.177494 0
-1 0.145955 0
-1 0.116743 0
-1 0.0896856 0
-1 0.0646247 0
-1 0.0414128 0
-1 0.0199133 0
0.0182781 0.00745351 0
0.0366672 0.0146286 0
0.0551632 0.0215237 0
0.0737617 0.0281372 0
0.0924585 0.0344675 0
0.111249 0.0405131 0
0.13013 0.0462728 0
0.149095 0.0517451 0
0.168142 0.0569289 0
0.187265 0.0618228 0
0.20646 0.0664258 0
0.225723 0.0707368 0
0.245049 0.0747549 0
0.264434 0.078479 0
0.283873 0.0819084 0
0.303362 0.0850422 0
0.322896 0.0878798 0
0.342472 0.0904204 0
0.362083 0.0926635 0
0.381726 0.0946086 0
0.401397 0.0962552 0
0.42109 0.0976029 0
0.440802 0.0986514 0
0.460527 0.0994006 0
0.480261 0.0998501 0
0.5 0.1 0
0.519739 0.0998501 0
0.539473 0.0994006 0
0.559198 0.0986514 0
0.57891 0.0976029 0
0.598603 0.0962552 0
0.618274 0.0946086 0
0.637917 0.0926635 0
0.657528 0.0904204 0
0.677104 0.0878798 0
0.696638 0.0850422 0
0.716127 0.0819084 0
0.735566 0.078479 0
0.754951 0.0747549 0
0.774277 0.0707368 0
0.79354 0.0664258 0
0.812735 0.0618228 0
0.831858 0.0569289 0
0.850905 0.0517451 0
0.86987 0.0462728 0
0.888751 0.0405131 0
0.907542 0.0344675 0
0.926238 0.0281372 0
0.944837 0.0215237 0
0.963333 0.0146286 0
0.981722 0.00745351 0
-1 0.907779 0.1
-1 0.822362 0.1
-1 0.743247 0.1
-1 0.669968 0.1
-1 0.602096 0.1
-1 0.539231 0.1
-1 0.481004 0.1
-1 0.427073 0.1
-1 0.377121 0.1
-1 0.330854 0.1
-1 0.288001 0.1
-1 0.248309 0.1
-1 0.211545 0.1
-1 0.177494 0.1
-1 0.145955 0.1
-1 0.116743 0.1
-1 0.0896856 0.1
-1 0.0646247 0.1
-1 0.0414128 0.1
-1 0.0199133 0.1
-0.98 0 0.1
-0.96 0 0.1
-0.94 0 0.1
-0.92 0 0.1
-0.9 0 0.1
-0.88 0 0.1
-0.86 0 0.1
-0.84 0 0.1
-0.82 0 0.1
-0.8 0 0.1
-0.78 0 0.1
-0.76 0 0.1
-0.74 0 0.1
-0.72 0 0.1
-0.7 0 0.1
-0.68 0 0.1
-0.66 0 0.1
-0.64 0 0.1
-0.62 0 0.1
-0.6 0 0.1
-0.58 0 0.1
-0.56 0 0.1
-0.54 0 0.1
-0.52 0 0.1
-0.5 0 0.1
-0.48 0 0.1
-0.46 0 0.1
-0.44 0 0.1
-0.42 0 0.1
-0.4 0 0.1
-0.38 0 0.1
-0.36 0 0.1
-0.34 0 0.1
-0.32 0 0.1
-0.3 0 0.1
-0.28 0 0.1
-0.26 0 0.1
-0.24 0 0.1
-0.22 0 0.1
-0.2 0 0.1
-0.18 0 0.1
-0.16 0 0.1
-0.14 0 0.1
-0.12 0 0.1
-0.1 0 0.1
-0.08 0 0.1
-0.06 0 0.1
-0.04 0 0.1
-0.02 0 0.1
0.0182781 0.00745351 0.1
0.0366672 0.0146286 0.1
0.0551632 0.0215237 0.1
0.0737617 0.0281372 0.1
0.0924585 0.0344675 0.1
0.111249 0.0405131 0.1
0.13013 0.0462728 0.1
0.149095 0.0517451 0.1
0.168142 0.0569289 0.1
0.187265 0.0618228 0.1
0.20646 0.0664258 0.1
0.225723 0.0707368 0.1
0.245049 0.0747549 0.1
0.264434 0.078479 0.1
0.283873 0.0819084 0.1
0.303362 0.0850422 0.1
0.322896 0.0878798 0.1
0.342472 0.0904204 0.1
0.362083 0.0926635 0.1
0.381726 0.0946086 0.1
0.401397 0.0962552 0.1
0.42109 0.0976029 0.1
0.440802 0.0986514 0.1
0.460527 0.0994006 0.1
0.480261 0.0998501 0.1
0.5 0.1 0.1
0.519739 0.0998501 0.1
0.539473 0.0994006 0.1
0.559198 0.0986514 0.1
0.57891 0.0976029 0.1
0.598603 0.0962552 0.1
0.618274 0.0946086 0.1
0.637917 0.0926635 0.1
0.657528 0.0904204 0.1
0.677104 0.0878798 0.1
0.696638 0.0850422 0.1
0.716127 0.0819084 0.1
0.735566 0.078479 0.1
0.754951 0.0747549 0.1
0.774277 0.0707368 0.1
0.79354 0.0664258 0.1
0.812735 0.0618228 0.1
0.831858 0.0569289 0.1
0.850905 0.0517451 0.1
0.86987 0.0462728 0.1
0.888751 0.0405131 0.1
0.907542 0.0344675 0.1
0.926238 0.0281372 0.1
0.944837 0.0215237 0.1
0.963333 0.0146286 0.1
0.981722 0.00745351 0.1
1.02 0 0.1
1.04 0 0.1
1.06 0 0.1
1.08 0 0.1
1.1 0 0.1
1.12 0 0.1
1.14 0 0.1
1.16 0 0.1
1.18 0 0.1
1.2 0 0.1
1.22 0 0.1
1.24 0 0.1
1.26 0 0.1
1.28 0 0.1
1.3 0 0.1
1.32 0 0.1
1.34 0 0.1
1.36 0 0.1
1.38 0 0.1
1.4 0 0.1
1.42 0 0.1
1.44 0 0.1
1.46 0 0.1
1.48 0 0.1
1.5 0 0.1
1.52 0 0.1
1.54 0 0.1
1.56 0 0.1
1.58 0 0.1
1.6 0 0.1
1.62 0 0.1
1.64 0 0.1
1.66 0 0.1
1.68 0 0.1
1.7 0 0.1
1.72 0 0.1
1.74 0 0.1
1.76 0 0.1
1.78 0 0.1
1.8 0 0.1
1.82 0 0.1
1.84 0 0.1
1.86 0 0.1
1.88 0 0.1
1.9 0 0.1
1.92 0 0.1
1.94 0 0.1
1.96 0 0.1
1.98 0 0.1
2 0.0199133 0.1
2 0.0414128 0.1
2 0.0646247 0.1
2 0.0896856 0.1
2 0.116743 0.1
2 0.145955 0.1
2 0.177494 0.1
2 0.211545 0.1
2 0.248309 0.1
2 0.288001 0.1
2 0.330854 0.1
2 0.377121 0.1
2 0.427073 0.1
2 0.481004 0.1
2 0.539231 0.1
2 0.602096 0.1
2 0.669968 0.1
2 0.743247 0.1
2 0.822362 0.1
2 0.907779 0.1
1.9 1 0.1
1.8 1 0.1
1.7 1 0.1
1.6 1 0.1
1.5 1 0.1
1.4 1 0.1
1.3 1 0.1
1.2 1 0.1
1.1 1 0.1
1 1 0.1
0.9 1 0.1
0.8 1 0.1
0.7 1 0.1
0.6 1 0.1
0.5 1 0.1
0.4 1 0.1
0.3 1 0.1
0.2 1 0.1
0.1 1 0.1
3.69793e-12 1 0.1
-0.1 1 0.1
-0.2 1 0.1
-0.3 1 0.1
-0.4 1 0.1
-0.5 1 0.1
-0.6 1 0.1
-0.7 1 0.1
-0.8 1 0.1
-0.9 1 0.1
1.08758 0.0158154 0
-0.0898513 0.0203294 0
0.0966181 0.0537636 0
0.90205 0.0548881 0
1.21055 0.0202058 0
-0.209811 0.0159577 0
1.3305 0.0176902 0
-0.33 0.0173205 0
1.45324 0.0148141 0
-0.448654 0.0159854 0
1.56842 0.0191785 0
-0.569936 0.0166364 0
0.193292 0.0805369 0
0.805051 0.0813623 0
0.709096 0.100353 0
0.288591 0.0996656 0
0.390184 0.111848 0
0.61033 0.111742 0
0.488809 0.116278 0
1.67175 0.0169692 0
-0.67 0.0169809 0
-0.955017 0.454039 0
1.95131 0.44569 0
1.74981 0.0168753 0
-0.75 0.0173205 0
-0.968032 0.266538 0
1.96871 0.266267 0
0.978232 0.0305687 0
0.0208675 0.026451 0
-0.150454 0.91842 0
1.13854 0.907437 0
1.45012 0.904365 0
-0.445923 0.908903 0
-0.853423 0.0157019 0
1.84881 0.016319 0
0.853689 0.915652 0
0.153944 0.912184 0
0.545151 0.914125 0
0.549913 0.115152 0
1.51 0.0173205 0
-0.506989 0.01651 0
1.27 0.0173205 0
1.14976 0.0173333 0
-0.268171 0.0206442 0
-0.150501 0.0153244 0
-0.391384 0.0153993 0
1.38886 0.0171544 0
-0.973694 0.161724 0
1.97441 0.162392 0
-0.945221 0.633523 0
1.94544 0.63312 0
1.91008 0.0186068 0
-0.91 0.0169616 0
-0.030664 0.0194327 0
1.03074 0.0165456 0
-0.966065 0.353575 0
1.96128 0.359765 0
1.93879 0.781254 0
-0.937057 0.781882 0
-0.980746 0.080709 0
1.9772 0.0760699 0
0.058735 0.0409372 0
0.355202 0.913001 0
0.86356 0.0661005 0
0.134223 0.0651111 0
0.941972 0.0397386 0
-0.653034 0.915003 0
1.65328 0.904589 0
0.770126 0.0881325 0
0.232946 0.0902008 0
0.330582 0.105648 0
0.670612 0.108365 0
0.428707 0.116145 0
1.80993 0.016629 0
-0.810168 0.0172178 0
-0.71 0.0173205 0
1.63047 0.0175504 0
1.70842 0.0169661 0
-0.628824 0.0181787 0
-0.949815 0.0133898 0
1.95 0.0173205 0
1.85542 0.907891 0
-0.85 0.913397 0
1.9833 0.0307692 0
-0.983315 0.0309709 0
-0.750025 0.916468 0
-0.701107 0.836904 0
-0.607741 0.836428 0
-0.656448 0.759827 0
-0.572936 0.758144 0
-0.61411 0.691195 0
-0.539534 0.689068 0
-0.578542 0.626111 0
-0.507461 0.624216 0
-0.544001 0.566638 0
-0.477696 0.564279 0
-0.511582 0.51001 0
-0.451689 0.507147 0
-0.481834 0.457732 0
-0.426137 0.454624 0
-0.453236 0.407539 0
-0.398845 0.406233 0
-0.507958 0.409496 0
-0.368427 0.460177 0
-0.344602 0.405209 0
-0.315696 0.447824 0
-0.294128 0.402169 0
-0.262844 0.444518 0
-0.241968 0.388746 0
-0.209878 0.439557 0
-0.185184 0.391135 0
-0.156687 0.437338 0
-0.133719 0.390776 0
-0.104405 0.434306 0
-0.0818745 0.388334 0
-0.0528785 0.431165 0
-0.0305984 0.385639 0
-0.00180552 0.427863 0
0.0194564 0.382608 0
0.0485809 0.42449 0
0.0701962 0.37973 0
0.0985483 0.421145 0
0.119893 0.377339 0
0.147837 0.417911 0
0.172552 0.36751 0
0.197018 0.412597 0
0.221203 0.37141 0
0.24512 0.409646 0
-0.48178 0.364657 0
-0.531053 0.364782 0
-0.0599102 0.344151 0
-0.324909 0.359566 0
0.266181 0.368462 0
0.292132 0.407649 0
0.311992 0.365779 0
0.338918 0.404821 0
0.357567 0.355909 0
0.384723 0.40053 0
0.404675 0.359681 0
0.430617 0.398558 0
0.450457 0.35827 0
0.474237 0.395182 0
0.496746 0.34898 0
0.520548 0.397931 0
0.542071 0.353121 0
0.566011 0.389914 0
0.585061 0.350856 0
0.609352 0.38696 0
0.629069 0.348168 0
0.655979 0.391217 0
0.67472 0.346182 0
0.699346 0.381414 0
0.719333 0.341965 0
0.743718 0.377547 0
0.764028 0.339036 0
0.788201 0.373582 0
0.807659 0.336101 0
0.832821 0.372249 0
0.852309 0.334017 0
0.877785 0.370339 0
0.897875 0.331141 0
0.922904 0.366281 0
0.943173 0.327335 0
0.968282 0.363358 0
0.989029 0.324222 0
1.01391 0.361511 0
1.03465 0.321428 0
1.05949 0.358447 0
1.08389 0.312052 0
1.10575 0.355104 0
1.12889 0.31562 0
1.15067 0.353235 0
1.17157 0.312819 0
1.19626 0.349369 0
1.21618 0.309863 0
1.2416 0.346914 0
1.26131 0.30715 0
1.28691 0.344312 0
1.30571 0.303752 0
1.33144 0.341222 0
1.35018 0.300911 0
1.3758 0.338308 0
1.39501 0.298931 0
1.42015 0.335235 0
1.43904 0.296349 0
1.46355 0.330194 0
1.48256 0.293347 0
1.50685 0.326967 0
1.52589 0.29055 0
1.54996 0.325305 0
1.56909 0.287929 0
[...]
CELL_DATA 3694
SCALARS rho float
LOOKUP_TABLE default
0.736612
0.673133
0.803851
0.814336
0.827317
0.80519
0.791782
0.800176
0.811191
0.802823
0.818475
0.818468
0.840731
0.78956
0.800956
0.752523
0.803318
0.803062
0.761901
0.850525
0.81816
0.824023
0.701374
0.803444
0.698012
0.839661
0.720516
0.806497
0.837313
0.798748
0.798932
0.718715
0.80358
0.824927
0.802968
0.798545
0.837751
0.823802
0.825628
0.77823
0.804735
0.817522
0.834651
0.825508
0.805264
0.814229
0.801043
0.674639
0.681225
0.724007
0.802118
0.802954
0.847314
0.802162
0.637416
0.838654
0.802793
0.819961
0.832817
0.755291
0.796414
0.816462
0.842738
0.799789
0.843307
0.831651
0.807794
0.81491
0.736449
0.858835
0.803179
0.807673
0.824045
0.803281
0.82539
0.802934
0.814292
0.799792
0.815108
0.802797
0.716844
0.818598
0.802367
0.776861
0.81097
0.79975
0.819312
0.717798
0.735806
0.825822
0.800208
0.802516
0.820734
0.816376
0.676746
0.806614
0.724487
0.818936
0.813599
0.840616
0.815922
0.764224
0.717771
0.810972
0.810409
0.816457
0.818917
0.807112
0.716978
0.815519
0.799367
0.725658
0.72022
0.824225
0.868363
0.802332
0.800786
0.813403
0.803166
0.80223
0.765916
0.822667
0.820698
0.771069
0.703493
0.759312
0.818558
0.778332
0.844095
0.703973
0.76744
0.800515
0.808026
0.778064
0.801155
0.796567
0.805543
0.80247
0.798147
0.815847
0.81497
0.712921
0.818117
0.814972
0.758413
0.676591
0.678919
0.798287
0.817283
0.81321
0.74623
0.802765
0.5625
0.77968
0.690887
0.765112
0.715055
0.784817
0.609804
0.793253
0.837693
0.647122
0.782427
0.738452
0.844815
0.560494
0.817418
0.800584
0.803106
0.675255
0.801579
0.665371
0.858366
0.551656
0.799992
0.641867
0.872927
0.834158
0.82165
0.745132
0.815283
0.721244
0.827873
0.737313
0.650815
0.803144
0.678633
0.824397
0.801746
0.851583
0.791948
0.702255
0.816194
0.798555
0.743627
0.853281
0.811508
0.849354
0.737965
0.744864
0.771495
0.794808
0.83258
0.834404
0.816979
0.815475
0.672141
0.804702
0.729238
0.803244
0.71262
0.798265
0.795752
0.801612
0.826691
0.765337
0.831309
0.750744
0.826634
0.820844
0.817242
0.853499
0.829627
0.707377
0.828018
0.682503
0.788066
0.811092
0.851751
0.831044
0.809514
0.794683
0.747153
0.81882
0.837466
0.818642
0.717561
0.800912
0.698923
0.793396
0.795609
0.811151
0.642653
0.807759
0.759327
0.798008
0.803136
0.760592
0.816569
0.866213
0.78427
0.690247
0.804557
0.801877
0.649513
0.793578
0.778392
0.80237
0.839578
0.81621
0.611576
0.816571
0.810287
0.798092
0.816814
0.80273
0.815485
0.815452
0.835801
0.757579
0.801952
0.835698
0.810728
0.803173
0.796275
0.816389
0.728222
0.591119
0.818079
0.829793
0.821527
0.804586
0.686794
0.816812
0.816566
0.817806
0.716841
0.798156
0.816482
0.55666
0.802879
0.869566
0.681237
0.758326
0.839444
0.827787
0.816238
0.705399
0.809534
0.816479
0.803905
0.801885
0.812265
0.837272
0.81762
0.76781
0.807132
0.803112
0.648857
0.822129
0.828836
0.674702
0.792224
0.820049
0.821021
0.681454
0.672068
0.822536
0.825108
0.809666
0.733112
0.709043
0.715737
0.735409
0.821441
0.778159
0.804256
0.735304
0.74202
0.823576
0.811415
0.819468
0.771159
0.816568
0.815221
0.818597
0.81723
0.802807
0.807753
0.80413
0.689575
0.802777
0.813005
0.699798
0.807453
0.805209
0.820612
0.786124
0.806071
0.792064
0.816369
0.82212
0.821335
0.798448
0.687332
0.714824
0.799538
0.810996
0.628311
0.803968
0.807782
0.817416
0.744841
0.804352
0.817606
0.812937
0.81905
0.805132
0.797462
0.765934
0.804607
0.844294
0.820367
0.705287
0.803866
0.706098
0.703766
0.803175
0.617413
0.771195
0.785105
0.808165
0.814909
0.82621
0.818349
0.813646
0.821345
0.829212
0.802871
0.766067
0.809881
0.66226
0.820411
0.758627
0.730258
0.693128
0.81536
0.854553
0.820437
0.80907
0.822412
0.816717
0.787185
0.759985
0.8109
0.694996
0.791403
0.844228
0.82674
0.800899
0.864611
0.813508
0.817677
0.818808
0.831184
0.634773
0.799867
0.734237
0.798196
0.734898
0.819974
0.808778
0.788393
0.679272
0.816251
0.830229
0.813291
0.803057
0.803854
0.825413
0.803945
0.714712
0.790513
0.80314
0.816196
0.81523
0.813912
0.872132
0.828808
0.809501
0.833034
0.684818
0.824502
0.838475
0.817525
0.630402
0.816698
0.809381
0.846255
0.822505
0.802992
0.59602
0.810294
0.699815
0.806211
0.802927
0.812527
0.815033
0.825365
0.805166
0.811356
0.817323
0.727551
0.863524
0.802073
0.850895
0.817674
0.580278
0.803984
0.79689
0.81297
0.818924
0.65933
0.802878
0.809765
0.813181
0.807228
0.794045
0.816988
0.818565
0.797449
0.804231
0.822569
0.837586
0.733431
0.806396
0.810009
0.814439
0.684548
0.805426
0.81718
0.799528
0.804288
0.539144
0.833864
0.76552
0.816149
0.818995
0.831811
0.846926
0.817392
0.813036
0.719338
0.799225
0.852959
0.809767
0.711676
0.800429
0.802649
0.87272
0.84607
0.820279
0.802154
0.809809
0.756814
0.816787
0.814128
0.589056
0.802829
0.732797
0.750555
0.803317
0.812792
0.781255
0.821722
0.816661
0.838506
0.817182
0.800603
0.810125
0.738321
0.738638
0.804271
0.809328
0.822149
0.802473
0.752143
0.692631
0.815041
0.815442
0.81415
0.59866
0.815122
0.817676
0.825805
0.803183
0.809818
0.820789
0.811968
0.840297
0.803061
0.812814
0.824713
0.816986
0.818705
0.822432
0.693507
0.784517
0.795927
0.803263
0.848381
0.802117
0.803772
0.637936
0.811856
0.814892
0.811009
0.820279
0.805904
0.814597
0.728653
0.844429
0.706223
0.800685
0.818631
0.807376
0.662938
0.6774
0.815767
0.805804
0.804497
0.786786
0.801597
0.830251
0.814788
0.805112
0.802375
0.813614
0.622422
0.81379
0.803303
0.703458
0.81677
0.627685
0.785477
0.816852
0.838489
0.807224
0.813965
0.793821
0.79667
0.804307
0.801507
0.813453
0.811369
0.810338
0.803314
0.757381
0.804182
0.814024
0.813466
0.817266
0.812974
0.817282
0.816385
0.83498
0.74079
0.806905
0.81702
0.802702
0.548084
0.687438
0.811619
0.814765
0.816628
0.780618
0.80871
0.813151
0.803446
0.800063
0.802973
0.820888
0.821747
0.816455
0.786237
0.809323
0.806984
0.590154
0.774594
0.758721
0.807407
0.737085
0.681818
0.797964
0.768215
0.828735
0.816429
0.816175
0.808522
0.545746
0.81598
0.587587
0.701186
0.825767
0.870213
0.744159
0.817872
0.853588
0.697613
0.816729
0.809191
0.815144
0.807524
0.658863
0.855269
0.737327
0.733327
0.803468
0.80472
0.79984
0.833653
0.816637
0.69362
0.816456
0.800374
0.697132
0.840397
0.798522
0.625418
0.773575
0.817061
0.809212
0.816284
0.784597
0.728537
0.771857
0.837419
0.690565
0.81733
0.818443
0.827994
0.766539
0.823229
0.695474
0.804732
0.663077
0.702566
0.801482
0.823149
0.789914
0.816094
0.81679
0.81665
0.815502
0.582243
0.80265
0.816476
0.744766
0.810232
0.816818
0.813269
0.714144
0.688989
0.742747
0.626035
0.807534
0.684422
0.817052
0.802052
0.816465
0.837344
0.687172
0.80553
0.820902
0.833206
0.740714
0.783185
0.764991
0.774248
0.813561
0.587333
0.674589
0.816734
0.805487
0.813516
0.804711
0.715977
0.781439
0.727433
0.76064
0.800011
0.832906
0.812518
0.693147
0.824533
0.818824
0.812348
0.69083
0.689477
0.68473
0.87269
0.817257
0.817838
0.612865
0.713173
0.6441
0.803731
0.80063
0.674162
0.812278
0.82528
0.751568
0.799919
0.732115
0.815572
0.694352
0.816247
0.810688
0.802709
0.803177
0.826347
0.745776
0.817145
0.816471
0.780827
0.564262
0.816747
0.812309
0.759241
0.815391
0.747327
0.803256
0.827351
0.668497
0.819422
0.802806
0.810181
0.589008
0.653283
0.73704
0.806558
0.813459
0.812227
0.822248
0.8152
0.817333
0.706229
0.802081
0.814466
0.827304
0.705334
0.729687
0.813714
0.812927
0.698972
0.81464
0.775635
0.699816
0.812085
0.697894
0.805464
0.66492
0.802934
0.729693
0.670616
0.812529
0.786557
0.745962
0.633895
0.840882
0.82132
0.816178
0.771617
0.815709
0.800398
0.787244
0.800281
0.801844
0.816385
0.734865
0.809892
0.800368
0.820043
0.602333
0.801738
0.814219
0.815152
0.812928
0.813462
0.747644
0.804097
0.764744
0.752158
0.81986
0.652471
0.819785
0.818927
0.803171
0.816864
0.818087
0.724035
0.768563
0.823268
0.786608
0.803887
0.817314
0.87556
0.819186
0.799652
0.81816
0.816762
0.794194
0.819765
0.818064
0.773959
0.703067
0.842078
0.797218
0.803264
0.822911
0.78229
0.819142
0.825013
0.81993
0.818225
0.871108
0.803194
0.80519
0.819545
0.803184
0.816818
0.807133
0.738067
0.816731
0.82095
0.753847
0.712757
0.816604
0.843737
0.822631
0.661787
0.822946
0.774325
0.809669
0.802253
0.73169
0.803176
0.799071
0.815775
0.818116
0.697305
0.708744
0.802485
0.787826
0.802007
0.825654
0.721233
0.816462
0.802713
0.800599
0.824216
0.816854
0.716421
0.817038
0.764082
0.802593
0.832909
0.803538
0.774766
0.798082
0.79478
0.816516
0.622163
0.816443
0.69186
0.684964
0.803634
0.820784
0.816477
0.802756
0.816551
0.809505
0.726996
0.787987
0.857825
0.803106
0.834271
0.807611
0.551598
0.762239
0.781428
0.652307
0.740073
0.583627
0.820954
0.81478
0.815036
0.802583
0.767104
0.687581
0.766163
0.752372
0.782533
0.816416
0.845299
0.820628
0.805996
0.8195
0.824551
0.802949
0.807994
0.708381
0.803377
0.757631
0.808853
0.798265
0.753612
0.823315
0.788793
0.803738
0.791229
0.841654
0.729127
0.801179
0.799857
0.805053
0.620138
0.816886
0.816775
0.822237
0.637569
0.816664
0.816647
0.79892
0.804001
0.793504
0.776821
0.806705
0.795925
0.817335
0.753093
0.805078
0.875775
0.763822
0.749851
0.808239
0.784183
0.843435
0.801191
0.781156
0.816599
0.798388
0.792843
0.808233
0.826656
0.836654
0.799892
0.578381
0.821613
0.829241
0.77248
0.831742
0.839031
0.823973
0.82731
0.807448
0.833834
0.827892
0.784044
0.809345
0.812759
0.80761
0.823838
0.803505
0.827553
0.793166
0.803622
0.805943
0.729095
0.807285
0.566007
0.81922
0.826394
0.829638
0.80616
0.818491
0.825012
0.819652
0.821989
0.839665
0.834057
0.789288
0.800612
0.822859
0.816693
0.818254
0.80057
0.806544
0.866153
0.821235
0.848141
0.816436
0.800938
0.824801
0.799957
0.833724
0.814759
0.816507
0.805427
0.729052
0.80306
0.804659
0.816466
0.803439
0.803039
0.822273
0.804848
0.804307
0.778411
0.819925
0.719027
0.814502
0.781833
0.759802
0.80369
0.813489
0.81913
0.718154
0.820537
0.815411
0.826732
0.818328
0.790747
0.817622
0.847678
0.833487
0.815933
0.811925
0.801787
0.745781
0.682394
0.816532
0.820888
0.772416
0.815642
0.807983
0.813116
0.805638
0.798862
0.776593
0.802518
0.800327
0.842204
0.818658
0.811691
0.806475
0.606481
0.733286
0.802285
0.784717
0.80432
0.816966
0.806137
0.817412
0.780268
0.816587
0.805003
0.812033
0.803934
0.819065
0.803215
0.817214
0.812189
0.817134
0.814089
0.719941
0.815687
0.817042
0.600496
0.816363
0.796951
0.803083
0.859414
0.81946
0.812023
0.873002
0.816631
0.816724
0.81813
0.820034
0.816486
0.764866
0.83046
0.801615
0.803273
0.815713
0.816616
0.818019
0.816514
0.814627
0.823168
0.804019
0.813729
0.809254
0.815515
0.820181
0.816543
0.813033
0.820423
0.809035
0.692456
0.662848
0.80275
0.808904
0.803434
0.812559
0.819544
0.818282
0.802993
0.804177
0.800835
0.801036
0.818113
0.845041
0.819755
0.811817
0.819664
0.819389
0.846458
0.81866
0.821383
0.785957
0.817029
0.806887
0.801619
0.79225
0.811958
0.819687
0.816377
0.816484
0.836184
0.80727
0.814108
0.817817
0.821784
0.803592
0.803346
0.805599
0.812245
0.81647
0.80172
0.804209
0.818172
0.822701
0.801059
0.647734
0.804326
0.797823
0.817566
0.798758
0.802798
0.749583
0.841652
0.802818
0.799992
0.835688
0.830697
0.810395
0.827233
0.8007
0.819068
0.818526
0.819894
0.803672
0.819489
0.731255
0.823403
0.811618
0.800359
0.813292
0.821656
0.799254
0.804076
0.783681
0.815307
0.816748
0.816847
0.819684
0.806511
0.818317
0.817082
0.826887
0.822141
0.838518
0.806104
0.696908
0.81911
0.841264
0.820915
0.804776
0.800249
0.80352
0.817326
0.814309
0.817257
0.744299
0.740827
0.800981
0.803019
0.816943
0.817723
0.799977
0.657423
0.709908
0.80811
0.768991
0.817149
0.704339
0.803074
0.729575
0.803213
0.820262
0.803143
0.818528
0.814079
0.798619
0.808746
0.794678
0.830021
0.816869
0.801433
0.803616
0.817076
0.822708
0.751087
0.823567
0.803805
0.783248
0.816753
0.803923
0.810783
0.816036
0.816357
0.836121
0.79394
0.799216
0.81664
0.760126
0.806799
0.816159
0.801057
0.817186
0.841473
0.802428
0.843946
0.809623
0.791321
0.813183
0.802632
0.852319
0.788585
0.803181
0.817278
0.832523
0.808457
0.815031
0.816979
0.802931
0.80272
0.826116
0.783685
0.81558
0.8166
0.651054
0.81679
0.714147
0.817748
0.839006
0.825463
0.804169
0.81589
0.816514
0.72737
0.816102
0.801108
0.80167
0.801054
0.816949
0.86443
0.801399
0.801198
0.785688
0.841451
0.828096
0.820661
0.814442
0.748085
0.804525
0.803327
0.732199
0.799733
0.71594
0.811697
0.800946
0.678474
0.880702
0.703937
0.772283
0.801612
0.745241
0.808449
0.799169
0.80304
0.662674
0.796812
0.784388
0.799246
0.731925
0.819796
0.823475
0.88499
0.809525
0.831673
0.647598
0.80021
0.787849
0.74682
0.75289
0.770665
0.708951
0.803147
0.799568
0.803222
0.764621
0.630145
0.811568
0.616429
0.822021
0.823518
0.811577
0.737081
0.812898
0.796639
0.820094
0.783111
0.808351
0.797196
0.811181
0.718184
0.801628
0.724222
0.801475
0.799008
0.69031
0.803784
0.816447
0.816499
0.803112
0.762403
0.816244
0.731525
0.69257
0.802389
0.816502
0.874954
0.816416
0.815698
0.881028
0.86597
0.831568
0.716447
0.802103
0.811974
0.821646
0.79907
0.685248
0.724117
0.681138
0.802372
0.702148
0.769245
0.799606
0.624119
0.689196
0.836763
0.774831
0.746958
0.831319
0.760625
0.769179
0.655362
0.733227
0.786234
0.82055
0.870022
0.838476
0.816757
0.795634
0.799866
0.717961
0.816651
0.695914
0.797079
0.816493
0.783526
0.763728
0.802627
0.783914
0.802271
0.800903
0.81287
0.811173
0.867685
0.593849
0.547529
0.802496
0.807913
0.70089
0.810291
0.802871
0.838233
0.803523
0.802425
0.572857
0.567209
0.808478
0.813544
0.81658
0.729742
0.803171
0.811422
0.687521
0.812611
0.80275
0.815159
0.803184
0.801402
0.802306
0.815606
0.802966
0.817099
0.803322
0.862665
0.815963
0.802547
0.720749
0.673813
0.816547
0.590964
0.813626
0.810283
0.836616
0.814945
0.803132
0.810829
0.814654
0.814266
0.816277
0.801711
0.854345
0.857108
0.802545
0.660197
0.809487
0.822486
0.79947
0.803188
0.820877
0.73704
0.803247
0.825991
0.822169
0.816725
0.816408
0.767771
0.745196
0.801103
0.834767
0.803138
0.815212
0.804784
0.804
0.805313
0.815278
0.809108
0.799017
0.806944
0.806302
0.82477
0.80675
0.806338
0.818594
0.807127
0.803369
0.814381
0.802952
0.80286
0.805865
0.808101
0.814513
0.774242
0.805385
0.802712
0.816439
0.79991
0.8038
0.806938
0.832627
0.805085
0.655969
0.800948
0.816457
0.804707
0.814851
0.763899
0.816258
0.752029
0.803701
0.802268
0.804105
0.819163
0.851705
0.804412
0.803259
0.746696
0.830402
0.816401
0.821339
0.825028
0.815754
0.738845
0.81911
0.725435
0.801154
0.828426
0.802478
0.704517
0.826698
0.815663
0.817452
0.824994
0.816741
0.773892
0.818201
0.655749
0.714656
0.81649
0.823511
0.682208
0.820288
0.661074
0.822351
0.80713
0.817735
0.80318
0.805919
0.815835
0.832025
0.825208
0.670994
0.814475
0.842784
0.78188
0.847
0.800296
0.710142
0.839292
0.820502
0.836363
0.693524
0.689542
0.833722
0.665454
0.831462
0.816491
0.829464
0.806398
0.827776
0.787991
0.8263
0.824936
0.711549
0.866233
0.823768
0.822783
0.823728
0.760721
0.802896
0.534151
0.804301
0.821928
0.814903
0.804879
0.826828
0.816477
0.798315
0.821178
0.803015
0.686948
0.792632
0.83452
0.815816
0.719259
0.800444
0.821684
0.582313
0.816143
0.816923
0.802789
0.810045
0.729029
0.818813
0.803041
0.803522
0.796129
0.795214
0.79809
0.794832
0.803279
0.813878
0.819458
0.815435
0.57714
0.893373
0.709597
0.798008
0.741987
0.791657
0.816451
0.817018
0.816919
0.608591
0.82005
0.817344
0.804063
0.819
0.83703
0.83984
0.783139
0.798512
0.799583
0.728665
0.754726
0.816634
0.765267
0.81532
0.820189
0.816203
0.813635
0.801966
0.776855
0.812194
0.817401
0.729813
0.810743
0.817199
0.819299
0.80799
0.809622
0.76645
0.816044
0.80835
0.803213
0.807585
0.620752
0.806658
0.804486
0.806074
0.822383
0.845912
0.804864
0.775934
0.805435
0.771905
0.82137
0.807045
0.81423
0.816463
0.850546
0.803457
0.745058
0.819944
0.816634
0.729021
0.801253
0.817534
0.758921
0.814113
0.573952
0.806781
0.687733
0.801564
0.811952
0.813798
0.818466
0.804306
0.816779
0.818894
0.801289
0.804726
0.844825
0.817442
0.796388
0.817363
0.802363
0.801929
0.800527
0.80151
0.808248
0.816047
0.801867
0.771747
0.819601
0.813761
0.808998
0.81647
0.59111
0.803531
0.813813
0.816669
0.788872
0.750269
0.718112
0.813967
0.816314
0.826915
0.790764
0.607085
0.772759
0.64575
0.818005
0.744907
0.813696
0.830639
0.70024
0.799972
0.834704
0.751918
0.800679
0.803197
0.816839
0.803215
0.70082
0.800937
0.556001
0.802049
0.802588
0.802268
0.614357
0.802974
0.803512
0.803239
0.730113
0.73905
0.803483
0.777641
0.816976
0.723923
0.708624
0.816424
0.801432
0.754054
0.854703
0.81529
0.813746
0.671936
0.802874
0.800773
0.800709
0.802549
0.660083
0.803361
0.81667
0.657179
0.687728
0.806006
0.79151
0.816538
0.823934
0.81633
0.816543
0.817697
0.80372
0.816595
0.816257
0.814238
0.829601
0.80279
0.801998
0.810662
0.730426
0.809699
0.816114
0.863301
0.811876
0.641181
0.776324
0.802338
0.776596
0.817952
0.813124
0.830739
0.814395
0.865104
0.802311
0.815906
0.598239
0.815988
0.834557
0.802961
0.815713
0.628543
0.816597
0.80273
0.81791
0.802331
0.818725
0.817242
0.754528
0.803646
0.803156
0.835836
0.862456
0.819884
0.817392
0.724228
0.74423
0.802612
0.803147
0.812372
0.819236
0.799836
0.802974
0.820598
0.807694
0.807671
0.739011
0.802792
0.818645
0.815068
0.769162
0.760435
0.812923
0.796595
0.85761
0.720454
0.835332
0.812208
0.709972
0.799862
0.815763
0.78757
0.800906
0.799856
0.816395
0.778696
0.774527
0.814781
0.696071
0.798979
0.767053
0.81628
0.818502
0.802192
0.788811
0.740414
0.754011
0.775112
0.816033
0.820107
0.806957
0.671655
0.803211
0.796901
0.778028
0.809884
0.81433
0.79971
0.803521
0.640645
0.804356
0.804969
0.852011
0.803786
0.809374
0.834104
0.805646
0.811382
0.852887
0.618547
0.804118
0.817447
0.805508
0.805116
0.805817
0.804666
0.804778
0.804282
0.805912
0.806657
0.726776
0.805811
0.807346
0.807804
0.816353
0.808464
0.819509
0.803142
0.803578
0.816005
0.816151
0.811329
0.803358
0.816374
0.813506
0.810826
0.817299
0.710984
0.815287
0.832351
0.816304
0.854956
0.75107
0.80927
0.816432
0.801232
0.62595
0.803316
0.7735
0.822983
0.62995
0.816914
0.830408
0.816078
0.812899
0.802241
0.827483
0.820045
0.80377
0.766002
0.81831
0.758918
0.553205
0.815798
0.69215
0.69805
0.820546
0.828571
0.828434
0.817932
0.848258
0.587775
0.877319
0.805376
0.826906
0.825273
0.814273
0.685369
0.816288
0.82377
0.817667
0.801437
0.773802
0.822423
0.571261
0.814186
0.843958
0.803203
0.840441
0.822564
0.803277
0.673601
0.843784
0.821537
0.837295
0.80114
0.814921
0.803091
0.834697
0.802934
0.814882
0.832305
0.830191
0.82218
0.825351
0.831176
0.738695
0.666898
0.573938
0.828376
0.826878
0.768132
0.757711
0.807629
0.825474
0.847188
0.597227
0.824217
0.823149
0.82226
0.820772
0.804095
0.820937
0.664361
0.746116
0.821479
0.797793
0.870653
0.890523
0.776966
0.805157
0.671731
0.835862
0.733315
0.722386
0.819292
0.801824
0.783847
0.668454
0.802284
0.816469
0.789159
0.715929
0.801736
0.817313
0.798185
0.683693
0.824239
0.793023
0.817079
0.834167
0.815315
0.796983
0.81749
0.817267
0.786095
0.804167
0.714819
0.840967
0.793273
0.81233
0.782349
0.804564
0.701306
0.800998
0.813651
0.812279
0.811111
0.809601
0.808506
0.807747
0.806123
0.805004
0.806927
0.728643
0.805556
0.801581
0.796065
0.803402
0.844819
0.718856
0.803264
0.77645
0.884365
0.854896
0.798129
0.72665
0.803605
0.797834
0.721552
0.803415
0.801974
0.736924
0.803778
0.79129
0.797701
0.801353
0.73846
0.781176
0.805628
0.749463
0.764794
0.771081
0.80167
0.816029
0.808739
0.760539
0.751908
0.799622
0.815168
0.80337
0.793925
0.801275
0.928782
0.86109
0.818869
0.816345
0.723032
0.845074
0.748951
0.826411
0.817326
0.898473
0.81649
0.797539
0.59276
0.816511
0.797656
0.816534
0.798073
0.846185
0.531543
0.833716
0.801625
0.805857
0.805027
0.804029
0.85639
0.80147
0.81863
0.703316
0.666039
0.668743
0.816567
0.512675
0.798055
0.724323
0.842452
0.815127
0.562882
0.803003
0.815977
0.815675
0.720644
0.801968
0.529723
0.797604
0.81668
0.797728
0.802837
0.797968
0.816826
0.834632
0.803267
0.798673
0.817182
0.79894
0.81732
0.814441
0.799228
0.817478
0.815144
0.817665
0.799344
0.817875
0.681526
0.799542
0.818112
0.80312
0.799735
0.818351
0.701127
0.816488
0.798575
0.816472
0.798723
0.811297
0.838797
0.86193
0.801144
0.800824
0.819248
0.815636
0.800465
0.800088
0.864034
0.813157
0.818934
0.811749
0.850548
0.829527
0.81791
0.826121
0.846999
0.816436
0.80196
0.820438
0.812494
0.802391
0.816307
0.800362
0.808397
0.783382