# vtk DataFile Version 1.0
unstructured grid
ascii
DATASET UNSTRUCTURED_GRID
points 3920 float
-1 0 0
-1 1 0
2 0 0
2 1 0
0 0 0
1 0 0
-1 1 0.1
-1 0 0.1
0 0 0.1
1 0 0.1
2 0 0.1
2 1 0.1
-0.98 0 0
-0.96 0 0
-0.94 0 0
-0.92 0 0
-0.9 0 0
-0.88 0 0
-0.86 0 0
-0.84 0 0
-0.82 0 0
-0.8 0 0
-0.78 0 0
-0.76 0 0
-0.74 0 0
-0.72 0 0
-0.7 0 0
-0.68 0 0
-0.66 0 0
-0.64 0 0
-0.62 0 0
-0.6 0 0
-0.58 0 0
-0.56 0 0
-0.54 0 0
-0.52 0 0
-0.5 0 0
-0.48 0 0
-0.46 0 0
-0.44 0 0
-0.42 0 0
-0.4 0 0
-0.38 0 0
-0.36 0 0
-0.34 0 0
-0.32 0 0
-0.3 0 0
-0.28 0 0
-0.26 0 0
-0.24 0 0
-0.22 0 0
-0.2 0 0
-0.18 0 0
-0.16 0 0
-0.14 0 0
-0.12 0 0
-0.1 0 0
-0.08 0 0
-0.06 0 0
-0.04 0 0
-0.02 0 0
1.02 0 0
1.04 0 0
1.06 0 0
1.08 0 0
1.1 0 0
1.12 0 0
1.14 0 0
1.16 0 0
1.18 0 0
1.2 0 0
1.22 0 0
1.24 0 0
1.26 0 0
1.28 0 0
1.3 0 0
1.32 0 0
1.34 0 0
1.36 0 0
1.38 0 0
1.4 0 0
1.42 0 0
1.44 0 0
1.46 0 0
1.48 0 0
1.5 0 0
1.52 0 0
1.54 0 0
1.56 0 0
1.58 0 0
1.6 0 0
1.62 0 0
1.64 0 0
1.66 0 0
1.68 0 0
1.7 0 0
1.72 0 0
1.74 0 0
1.76 0 0
1.78 0 0
1.8 0 0
1.82 0 0
1.84 0 0
1.86 0 0
1.88 0 0
1.9 0 0
1.92 0 0
1.94 0 0
1.96 0 0
1.98 0 0
2 0.0199133 0
2 0.0414128 0
2 0.0646247 0
2 0.0896856 0
2 0.116743 0
2 0.145955 0
2 0.177494 0
2 0.211545 0
2 0.248309 0
2 0.288001 0
2 0.330854 0
2 0.377121 0
2 0.427073 0
2 0.481004 0
2 0.539231 0
2 0.602096 0
2 0.669968 0
2 0.743247 0
2 0.822362 0
2 0.907779 0
1.9 1 0
1.8 1 0
1.7 1 0
1.6 1 0
1.5 1 0
1.4 1 0
1.3 1 0
1.2 1 0
1.1 1 0
1 1 0
0.9 1 0
0.8 1 0
0.7 1 0
0.6 1 0
0.5 1 0
0.4 1 0
0.3 1 0
0.2 1 0
0.1 1 0
3.69793e-12 1 0
-0.1 1 0
-0.2 1 0
-0.3 1 0
-0.4 1 0
-0.5 1 0
-0.6 1 0
-0.7 1 0
-0.8 1 0
-0.9 1 0
-1 0.907779 0
-1 0.822362 0
-1 0.743247 0
-1 0.669968 0
-1 0.602096 0
-1 0.539231 0
-1 0.481004 0
-1 0.427073 0
-1 0.377121 0
-1 0.330854 0
-1 0.288001 0
-1 0.248309 0
-1 0.211545 0
-1 0.177494 0
-1 0.145955 0
-1 0.116743 0
-1 0.0896856 0
-1 0.0646247 0
-1 0.0414128 0
-1 0.0199133 0
0.0182781 0.00745351 0
0.0366672 0.0146286 0
0.0551632 0.0215237 0
0.0737617 0.0281372 0
0.0924585 0.0344675 0
0.111249 0.0405131 0
0.13013 0.0462728 0
0.149095 0.0517451 0
0.168142 0.0569289 0
0.187265 0.0618228 0
0.20646 0.0664258 0
0.225723 0.0707368 0
0.245049 0.0747549 0
0.264434 0.078479 0
0.283873 0.0819084 0
0.303362 0.0850422 0
0.322896 0.0878798 0
0.342472 0.0904204 0
0.362083 0.0926635 0
0.381726 0.0946086 0
0.401397 0.0962552 0
0.42109 0.0976029 0
0.440802 0.0986514 0
0.460527 0.0994006 0
0.480261 0.0998501 0
0.5 0.1 0
0.519739 0.0998501 0
0.539473 0.0994006 0
0.559198 0.0986514 0
0.57891 0.0976029 0
0.598603 0.0962552 0
0.618274 0.0946086 0
0.637917 0.0926635 0
0.657528 0.0904204 0
0.677104 0.0878798 0
0.696638 0.0850422 0
0.716127 0.0819084 0
0.735566 0.078479 0
0.754951 0.0747549 0
0.774277 0.0707368 0
0.79354 0.0664258 0
0.812735 0.0618228 0
0.831858 0.0569289 0
0.850905 0.0517451 0
0.86987 0.0462728 0
0.888751 0.0405131 0
0.907542 0.0344675 0
0.926238 0.0281372 0
0.944837 0.0215237 0
0.963333 0.0146286 0
0.981722 0.00745351 0
-1 0.907779 0.1
-1 0.822362 0.1
-1 0.743247 0.1
-1 0.669968 0.1
-1 0.602096 0.1
-1 0.539231 0.1
-1 0.481004 0.1
-1 0.427073 0.1
-1 0.377121 0.1
-1 0.330854 0.1
-1 0.288001 0.1
-1 0.248309 0.1
-1 0.211545 0.1
-1 0.177494 0.1
-1 0.145955 0.1
-1 0.116743 0.1
-1 0.0896856 0.1
-1 0.0646247 0.1
-1 0.0414128 0.1
-1 0.0199133 0.1
-0.98 0 0.1
-0.96 0 0.1
-0.94 0 0.1
-0.92 0 0.1
-0.9 0 0.1
-0.88 0 0.1
-0.86 0 0.1
-0.84 0 0.1
-0.82 0 0.1
-0.8 0 0.1
-0.78 0 0.1
-0.76 0 0.1
-0.74 0 0.1
-0.72 0 0.1
-0.7 0 0.1
-0.68 0 0.1
-0.66 0 0.1
-0.64 0 0.1
-0.62 0 0.1
-0.6 0 0.1
-0.58 0 0.1
-0.56 0 0.1
-0.54 0 0.1
-0.52 0 0.1
-0.5 0 0.1
-0.48 0 0.1
-0.46 0 0.1
-0.44 0 0.1
-0.42 0 0.1
-0.4 0 0.1
-0.38 0 0.1
-0.36 0 0.1
-0.34 0 0.1
-0.32 0 0.1
-0.3 0 0.1
-0.28 0 0.1
-0.26 0 0.1
-0.24 0 0.1
-0.22 0 0.1
-0.2 0 0.1
-0.18 0 0.1
-0.16 0 0.1
-0.14 0 0.1
-0.12 0 0.1
-0.1 0 0.1
-0.08 0 0.1
-0.06 0 0.1
-0.04 0 0.1
-0.02 0 0.1
0.0182781 0.00745351 0.1
0.0366672 0.0146286 0.1
0.0551632 0.0215237 0.1
0.0737617 0.0281372 0.1
0.0924585 0.0344675 0.1
0.111249 0.0405131 0.1
0.13013 0.0462728 0.1
0.149095 0.0517451 0.1
0.168142 0.0569289 0.1
0.187265 0.0618228 0.1
0.20646 0.0664258 0.1
0.225723 0.0707368 0.1
0.245049 0.0747549 0.1
0.264434 0.078479 0.1
0.283873 0.0819084 0.1
0.303362 0.0850422 0.1
0.322896 0.0878798 0.1
0.342472 0.0904204 0.1
0.362083 0.0926635 0.1
0.381726 0.0946086 0.1
0.401397 0.0962552 0.1
0.42109 0.0976029 0.1
0.440802 0.0986514 0.1
0.460527 0.0994006 0.1
0.480261 0.0998501 0.1
0.5 0.1 0.1
0.519739 0.0998501 0.1
0.539473 0.0994006 0.1
0.559198 0.0986514 0.1
0.57891 0.0976029 0.1
0.598603 0.0962552 0.1
0.618274 0.0946086 0.1
0.637917 0.0926635 0.1
0.657528 0.0904204 0.1
0.677104 0.0878798 0.1
0.696638 0.0850422 0.1
0.716127 0.0819084 0.1
0.735566 0.078479 0.1
0.754951 0.0747549 0.1
0.774277 0.0707368 0.1
0.79354 0.0664258 0.1
0.812735 0.0618228 0.1
0.831858 0.0569289 0.1
0.850905 0.0517451 0.1
0.86987 0.0462728 0.1
0.888751 0.0405131 0.1
0.907542 0.0344675 0.1
0.926238 0.0281372 0.1
0.944837 0.0215237 0.1
0.963333 0.0146286 0.1
0.981722 0.00745351 0.1
1.02 0 0.1
1.04 0 0.1
1.06 0 0.1
1.08 0 0.1
1.1 0 0.1
1.12 0 0.1
1.14 0 0.1
1.16 0 0.1
1.18 0 0.1
1.2 0 0.1
1.22 0 0.1
1.24 0 0.1
1.26 0 0.1
1.28 0 0.1
1.3 0 0.1
1.32 0 0.1
1.34 0 0.1
1.36 0 0.1
1.38 0 0.1
1.4 0 0.1
1.42 0 0.1
1.44 0 0.1
1.46 0 0.1
1.48 0 0.1
1.5 0 0.1
1.52 0 0.1
1.54 0 0.1
1.56 0 0.1
1.58 0 0.1
1.6 0 0.1
1.62 0 0.1
1.64 0 0.1
1.66 0 0.1
1.68 0 0.1
1.7 0 0.1
1.72 0 0.1
1.74 0 0.1
1.76 0 0.1
1.78 0 0.1
1.8 0 0.1
1.82 0 0.1
1.84 0 0.1
1.86 0 0.1
1.88 0 0.1
1.9 0 0.1
1.92 0 0.1
1.94 0 0.1
1.96 0 0.1
1.98 0 0.1
2 0.0199133 0.1
2 0.0414128 0.1
2 0.0646247 0.1
2 0.0896856 0.1
2 0.116743 0.1
2 0.145955 0.1
2 0.177494 0.1
2 0.211545 0.1
2 0.248309 0.1
2 0.288001 0.1
2 0.330854 0.1
2 0.377121 0.1
2 0.427073 0.1
2 0.481004 0.1
2 0.539231 0.1
2 0.602096 0.1
2 0.669968 0.1
2 0.743247 0.1
2 0.822362 0.1
2 0.907779 0.1
1.9 1 0.1
1.8 1 0.1
1.7 1 0.1
1.6 1 0.1
1.5 1 0.1
1.4 1 0.1
1.3 1 0.1
1.2 1 0.1
1.1 1 0.1
1 1 0.1
0.9 1 0.1
0.8 1 0.1
0.7 1 0.1
0.6 1 0.1
0.5 1 0.1
0.4 1 0.1
0.3 1 0.1
0.2 1 0.1
0.1 1 0.1
3.69793e-12 1 0.1
-0.1 1 0.1
-0.2 1 0.1
-0.3 1 0.1
-0.4 1 0.1
-0.5 1 0.1
-0.6 1 0.1
-0.7 1 0.1
-0.8 1 0.1
-0.9 1 0.1
1.08758 0.0158154 0
-0.0898513 0.0203294 0
0.0966181 0.0537636 0
0.90205 0.0548881 0
1.21055 0.0202058 0
-0.209811 0.0159577 0
1.3305 0.0176902 0
-0.33 0.0173205 0
1.45324 0.0148141 0
-0.448654 0.0159854 0
1.56842 0.0191785 0
-0.569936 0.0166364 0
0.193292 0.0805369 0
0.805051 0.0813623 0
0.709096 0.100353 0
0.288591 0.0996656 0
0.390184 0.111848 0
0.61033 0.111742 0
0.488809 0.116278 0
1.67175 0.0169692 0
-0.67 0.0169809 0
-0.955017 0.454039 0
1.95131 0.44569 0
1.74981 0.0168753 0
-0.75 0.0173205 0
-0.968032 0.266538 0
1.96871 0.266267 0
0.978232 0.0305687 0
0.0208675 0.026451 0
-0.150454 0.91842 0
1.13854 0.907437 0
1.45012 0.904365 0
-0.445923 0.908903 0
-0.853423 0.0157019 0
1.84881 0.016319 0
0.853689 0.915652 0
0.153944 0.912184 0
0.545151 0.914125 0
0.549913 0.115152 0
1.51 0.0173205 0
-0.506989 0.01651 0
1.27 0.0173205 0
1.14976 0.0173333 0
-0.268171 0.0206442 0
-0.150501 0.0153244 0
-0.391384 0.0153993 0
1.38886 0.0171544 0
-0.973694 0.161724 0
1.97441 0.162392 0
-0.945221 0.633523 0
1.94544 0.63312 0
1.91008 0.0186068 0
-0.91 0.0169616 0
-0.030664 0.0194327 0
1.03074 0.0165456 0
-0.966065 0.353575 0
1.96128 0.359765 0
1.93879 0.781254 0
-0.937057 0.781882 0
-0.980746 0.080709 0
1.9772 0.0760699 0
0.058735 0.0409372 0
0.355202 0.913001 0
0.86356 0.0661005 0
0.134223 0.0651111 0
0.941972 0.0397386 0
-0.653034 0.915003 0
1.65328 0.904589 0
0.770126 0.0881325 0
0.232946 0.0902008 0
0.330582 0.105648 0
0.670612 0.108365 0
0.428707 0.116145 0
1.80993 0.016629 0
-0.810168 0.0172178 0
-0.71 0.0173205 0
1.63047 0.0175504 0
1.70842 0.0169661 0
-0.628824 0.0181787 0
-0.949815 0.0133898 0
1.95 0.0173205 0
1.85542 0.907891 0
-0.85 0.913397 0
1.9833 0.0307692 0
-0.983315 0.0309709 0
-0.750025 0.916468 0
-0.701107 0.836904 0
-0.607741 0.836428 0
-0.656448 0.759827 0
-0.572936 0.758144 0
-0.61411 0.691195 0
-0.539534 0.689068 0
-0.578542 0.626111 0
-0.507461 0.624216 0
-0.544001 0.566638 0
-0.477696 0.564279 0
-0.511582 0.51001 0
-0.451689 0.507147 0
-0.481834 0.457732 0
-0.426137 0.454624 0
-0.453236 0.407539 0
-0.398845 0.406233 0
-0.507958 0.409496 0
-0.368427 0.460177 0
-0.344602 0.405209 0
-0.315696 0.447824 0
-0.294128 0.402169 0
-0.262844 0.444518 0
-0.241968 0.388746 0
-0.209878 0.439557 0
-0.185184 0.391135 0
-0.156687 0.437338 0
-0.133719 0.390776 0
-0.104405 0.434306 0
-0.0818745 0.388334 0
-0.0528785 0.431165 0
-0.0305984 0.385639 0
-0.00180552 0.427863 0
0.0194564 0.382608 0
0.0485809 0.42449 0
0.0701962 0.37973 0
0.0985483 0.421145 0
0.119893 0.377339 0
0.147837 0.417911 0
0.172552 0.36751 0
0.197018 0.412597 0
0.221203 0.37141 0
0.24512 0.409646 0
-0.48178 0.364657 0
-0.531053 0.364782 0
-0.0599102 0.344151 0
-0.324909 0.359566 0
0.266181 0.368462 0
0.292132 0.407649 0
0.311992 0.365779 0
0.338918 0.404821 0
0.357567 0.355909 0
0.384723 0.40053 0
0.404675 0.359681 0
0.430617 0.398558 0
0.450457 0.35827 0
0.474237 0.395182 0
0.496746 0.34898 0
0.520548 0.397931 0
0.542071 0.353121 0
0.566011 0.389914 0
0.585061 0.350856 0
0.609352 0.38696 0
0.629069 0.348168 0
0.655979 0.391217 0
0.67472 0.346182 0
0.699346 0.381414 0
0.719333 0.341965 0
0.743718 0.377547 0
0.764028 0.339036 0
0.788201 0.373582 0
0.807659 0.336101 0
0.832821 0.372249 0
0.852309 0.334017 0
0.877785 0.370339 0
0.897875 0.331141 0
0.922904 0.366281 0
0.943173 0.327335 0
0.968282 0.363358 0
0.989029 0.324222 0
1.01391 0.361511 0
1.03465 0.321428 0
1.05949 0.358447 0
1.08389 0.312052 0
1.10575 0.355104 0
1.12889 0.31562 0
1.15067 0.353235 0
1.17157 0.312819 0
1.19626 0.349369 0
1.21618 0.309863 0
1.2416 0.346914 0
1.26131 0.30715 0
1.28691 0.344312 0
1.30571 0.303752 0
1.33144 0.341222 0
1.35018 0.300911 0
1.3758 0.338308 0
1.39501 0.298931 0
1.42015 0.335235 0
1.43904 0.296349 0
1.46355 0.330194 0
1.48256 0.293347 0
1.50685 0.326967 0
1.52589 0.29055 0
1.54996 0.325305 0
1.56909 0.287929 0
[...]
CELL_DATA 3694
SCALARS rho float
LOOKUP_TABLE default
0.736435
0.67283
0.803833
0.814213
0.827209
0.805166
0.791744
0.800139
0.811064
0.802799
0.818354
0.818346
0.840666
0.789517
0.80092
0.752257
0.803304
0.803038
0.761673
0.850442
0.818042
0.823906
0.700872
0.803424
0.697502
0.839593
0.720457
0.80645
0.837245
0.798716
0.798901
0.718681
0.803559
0.824869
0.802934
0.798401
0.837661
0.823686
0.825519
0.778193
0.804712
0.817478
0.834583
0.825449
0.805224
0.814106
0.801002
0.673847
0.680985
0.723598
0.802098
0.802946
0.847229
0.80213
0.636456
0.838564
0.802759
0.819844
0.832768
0.755132
0.796374
0.816341
0.842643
0.799753
0.843209
0.831545
0.807748
0.814788
0.736433
0.858753
0.80317
0.807645
0.823929
0.803267
0.825276
0.802925
0.814253
0.799761
0.814985
0.802778
0.716475
0.818542
0.802352
0.776819
0.810842
0.799718
0.819194
0.717446
0.735806
0.825717
0.800073
0.802491
0.820675
0.816257
0.676514
0.806586
0.724308
0.818815
0.813475
0.84052
0.8158
0.763998
0.717818
0.810845
0.810281
0.816336
0.818796
0.807084
0.716824
0.815396
0.799335
0.725256
0.720255
0.82412
0.868287
0.802307
0.80065
0.813279
0.803158
0.802206
0.765866
0.822615
0.82058
0.770909
0.703573
0.75919
0.818437
0.77815
0.844009
0.70354
0.767386
0.800472
0.807996
0.777987
0.801115
0.796435
0.805518
0.802455
0.798116
0.815725
0.814847
0.712605
0.817995
0.81485
0.758293
0.675812
0.678689
0.798255
0.817162
0.813177
0.745987
0.80275
0.561625
0.779533
0.690322
0.764889
0.714866
0.784673
0.609405
0.793208
0.837642
0.646825
0.782364
0.738276
0.84472
0.559645
0.817374
0.800548
0.803063
0.675013
0.801568
0.665032
0.858283
0.549696
0.799961
0.640914
0.872848
0.834052
0.821533
0.745107
0.81516
0.721277
0.827761
0.737291
0.650528
0.803133
0.678671
0.824282
0.801726
0.851494
0.791902
0.7024
0.816072
0.798523
0.743426
0.85321
0.811474
0.849272
0.73779
0.744612
0.771407
0.794674
0.832473
0.834354
0.816943
0.815353
0.671774
0.804679
0.728945
0.803232
0.712163
0.798144
0.795724
0.80158
0.826578
0.765121
0.8312
0.750584
0.826521
0.820727
0.81712
0.853432
0.829579
0.70689
0.827906
0.682929
0.788011
0.810965
0.851662
0.830936
0.809385
0.794631
0.746914
0.818699
0.837366
0.818521
0.71725
0.800774
0.698556
0.79325
0.795581
0.811024
0.642072
0.807721
0.759121
0.797967
0.803128
0.760415
0.816448
0.866138
0.784231
0.690411
0.804518
0.801837
0.649216
0.793425
0.778315
0.802362
0.839489
0.816089
0.611176
0.816449
0.810237
0.797947
0.816693
0.802715
0.815448
0.815336
0.835751
0.757404
0.801935
0.835594
0.810678
0.803166
0.796238
0.816267
0.728214
0.590701
0.817957
0.829742
0.821408
0.804532
0.686187
0.81669
0.816444
0.817687
0.716436
0.798035
0.816361
0.554509
0.802868
0.869497
0.681299
0.758078
0.839345
0.827683
0.816116
0.705545
0.809502
0.816357
0.803884
0.801854
0.812226
0.837182
0.817565
0.767718
0.807102
0.8031
0.64857
0.822011
0.828725
0.674334
0.792076
0.819929
0.820972
0.681155
0.673005
0.822418
0.824993
0.809636
0.733107
0.708782
0.715479
0.735078
0.821322
0.777976
0.804234
0.734966
0.742004
0.823459
0.811288
0.819411
0.770999
0.816446
0.815099
0.818476
0.817108
0.802794
0.807716
0.804088
0.689778
0.802765
0.812961
0.699259
0.807405
0.805184
0.820492
0.786071
0.806033
0.792017
0.816247
0.822001
0.821216
0.798415
0.686681
0.714376
0.799508
0.810964
0.627661
0.803947
0.807734
0.817376
0.74464
0.804326
0.817485
0.812813
0.818929
0.805109
0.797427
0.765745
0.804563
0.844199
0.820311
0.705404
0.803831
0.705663
0.703837
0.803154
0.617099
0.771105
0.785047
0.808123
0.814787
0.826101
0.818228
0.813528
0.821225
0.829102
0.802862
0.76588
0.809845
0.66188
0.820292
0.758453
0.729962
0.692569
0.815238
0.854473
0.820317
0.809021
0.822355
0.816596
0.78713
0.759777
0.810773
0.694786
0.791365
0.844139
0.826696
0.800877
0.864533
0.813475
0.817556
0.818687
0.831142
0.634201
0.799727
0.733894
0.798164
0.734888
0.81986
0.808747
0.788255
0.679759
0.81613
0.830181
0.813168
0.803036
0.803834
0.825299
0.803924
0.714298
0.790468
0.803132
0.816075
0.815106
0.813788
0.872061
0.828697
0.809472
0.832927
0.684515
0.824387
0.838374
0.817403
0.630092
0.816577
0.809343
0.846162
0.822387
0.802981
0.595615
0.810256
0.699386
0.806185
0.802919
0.812477
0.814911
0.825324
0.805143
0.811318
0.817201
0.727171
0.863445
0.802055
0.850806
0.817552
0.579585
0.803965
0.79685
0.812845
0.818803
0.658314
0.802867
0.809735
0.813142
0.807201
0.794014
0.816866
0.818444
0.797303
0.804188
0.822451
0.837496
0.733075
0.806369
0.80996
0.814315
0.68431
0.805393
0.817059
0.799496
0.804256
0.537017
0.833758
0.765303
0.816028
0.818873
0.831704
0.846839
0.81727
0.812912
0.718979
0.799193
0.852879
0.809639
0.711483
0.8004
0.802642
0.87265
0.845976
0.820159
0.802139
0.809774
0.756656
0.816665
0.814083
0.58861
0.802803
0.732429
0.750494
0.803285
0.812668
0.781206
0.821661
0.816539
0.838441
0.81706
0.800577
0.809998
0.738329
0.738431
0.80425
0.809199
0.822034
0.80244
0.752081
0.692209
0.814919
0.815398
0.814112
0.598231
0.814999
0.817561
0.82569
0.803162
0.809692
0.820671
0.811933
0.840197
0.803049
0.81278
0.824601
0.816864
0.818593
0.822323
0.693007
0.784462
0.795796
0.803244
0.848289
0.802108
0.803647
0.637637
0.811738
0.814769
0.810966
0.820159
0.805879
0.814475
0.728475
0.844333
0.706304
0.800654
0.81851
0.807347
0.661956
0.677896
0.81571
0.805778
0.804462
0.786628
0.801586
0.830142
0.814665
0.805089
0.802346
0.81349
0.622115
0.813666
0.803269
0.702943
0.816648
0.626579
0.785308
0.81673
0.838399
0.807092
0.813843
0.793668
0.796536
0.804271
0.801496
0.813329
0.811326
0.810211
0.803303
0.757353
0.804161
0.813901
0.813343
0.817149
0.81285
0.81716
0.816263
0.834889
0.740497
0.806868
0.816898
0.802669
0.547457
0.686883
0.811568
0.814643
0.816507
0.780569
0.80866
0.8131
0.803412
0.800036
0.802942
0.820776
0.821635
0.816333
0.786078
0.809195
0.806852
0.585247
0.774504
0.758557
0.807295
0.736916
0.681184
0.797933
0.768126
0.828625
0.816308
0.816054
0.808487
0.54513
0.815925
0.587142
0.700637
0.825652
0.870144
0.743857
0.81775
0.853501
0.697317
0.816606
0.809154
0.8151
0.807476
0.658571
0.855183
0.737303
0.732961
0.80344
0.804699
0.799811
0.833605
0.816515
0.693331
0.816343
0.80036
0.696559
0.840298
0.79849
0.62505
0.773484
0.816939
0.809082
0.816163
0.784558
0.72816
0.771656
0.837357
0.690342
0.817208
0.818324
0.827881
0.766392
0.823111
0.695051
0.80471
0.662802
0.702356
0.801362
0.823092
0.789754
0.815972
0.816668
0.816528
0.815381
0.581703
0.802639
0.816355
0.744602
0.810201
0.816696
0.813146
0.714233
0.689266
0.742582
0.625411
0.807484
0.684106
0.81693
0.802037
0.816343
0.837286
0.687302
0.805407
0.820785
0.833112
0.740392
0.783026
0.764954
0.774109
0.813437
0.584588
0.674731
0.816612
0.805463
0.813392
0.804689
0.715627
0.781305
0.727109
0.760606
0.799976
0.832799
0.812475
0.692936
0.824417
0.818711
0.812224
0.69028
0.689748
0.684378
0.872618
0.817135
0.817717
0.612445
0.712969
0.643791
0.803697
0.800606
0.673896
0.812232
0.825181
0.751294
0.799882
0.731855
0.81545
0.694136
0.816125
0.810648
0.802574
0.803167
0.826248
0.745605
0.817023
0.81635
0.780759
0.56294
0.816689
0.812183
0.759079
0.81527
0.747312
0.80322
0.827245
0.66754
0.819302
0.802797
0.810137
0.588406
0.651617
0.736833
0.806531
0.813335
0.812102
0.82213
0.815145
0.817211
0.706027
0.802066
0.814342
0.827192
0.705126
0.729305
0.813591
0.812808
0.698668
0.814588
0.775498
0.699993
0.812051
0.697675
0.805332
0.664645
0.802928
0.729718
0.670198
0.812404
0.7865
0.745761
0.633585
0.840789
0.82127
0.816056
0.771473
0.815588
0.800371
0.787113
0.80025
0.80182
0.816263
0.734514
0.809858
0.800338
0.819923
0.601901
0.801703
0.814095
0.815028
0.812803
0.813337
0.747477
0.803971
0.764656
0.751989
0.81974
0.651829
0.819665
0.818806
0.803162
0.816742
0.817966
0.72366
0.768528
0.823151
0.786464
0.803864
0.817192
0.875494
0.819067
0.799509
0.818038
0.816641
0.794162
0.819645
0.817944
0.773868
0.702539
0.841981
0.797178
0.803254
0.822863
0.782156
0.819021
0.824969
0.81981
0.818104
0.871035
0.803185
0.805153
0.819424
0.803174
0.816696
0.807105
0.737809
0.816609
0.820831
0.75382
0.712288
0.816482
0.843671
0.822585
0.660899
0.822828
0.77424
0.809541
0.80222
0.731465
0.80317
0.79904
0.815731
0.817996
0.696965
0.708293
0.802457
0.787782
0.801969
0.825554
0.721286
0.81634
0.802683
0.800563
0.824117
0.816732
0.716038
0.816916
0.763966
0.802571
0.832854
0.803518
0.774607
0.79804
0.794741
0.816394
0.618898
0.816322
0.69213
0.684272
0.803614
0.820665
0.816356
0.802736
0.816429
0.809383
0.726672
0.787937
0.857742
0.803098
0.834177
0.807578
0.550531
0.76221
0.781251
0.651791
0.739803
0.583068
0.820852
0.814658
0.814917
0.802568
0.76705
0.687261
0.765966
0.752341
0.782468
0.816294
0.845239
0.820508
0.80597
0.819456
0.824452
0.802918
0.807948
0.708019
0.803352
0.757478
0.808823
0.798232
0.753384
0.823206
0.788741
0.803717
0.791072
0.841564
0.728983
0.801152
0.799823
0.805029
0.61983
0.816764
0.816653
0.822177
0.636858
0.816542
0.816525
0.798887
0.803981
0.793462
0.776646
0.806657
0.795779
0.817214
0.753067
0.804945
0.875709
0.763686
0.749631
0.80811
0.784143
0.843339
0.801053
0.780977
0.816478
0.798359
0.792797
0.808202
0.826543
0.836551
0.799866
0.577869
0.821495
0.829132
0.772422
0.831633
0.838935
0.823858
0.827198
0.807417
0.83373
0.82778
0.783993
0.809297
0.812635
0.807479
0.823722
0.803488
0.827509
0.793122
0.803579
0.805905
0.728807
0.80725
0.565433
0.819099
0.82628
0.829528
0.806116
0.818439
0.824897
0.819608
0.821871
0.839565
0.833951
0.789132
0.800588
0.822741
0.81657
0.818133
0.800539
0.806516
0.866077
0.821116
0.848049
0.816313
0.800908
0.824758
0.799917
0.833669
0.814635
0.816386
0.805402
0.728733
0.803042
0.804637
0.816344
0.803419
0.802923
0.822232
0.804797
0.804286
0.778341
0.819883
0.718848
0.814451
0.781657
0.759678
0.803671
0.81345
0.819087
0.717802
0.820417
0.81537
0.826689
0.818206
0.790622
0.8175
0.847617
0.833427
0.815816
0.811886
0.801764
0.745538
0.681843
0.81641
0.820831
0.772235
0.815519
0.807946
0.812991
0.805604
0.79883
0.776525
0.802504
0.800298
0.842111
0.818537
0.811645
0.806434
0.606094
0.733024
0.802261
0.784558
0.804286
0.816843
0.806101
0.81729
0.780199
0.816466
0.804969
0.811908
0.803902
0.818944
0.803208
0.817092
0.812063
0.817012
0.813965
0.719626
0.815564
0.81692
0.600087
0.816242
0.796913
0.803047
0.859332
0.819341
0.811897
0.872932
0.816509
0.816602
0.818008
0.819914
0.816364
0.764775
0.830416
0.80158
0.803254
0.815591
0.816494
0.817897
0.816393
0.814503
0.823117
0.804001
0.813604
0.809216
0.815464
0.820136
0.816421
0.812907
0.820304
0.809002
0.692712
0.662429
0.80273
0.808857
0.803414
0.812434
0.819424
0.818161
0.802974
0.804134
0.800803
0.801009
0.817992
0.844954
0.819634
0.811769
0.819543
0.819268
0.846394
0.818539
0.821331
0.7859
0.816907
0.80686
0.801579
0.792205
0.811832
0.819567
0.816255
0.816361
0.836134
0.80714
0.813986
0.817695
0.821736
0.803573
0.803321
0.805574
0.81212
0.816348
0.801697
0.804075
0.818051
0.822655
0.801027
0.644972
0.804306
0.797704
0.817514
0.798718
0.802781
0.749421
0.841554
0.802792
0.799962
0.835584
0.830587
0.810357
0.82712
0.800671
0.818947
0.818406
0.819773
0.803653
0.819368
0.730878
0.823286
0.811584
0.800327
0.813246
0.821537
0.79922
0.804055
0.78352
0.815268
0.816627
0.816725
0.819563
0.806485
0.818196
0.81696
0.82678
0.822099
0.838417
0.806069
0.696697
0.818989
0.841176
0.820796
0.804743
0.800222
0.803489
0.817205
0.814266
0.817135
0.744213
0.740503
0.800949
0.802996
0.816821
0.817601
0.799834
0.65689
0.709708
0.808081
0.768957
0.817028
0.704235
0.803065
0.729388
0.803205
0.820211
0.803135
0.818406
0.813955
0.798599
0.808709
0.794532
0.82997
0.816748
0.8014
0.80359
0.816954
0.822591
0.750874
0.823456
0.803785
0.783204
0.816632
0.803901
0.810735
0.815915
0.816235
0.83602
0.793792
0.799187
0.816518
0.759975
0.806761
0.816038
0.801034
0.817064
0.841417
0.802398
0.843854
0.809504
0.791197
0.81306
0.802625
0.852257
0.788541
0.80317
0.817156
0.832416
0.808428
0.814908
0.816857
0.802911
0.802707
0.826071
0.783556
0.815457
0.816478
0.650252
0.816668
0.713956
0.817709
0.838909
0.825349
0.80412
0.815768
0.816392
0.727157
0.815981
0.80107
0.801652
0.801024
0.816827
0.864353
0.801373
0.801165
0.785635
0.841352
0.828053
0.820542
0.814319
0.747915
0.804395
0.803322
0.732014
0.799696
0.715738
0.811572
0.800933
0.678211
0.880639
0.703741
0.772243
0.80157
0.745
0.80842
0.799137
0.803033
0.662383
0.796787
0.784329
0.799212
0.731549
0.819676
0.823358
0.88493
0.809494
0.831611
0.647286
0.800175
0.787718
0.746525
0.752689
0.770459
0.708589
0.80313
0.799534
0.803205
0.764487
0.629778
0.81153
0.616005
0.821906
0.823418
0.811545
0.737007
0.812783
0.796491
0.819976
0.78305
0.80822
0.797173
0.811054
0.717989
0.801601
0.723991
0.801448
0.798976
0.689813
0.803752
0.816326
0.816378
0.803102
0.762248
0.816123
0.731549
0.692336
0.802372
0.81638
0.874884
0.816295
0.815576
0.880967
0.865899
0.831473
0.716529
0.80208
0.811941
0.82159
0.798931
0.684757
0.723932
0.680559
0.802364
0.702312
0.769132
0.799577
0.62325
0.689311
0.836671
0.774671
0.746757
0.831212
0.760445
0.769152
0.653765
0.733001
0.786087
0.820435
0.869953
0.838383
0.816635
0.795499
0.799837
0.717702
0.816529
0.695682
0.797044
0.816372
0.783494
0.763574
0.802499
0.783768
0.802249
0.800877
0.812745
0.811135
0.867613
0.591241
0.546494
0.802476
0.80779
0.700582
0.810243
0.802855
0.838138
0.803507
0.802413
0.572217
0.565791
0.80844
0.81342
0.816459
0.729364
0.803162
0.8113
0.687166
0.812487
0.802737
0.815037
0.803177
0.801283
0.802293
0.815485
0.802957
0.817061
0.803304
0.862588
0.815841
0.802535
0.72076
0.673389
0.816425
0.590342
0.813505
0.810238
0.836519
0.814822
0.803115
0.810796
0.814532
0.814142
0.816155
0.801694
0.854275
0.857025
0.802508
0.659651
0.809359
0.822448
0.799453
0.803178
0.820762
0.736695
0.80324
0.825884
0.822056
0.816603
0.816286
0.767629
0.74519
0.801066
0.834666
0.803098
0.815092
0.804743
0.803959
0.805272
0.815157
0.809063
0.798982
0.806914
0.80626
0.824723
0.806722
0.806312
0.818473
0.807084
0.803364
0.814259
0.802945
0.802851
0.80584
0.808057
0.814391
0.774152
0.805362
0.802703
0.816318
0.799884
0.803783
0.806907
0.832524
0.805063
0.655319
0.800924
0.816334
0.804687
0.814816
0.763781
0.816135
0.751857
0.803686
0.802254
0.804087
0.819115
0.851618
0.804393
0.803253
0.74669
0.830295
0.81628
0.82122
0.824989
0.815632
0.738587
0.81899
0.725064
0.801127
0.828316
0.802462
0.704027
0.826586
0.815542
0.81733
0.824879
0.816619
0.773805
0.81808
0.65496
0.714196
0.816369
0.823395
0.681523
0.820168
0.6608
0.822233
0.807085
0.817614
0.803173
0.805876
0.815714
0.831965
0.82517
0.671337
0.814353
0.842687
0.781813
0.846908
0.800281
0.709664
0.839192
0.820382
0.83626
0.692945
0.6889
0.833616
0.664594
0.831353
0.816369
0.829353
0.806364
0.827664
0.787939
0.826186
0.824821
0.711105
0.866157
0.823651
0.822665
0.823691
0.760542
0.802882
0.53287
0.804166
0.821809
0.814781
0.804844
0.826715
0.816356
0.798284
0.821059
0.803005
0.686272
0.79259
0.834465
0.815694
0.718879
0.800304
0.821648
0.581586
0.816021
0.816801
0.80275
0.810014
0.728705
0.818698
0.803033
0.803508
0.796095
0.795066
0.798049
0.794786
0.803275
0.813755
0.819421
0.815312
0.57664
0.893316
0.709228
0.797979
0.741716
0.791612
0.81633
0.816897
0.816798
0.608155
0.819931
0.81731
0.804037
0.818882
0.836968
0.839784
0.783088
0.798492
0.799558
0.728279
0.754496
0.816512
0.765119
0.815285
0.820069
0.816081
0.813601
0.801956
0.776678
0.812162
0.817279
0.729659
0.81071
0.817077
0.819179
0.807954
0.80959
0.766251
0.815922
0.808318
0.803201
0.807555
0.6203
0.806628
0.804459
0.806044
0.822266
0.845854
0.804836
0.775743
0.805407
0.771846
0.821251
0.806913
0.814108
0.816341
0.850485
0.803443
0.744967
0.819905
0.816513
0.728807
0.801216
0.817412
0.75885
0.813991
0.573454
0.806745
0.687507
0.801525
0.811842
0.813674
0.818345
0.804285
0.816659
0.818773
0.801259
0.804683
0.844761
0.81732
0.796354
0.817241
0.802322
0.801888
0.800501
0.80148
0.80812
0.815926
0.801837
0.771546
0.81948
0.813652
0.808967
0.816349
0.590642
0.803491
0.813778
0.816547
0.788715
0.750047
0.718141
0.813845
0.816193
0.826803
0.790606
0.606653
0.772615
0.645151
0.817883
0.744888
0.813574
0.830575
0.699702
0.799943
0.834601
0.751647
0.800657
0.803187
0.816717
0.803101
0.700601
0.800911
0.55517
0.802016
0.802568
0.802251
0.610698
0.802963
0.803495
0.803224
0.729936
0.738868
0.803468
0.7775
0.816855
0.723726
0.708409
0.816302
0.801409
0.753887
0.854624
0.815168
0.813624
0.671652
0.802854
0.80075
0.800682
0.802536
0.659706
0.803342
0.816548
0.656871
0.687473
0.805964
0.791381
0.816417
0.823833
0.816207
0.816421
0.817575
0.803703
0.816474
0.816135
0.814129
0.829547
0.802754
0.801975
0.810616
0.730047
0.809669
0.815991
0.863228
0.811762
0.64083
0.776133
0.802319
0.776527
0.81783
0.812999
0.830642
0.814347
0.865031
0.802273
0.815784
0.597729
0.815936
0.834462
0.802951
0.815591
0.628148
0.816475
0.802721
0.817788
0.802316
0.818604
0.81712
0.754511
0.803625
0.803149
0.83574
0.86238
0.819836
0.81727
0.724268
0.743932
0.802597
0.803129
0.812324
0.819115
0.799809
0.802957
0.820479
0.807563
0.807642
0.739011
0.802778
0.818524
0.814945
0.76905
0.760411
0.812797
0.796554
0.857529
0.72026
0.835234
0.812082
0.710071
0.799826
0.81564
0.787535
0.800883
0.799819
0.816273
0.778538
0.774495
0.814659
0.696173
0.79895
0.766878
0.816158
0.81838
0.802169
0.788666
0.740195
0.753816
0.774977
0.815911
0.819987
0.806825
0.670853
0.803081
0.796765
0.777982
0.809845
0.814207
0.799675
0.803481
0.639916
0.804316
0.804929
0.851922
0.803769
0.809328
0.834004
0.805604
0.811256
0.852801
0.617921
0.804099
0.817325
0.805482
0.805092
0.80579
0.804645
0.804755
0.804262
0.805883
0.806615
0.726529
0.805781
0.807303
0.807679
0.81623
0.808421
0.819392
0.803134
0.803562
0.815883
0.816028
0.811202
0.803353
0.816335
0.813459
0.810702
0.817177
0.710691
0.815164
0.832248
0.816182
0.854869
0.750913
0.809141
0.816311
0.801193
0.623747
0.803303
0.773364
0.822865
0.629653
0.816792
0.830302
0.815957
0.812777
0.802222
0.82742
0.819936
0.803744
0.765857
0.818188
0.758849
0.552539
0.815677
0.69235
0.697716
0.820507
0.828462
0.828324
0.81781
0.848167
0.586034
0.877238
0.805343
0.826795
0.82516
0.814149
0.684978
0.816166
0.823654
0.817545
0.801398
0.773763
0.822383
0.570643
0.814064
0.843863
0.803186
0.840343
0.822447
0.803273
0.673126
0.843715
0.821419
0.837193
0.80111
0.814799
0.803083
0.834592
0.802917
0.814759
0.832198
0.830082
0.822142
0.825236
0.831122
0.738679
0.666315
0.572905
0.828264
0.826764
0.768024
0.757562
0.807498
0.82536
0.847128
0.596578
0.824101
0.823032
0.822142
0.820653
0.804059
0.8209
0.663688
0.745901
0.82136
0.79776
0.870569
0.890463
0.776886
0.805022
0.671486
0.835808
0.733004
0.721983
0.819256
0.801785
0.783786
0.667688
0.802269
0.816348
0.78911
0.71548
0.801597
0.817277
0.798143
0.682997
0.82414
0.792977
0.816957
0.834063
0.815279
0.796837
0.817368
0.817145
0.786045
0.804141
0.714376
0.840912
0.793233
0.812204
0.782286
0.804537
0.700809
0.800977
0.813616
0.812246
0.811079
0.809568
0.808474
0.807715
0.806093
0.804976
0.806897
0.728261
0.805527
0.801563
0.796033
0.803384
0.844761
0.718455
0.803251
0.77639
0.884305
0.854818
0.798102
0.726301
0.803569
0.797795
0.72129
0.803397
0.801941
0.736625
0.803749
0.791136
0.797667
0.801323
0.738327
0.781005
0.805497
0.749212
0.764721
0.770889
0.801639
0.815907
0.808709
0.760321
0.751814
0.799599
0.815046
0.803357
0.793806
0.801255
0.928746
0.861016
0.818749
0.816223
0.72304
0.844983
0.748793
0.826358
0.817222
0.89842
0.816369
0.797506
0.592293
0.816389
0.797623
0.816412
0.798041
0.846101
0.530297
0.833613
0.801606
0.80582
0.804988
0.803994
0.856312
0.801447
0.818509
0.703119
0.666406
0.668512
0.816446
0.51159
0.798023
0.724044
0.842366
0.815064
0.562363
0.802887
0.815855
0.815553
0.720457
0.801936
0.529136
0.79757
0.816559
0.797693
0.80282
0.797933
0.816704
0.83454
0.803263
0.798638
0.81706
0.798904
0.817198
0.814385
0.799191
0.817357
0.815022
0.817543
0.799306
0.817753
0.681302
0.799504
0.81799
0.803109
0.799696
0.818229
0.700765
0.816367
0.798544
0.81635
0.798664
0.81117
0.838726
0.861849
0.801121
0.800784
0.819127
0.815589
0.800426
0.800049
0.863956
0.813043
0.818813
0.811623
0.850464
0.829416
0.817788
0.826058
0.846905
0.816315
0.801918
0.820318
0.812385
0.802348
0.816185
0.800327