# vtk DataFile Version 1.0
unstructured grid
ascii
DATASET UNSTRUCTURED_GRID
points 3920 float
-1 0 0
-1 1 0
2 0 0
2 1 0
0 0 0
1 0 0
-1 1 0.1
-1 0 0.1
0 0 0.1
1 0 0.1
2 0 0.1
2 1 0.1
-0.98 0 0
-0.96 0 0
-0.94 0 0
-0.92 0 0
-0.9 0 0
-0.88 0 0
-0.86 0 0
-0.84 0 0
-0.82 0 0
-0.8 0 0
-0.78 0 0
-0.76 0 0
-0.74 0 0
-0.72 0 0
-0.7 0 0
-0.68 0 0
-0.66 0 0
-0.64 0 0
-0.62 0 0
-0.6 0 0
-0.58 0 0
-0.56 0 0
-0.54 0 0
-0.52 0 0
-0.5 0 0
-0.48 0 0
-0.46 0 0
-0.44 0 0
-0.42 0 0
-0.4 0 0
-0.38 0 0
-0.36 0 0
-0.34 0 0
-0.32 0 0
-0.3 0 0
-0.28 0 0
-0.26 0 0
-0.24 0 0
-0.22 0 0
-0.2 0 0
-0.18 0 0
-0.16 0 0
-0.14 0 0
-0.12 0 0
-0.1 0 0
-0.08 0 0
-0.06 0 0
-0.04 0 0
-0.02 0 0
1.02 0 0
1.04 0 0
1.06 0 0
1.08 0 0
1.1 0 0
1.12 0 0
1.14 0 0
1.16 0 0
1.18 0 0
1.2 0 0
1.22 0 0
1.24 0 0
1.26 0 0
1.28 0 0
1.3 0 0
1.32 0 0
1.34 0 0
1.36 0 0
1.38 0 0
1.4 0 0
1.42 0 0
1.44 0 0
1.46 0 0
1.48 0 0
1.5 0 0
1.52 0 0
1.54 0 0
1.56 0 0
1.58 0 0
1.6 0 0
1.62 0 0
1.64 0 0
1.66 0 0
1.68 0 0
1.7 0 0
1.72 0 0
1.74 0 0
1.76 0 0
1.78 0 0
1.8 0 0
1.82 0 0
1.84 0 0
1.86 0 0
1.88 0 0
1.9 0 0
1.92 0 0
1.94 0 0
1.96 0 0
1.98 0 0
2 0.0199133 0
2 0.0414128 0
2 0.0646247 0
2 0.0896856 0
2 0.116743 0
2 0.145955 0
2 0.177494 0
2 0.211545 0
2 0.248309 0
2 0.288001 0
2 0.330854 0
2 0.377121 0
2 0.427073 0
2 0.481004 0
2 0.539231 0
2 0.602096 0
2 0.669968 0
2 0.743247 0
2 0.822362 0
2 0.907779 0
1.9 1 0
1.8 1 0
1.7 1 0
1.6 1 0
1.5 1 0
1.4 1 0
1.3 1 0
1.2 1 0
1.1 1 0
1 1 0
0.9 1 0
0.8 1 0
0.7 1 0
0.6 1 0
0.5 1 0
0.4 1 0
0.3 1 0
0.2 1 0
0.1 1 0
3.69793e-12 1 0
-0.1 1 0
-0.2 1 0
-0.3 1 0
-0.4 1 0
-0.5 1 0
-0.6 1 0
-0.7 1 0
-0.8 1 0
-0.9 1 0
-1 0.907779 0
-1 0.822362 0
-1 0.743247 0
-1 0.669968 0
-1 0.602096 0
-1 0.539231 0
-1 0.481004 0
-1 0.427073 0
-1 0.377121 0
-1 0.330854 0
-1 0.288001 0
-1 0.248309 0
-1 0.211545 0
-1 0.177494 0
-1 0.145955 0
-1 0.116743 0
-1 0.0896856 0
-1 0.0646247 0
-1 0.0414128 0
-1 0.0199133 0
0.0182781 0.00745351 0
0.0366672 0.0146286 0
0.0551632 0.0215237 0
0.0737617 0.0281372 0
0.0924585 0.0344675 0
0.111249 0.0405131 0
0.13013 0.0462728 0
0.149095 0.0517451 0
0.168142 0.0569289 0
0.187265 0.0618228 0
0.20646 0.0664258 0
0.225723 0.0707368 0
0.245049 0.0747549 0
0.264434 0.078479 0
0.283873 0.0819084 0
0.303362 0.0850422 0
0.322896 0.0878798 0
0.342472 0.0904204 0
0.362083 0.0926635 0
0.381726 0.0946086 0
0.401397 0.0962552 0
0.42109 0.0976029 0
0.440802 0.0986514 0
0.460527 0.0994006 0
0.480261 0.0998501 0
0.5 0.1 0
0.519739 0.0998501 0
0.539473 0.0994006 0
0.559198 0.0986514 0
0.57891 0.0976029 0
0.598603 0.0962552 0
0.618274 0.0946086 0
0.637917 0.0926635 0
0.657528 0.0904204 0
0.677104 0.0878798 0
0.696638 0.0850422 0
0.716127 0.0819084 0
0.735566 0.078479 0
0.754951 0.0747549 0
0.774277 0.0707368 0
0.79354 0.0664258 0
0.812735 0.0618228 0
0.831858 0.0569289 0
0.850905 0.0517451 0
0.86987 0.0462728 0
0.888751 0.0405131 0
0.907542 0.0344675 0
0.926238 0.0281372 0
0.944837 0.0215237 0
0.963333 0.0146286 0
0.981722 0.00745351 0
-1 0.907779 0.1
-1 0.822362 0.1
-1 0.743247 0.1
-1 0.669968 0.1
-1 0.602096 0.1
-1 0.539231 0.1
-1 0.481004 0.1
-1 0.427073 0.1
-1 0.377121 0.1
-1 0.330854 0.1
-1 0.288001 0.1
-1 0.248309 0.1
-1 0.211545 0.1
-1 0.177494 0.1
-1 0.145955 0.1
-1 0.116743 0.1
-1 0.0896856 0.1
-1 0.0646247 0.1
-1 0.0414128 0.1
-1 0.0199133 0.1
-0.98 0 0.1
-0.96 0 0.1
-0.94 0 0.1
-0.92 0 0.1
-0.9 0 0.1
-0.88 0 0.1
-0.86 0 0.1
-0.84 0 0.1
-0.82 0 0.1
-0.8 0 0.1
-0.78 0 0.1
-0.76 0 0.1
-0.74 0 0.1
-0.72 0 0.1
-0.7 0 0.1
-0.68 0 0.1
-0.66 0 0.1
-0.64 0 0.1
-0.62 0 0.1
-0.6 0 0.1
-0.58 0 0.1
-0.56 0 0.1
-0.54 0 0.1
-0.52 0 0.1
-0.5 0 0.1
-0.48 0 0.1
-0.46 0 0.1
-0.44 0 0.1
-0.42 0 0.1
-0.4 0 0.1
-0.38 0 0.1
-0.36 0 0.1
-0.34 0 0.1
-0.32 0 0.1
-0.3 0 0.1
-0.28 0 0.1
-0.26 0 0.1
-0.24 0 0.1
-0.22 0 0.1
-0.2 0 0.1
-0.18 0 0.1
-0.16 0 0.1
-0.14 0 0.1
-0.12 0 0.1
-0.1 0 0.1
-0.08 0 0.1
-0.06 0 0.1
-0.04 0 0.1
-0.02 0 0.1
0.0182781 0.00745351 0.1
0.0366672 0.0146286 0.1
0.0551632 0.0215237 0.1
0.0737617 0.0281372 0.1
0.0924585 0.0344675 0.1
0.111249 0.0405131 0.1
0.13013 0.0462728 0.1
0.149095 0.0517451 0.1
0.168142 0.0569289 0.1
0.187265 0.0618228 0.1
0.20646 0.0664258 0.1
0.225723 0.0707368 0.1
0.245049 0.0747549 0.1
0.264434 0.078479 0.1
0.283873 0.0819084 0.1
0.303362 0.0850422 0.1
0.322896 0.0878798 0.1
0.342472 0.0904204 0.1
0.362083 0.0926635 0.1
0.381726 0.0946086 0.1
0.401397 0.0962552 0.1
0.42109 0.0976029 0.1
0.440802 0.0986514 0.1
0.460527 0.0994006 0.1
0.480261 0.0998501 0.1
0.5 0.1 0.1
0.519739 0.0998501 0.1
0.539473 0.0994006 0.1
0.559198 0.0986514 0.1
0.57891 0.0976029 0.1
0.598603 0.0962552 0.1
0.618274 0.0946086 0.1
0.637917 0.0926635 0.1
0.657528 0.0904204 0.1
0.677104 0.0878798 0.1
0.696638 0.0850422 0.1
0.716127 0.0819084 0.1
0.735566 0.078479 0.1
0.754951 0.0747549 0.1
0.774277 0.0707368 0.1
0.79354 0.0664258 0.1
0.812735 0.0618228 0.1
0.831858 0.0569289 0.1
0.850905 0.0517451 0.1
0.86987 0.0462728 0.1
0.888751 0.0405131 0.1
0.907542 0.0344675 0.1
0.926238 0.0281372 0.1
0.944837 0.0215237 0.1
0.963333 0.0146286 0.1
0.981722 0.00745351 0.1
1.02 0 0.1
1.04 0 0.1
1.06 0 0.1
1.08 0 0.1
1.1 0 0.1
1.12 0 0.1
1.14 0 0.1
1.16 0 0.1
1.18 0 0.1
1.2 0 0.1
1.22 0 0.1
1.24 0 0.1
1.26 0 0.1
1.28 0 0.1
1.3 0 0.1
1.32 0 0.1
1.34 0 0.1
1.36 0 0.1
1.38 0 0.1
1.4 0 0.1
1.42 0 0.1
1.44 0 0.1
1.46 0 0.1
1.48 0 0.1
1.5 0 0.1
1.52 0 0.1
1.54 0 0.1
1.56 0 0.1
1.58 0 0.1
1.6 0 0.1
1.62 0 0.1
1.64 0 0.1
1.66 0 0.1
1.68 0 0.1
1.7 0 0.1
1.72 0 0.1
1.74 0 0.1
1.76 0 0.1
1.78 0 0.1
1.8 0 0.1
1.82 0 0.1
1.84 0 0.1
1.86 0 0.1
1.88 0 0.1
1.9 0 0.1
1.92 0 0.1
1.94 0 0.1
1.96 0 0.1
1.98 0 0.1
2 0.0199133 0.1
2 0.0414128 0.1
2 0.0646247 0.1
2 0.0896856 0.1
2 0.116743 0.1
2 0.145955 0.1
2 0.177494 0.1
2 0.211545 0.1
2 0.248309 0.1
2 0.288001 0.1
2 0.330854 0.1
2 0.377121 0.1
2 0.427073 0.1
2 0.481004 0.1
2 0.539231 0.1
2 0.602096 0.1
2 0.669968 0.1
2 0.743247 0.1
2 0.822362 0.1
2 0.907779 0.1
1.9 1 0.1
1.8 1 0.1
1.7 1 0.1
1.6 1 0.1
1.5 1 0.1
1.4 1 0.1
1.3 1 0.1
1.2 1 0.1
1.1 1 0.1
1 1 0.1
0.9 1 0.1
0.8 1 0.1
0.7 1 0.1
0.6 1 0.1
0.5 1 0.1
0.4 1 0.1
0.3 1 0.1
0.2 1 0.1
0.1 1 0.1
3.69793e-12 1 0.1
-0.1 1 0.1
-0.2 1 0.1
-0.3 1 0.1
-0.4 1 0.1
-0.5 1 0.1
-0.6 1 0.1
-0.7 1 0.1
-0.8 1 0.1
-0.9 1 0.1
1.08758 0.0158154 0
-0.0898513 0.0203294 0
0.0966181 0.0537636 0
0.90205 0.0548881 0
1.21055 0.0202058 0
-0.209811 0.0159577 0
1.3305 0.0176902 0
-0.33 0.0173205 0
1.45324 0.0148141 0
-0.448654 0.0159854 0
1.56842 0.0191785 0
-0.569936 0.0166364 0
0.193292 0.0805369 0
0.805051 0.0813623 0
0.709096 0.100353 0
0.288591 0.0996656 0
0.390184 0.111848 0
0.61033 0.111742 0
0.488809 0.116278 0
1.67175 0.0169692 0
-0.67 0.0169809 0
-0.955017 0.454039 0
1.95131 0.44569 0
1.74981 0.0168753 0
-0.75 0.0173205 0
-0.968032 0.266538 0
1.96871 0.266267 0
0.978232 0.0305687 0
0.0208675 0.026451 0
-0.150454 0.91842 0
1.13854 0.907437 0
1.45012 0.904365 0
-0.445923 0.908903 0
-0.853423 0.0157019 0
1.84881 0.016319 0
0.853689 0.915652 0
0.153944 0.912184 0
0.545151 0.914125 0
0.549913 0.115152 0
1.51 0.0173205 0
-0.506989 0.01651 0
1.27 0.0173205 0
1.14976 0.0173333 0
-0.268171 0.0206442 0
-0.150501 0.0153244 0
-0.391384 0.0153993 0
1.38886 0.0171544 0
-0.973694 0.161724 0
1.97441 0.162392 0
-0.945221 0.633523 0
1.94544 0.63312 0
1.91008 0.0186068 0
-0.91 0.0169616 0
-0.030664 0.0194327 0
1.03074 0.0165456 0
-0.966065 0.353575 0
1.96128 0.359765 0
1.93879 0.781254 0
-0.937057 0.781882 0
-0.980746 0.080709 0
1.9772 0.0760699 0
0.058735 0.0409372 0
0.355202 0.913001 0
0.86356 0.0661005 0
0.134223 0.0651111 0
0.941972 0.0397386 0
-0.653034 0.915003 0
1.65328 0.904589 0
0.770126 0.0881325 0
0.232946 0.0902008 0
0.330582 0.105648 0
0.670612 0.108365 0
0.428707 0.116145 0
1.80993 0.016629 0
-0.810168 0.0172178 0
-0.71 0.0173205 0
1.63047 0.0175504 0
1.70842 0.0169661 0
-0.628824 0.0181787 0
-0.949815 0.0133898 0
1.95 0.0173205 0
1.85542 0.907891 0
-0.85 0.913397 0
1.9833 0.0307692 0
-0.983315 0.0309709 0
-0.750025 0.916468 0
-0.701107 0.836904 0
-0.607741 0.836428 0
-0.656448 0.759827 0
-0.572936 0.758144 0
-0.61411 0.691195 0
-0.539534 0.689068 0
-0.578542 0.626111 0
-0.507461 0.624216 0
-0.544001 0.566638 0
-0.477696 0.564279 0
-0.511582 0.51001 0
-0.451689 0.507147 0
-0.481834 0.457732 0
-0.426137 0.454624 0
-0.453236 0.407539 0
-0.398845 0.406233 0
-0.507958 0.409496 0
-0.368427 0.460177 0
-0.344602 0.405209 0
-0.315696 0.447824 0
-0.294128 0.402169 0
-0.262844 0.444518 0
-0.241968 0.388746 0
-0.209878 0.439557 0
-0.185184 0.391135 0
-0.156687 0.437338 0
-0.133719 0.390776 0
-0.104405 0.434306 0
-0.0818745 0.388334 0
-0.0528785 0.431165 0
-0.0305984 0.385639 0
-0.00180552 0.427863 0
0.0194564 0.382608 0
0.0485809 0.42449 0
0.0701962 0.37973 0
0.0985483 0.421145 0
0.119893 0.377339 0
0.147837 0.417911 0
0.172552 0.36751 0
0.197018 0.412597 0
0.221203 0.37141 0
0.24512 0.409646 0
-0.48178 0.364657 0
-0.531053 0.364782 0
-0.0599102 0.344151 0
-0.324909 0.359566 0
0.266181 0.368462 0
0.292132 0.407649 0
0.311992 0.365779 0
0.338918 0.404821 0
0.357567 0.355909 0
0.384723 0.40053 0
0.404675 0.359681 0
0.430617 0.398558 0
0.450457 0.35827 0
0.474237 0.395182 0
0.496746 0.34898 0
0.520548 0.397931 0
0.542071 0.353121 0
0.566011 0.389914 0
0.585061 0.350856 0
0.609352 0.38696 0
0.629069 0.348168 0
0.655979 0.391217 0
0.67472 0.346182 0
0.699346 0.381414 0
0.719333 0.341965 0
0.743718 0.377547 0
0.764028 0.339036 0
0.788201 0.373582 0
0.807659 0.336101 0
0.832821 0.372249 0
0.852309 0.334017 0
0.877785 0.370339 0
0.897875 0.331141 0
0.922904 0.366281 0
0.943173 0.327335 0
0.968282 0.363358 0
0.989029 0.324222 0
1.01391 0.361511 0
1.03465 0.321428 0
1.05949 0.358447 0
1.08389 0.312052 0
1.10575 0.355104 0
1.12889 0.31562 0
1.15067 0.353235 0
1.17157 0.312819 0
1.19626 0.349369 0
1.21618 0.309863 0
1.2416 0.346914 0
1.26131 0.30715 0
1.28691 0.344312 0
1.30571 0.303752 0
1.33144 0.341222 0
1.35018 0.300911 0
1.3758 0.338308 0
1.39501 0.298931 0
1.42015 0.335235 0
1.43904 0.296349 0
1.46355 0.330194 0
1.48256 0.293347 0
1.50685 0.326967 0
1.52589 0.29055 0
1.54996 0.325305 0
1.56909 0.287929 0
[...]
CELL_DATA 3694
SCALARS rho float
LOOKUP_TABLE default
0.739538
0.678558
0.804421
0.817987
0.828978
0.805819
0.792838
0.800984
0.814097
0.803367
0.821376
0.821366
0.841355
0.790737
0.801724
0.756789
0.803719
0.803623
0.765511
0.851478
0.82014
0.826275
0.710048
0.804048
0.706833
0.84032
0.722541
0.807453
0.838012
0.799256
0.799424
0.720434
0.804108
0.825723
0.803662
0.80098
0.838818
0.826001
0.827355
0.77918
0.805341
0.818254
0.835361
0.826301
0.806063
0.817911
0.801966
0.685925
0.685469
0.730952
0.80275
0.803218
0.848321
0.802972
0.655025
0.839728
0.803489
0.82201
0.833358
0.757847
0.797398
0.820419
0.84404
0.800575
0.84472
0.833381
0.808695
0.818739
0.73756
0.859824
0.803407
0.808374
0.826297
0.803693
0.827469
0.803213
0.814959
0.800361
0.818143
0.803396
0.723649
0.819468
0.802668
0.777858
0.813567
0.800341
0.821377
0.724341
0.736854
0.827317
0.802297
0.80306
0.821584
0.818361
0.680855
0.807297
0.727509
0.821742
0.816901
0.841966
0.819369
0.767782
0.718518
0.813791
0.813001
0.820412
0.821737
0.807796
0.720355
0.818388
0.80022
0.732488
0.721061
0.825704
0.86916
0.802858
0.802918
0.816714
0.803391
0.802745
0.767354
0.823319
0.822913
0.773556
0.703946
0.762012
0.821277
0.781182
0.845108
0.711422
0.768932
0.801399
0.808738
0.779914
0.802082
0.798519
0.806178
0.802777
0.798671
0.819262
0.817934
0.718328
0.82096
0.818683
0.761078
0.687968
0.682988
0.798873
0.82053
0.813898
0.750872
0.803122
0.581488
0.781917
0.70014
0.768616
0.718278
0.787006
0.617376
0.794357
0.838186
0.652524
0.784003
0.741363
0.846182
0.578758
0.818153
0.80133
0.804045
0.679547
0.801995
0.671495
0.859373
0.601313
0.800833
0.659127
0.873437
0.835881
0.823809
0.746218
0.818124
0.722193
0.829886
0.738792
0.656035
0.803513
0.673074
0.826567
0.802375
0.852742
0.792985
0.702149
0.820229
0.799139
0.747696
0.853864
0.81222
0.850271
0.740857
0.749619
0.773524
0.796788
0.834366
0.834924
0.817607
0.818994
0.678726
0.805295
0.734123
0.803577
0.720731
0.800015
0.796594
0.802425
0.828768
0.768739
0.833153
0.753339
0.828718
0.822895
0.820511
0.854042
0.830214
0.715771
0.830022
0.678548
0.789372
0.813351
0.852912
0.832778
0.812302
0.795603
0.751715
0.821663
0.838945
0.821514
0.72284
0.80312
0.705058
0.795659
0.796456
0.813626
0.653412
0.808533
0.762615
0.798905
0.803352
0.763409
0.820287
0.866738
0.785203
0.689947
0.805364
0.802767
0.654906
0.796087
0.780235
0.802684
0.840635
0.820126
0.619185
0.820195
0.811016
0.800532
0.820299
0.803078
0.81614
0.817199
0.836323
0.76038
0.802252
0.837357
0.811654
0.803396
0.79725
0.820371
0.729296
0.599143
0.820902
0.830347
0.823923
0.805454
0.697426
0.820296
0.820161
0.819858
0.724183
0.799899
0.820415
0.606864
0.803139
0.870168
0.676015
0.762265
0.840867
0.829254
0.820255
0.705235
0.810256
0.820422
0.804449
0.802512
0.812963
0.838344
0.818498
0.769933
0.807859
0.803439
0.654075
0.824542
0.830792
0.681311
0.794524
0.822696
0.821636
0.686776
0.663191
0.824909
0.827189
0.810362
0.734234
0.713529
0.720136
0.741354
0.823862
0.781014
0.804834
0.741285
0.743185
0.825771
0.813963
0.820339
0.773655
0.820283
0.81883
0.821459
0.82011
0.803255
0.808516
0.805026
0.688863
0.803022
0.813779
0.709294
0.808409
0.805849
0.823187
0.787497
0.806862
0.793204
0.82032
0.824534
0.823826
0.799082
0.698666
0.722772
0.800363
0.811699
0.640643
0.80452
0.808735
0.818102
0.748907
0.805068
0.820365
0.816291
0.821823
0.805753
0.798379
0.768901
0.805559
0.845667
0.821209
0.705451
0.804597
0.713564
0.704396
0.803692
0.62325
0.773255
0.786467
0.808854
0.818937
0.827974
0.821073
0.815423
0.823835
0.83107
0.803198
0.769009
0.810596
0.669153
0.822917
0.761404
0.735205
0.7024
0.818961
0.855379
0.822938
0.810017
0.823087
0.820275
0.788517
0.76329
0.813801
0.698657
0.792467
0.845346
0.827263
0.801573
0.865489
0.814196
0.820048
0.821652
0.831682
0.645454
0.802112
0.740302
0.79873
0.736246
0.821753
0.809497
0.790478
0.674314
0.8201
0.830812
0.816746
0.803541
0.804466
0.827511
0.804479
0.722204
0.791557
0.803348
0.819999
0.817918
0.816808
0.872794
0.830764
0.810194
0.834794
0.690186
0.826715
0.840027
0.820574
0.636139
0.820281
0.810144
0.847564
0.824877
0.80338
0.603747
0.811051
0.707269
0.806885
0.803195
0.813434
0.81903
0.825944
0.805792
0.812072
0.820227
0.734237
0.86441
0.802391
0.85208
0.820476
0.594575
0.804523
0.79787
0.816193
0.821732
0.676258
0.803219
0.810464
0.81391
0.807916
0.79498
0.820363
0.821313
0.799852
0.805186
0.824866
0.838679
0.739621
0.807084
0.810944
0.81739
0.688738
0.806149
0.819557
0.800097
0.804984
0.607066
0.835598
0.768945
0.820162
0.821769
0.833554
0.84801
0.820153
0.816542
0.725985
0.799819
0.853789
0.812558
0.714973
0.800944
0.802922
0.873379
0.847383
0.822888
0.802434
0.810545
0.759339
0.820084
0.814928
0.597511
0.803395
0.738894
0.752402
0.803978
0.816149
0.782485
0.822478
0.820119
0.839176
0.819702
0.801366
0.812404
0.739263
0.742051
0.804838
0.811878
0.824159
0.80315
0.754006
0.700017
0.818917
0.816224
0.81483
0.606741
0.818825
0.819468
0.827932
0.803682
0.811938
0.823049
0.812655
0.841799
0.803482
0.813513
0.826549
0.820357
0.820339
0.824022
0.702233
0.785834
0.797844
0.803731
0.849643
0.802479
0.805606
0.643393
0.813593
0.81799
0.811796
0.822896
0.806561
0.818414
0.731651
0.845796
0.70668
0.801286
0.821507
0.808074
0.679311
0.672593
0.816682
0.806473
0.805242
0.789246
0.802014
0.832074
0.817482
0.805727
0.802969
0.816514
0.628133
0.817134
0.804006
0.712555
0.819289
0.648263
0.788157
0.819871
0.839565
0.809824
0.817657
0.796323
0.798669
0.805055
0.80195
0.816899
0.812154
0.813229
0.80367
0.758515
0.804808
0.817836
0.817221
0.819159
0.816481
0.820427
0.820131
0.836097
0.746134
0.807666
0.820206
0.803382
0.560689
0.697139
0.812535
0.818623
0.820085
0.781852
0.809655
0.814045
0.804155
0.800829
0.803612
0.822563
0.823496
0.820149
0.788725
0.811511
0.809596
0.651439
0.776696
0.762087
0.808973
0.739875
0.69293
0.798481
0.770296
0.830593
0.820397
0.819974
0.809263
0.558189
0.816881
0.59602
0.710806
0.827895
0.870803
0.749055
0.820669
0.854683
0.702793
0.819744
0.809948
0.815899
0.808264
0.664127
0.856362
0.738816
0.739406
0.804219
0.805319
0.800286
0.834186
0.820269
0.698699
0.818125
0.800912
0.707155
0.841896
0.799124
0.632316
0.775684
0.820247
0.811862
0.819961
0.785601
0.735153
0.774998
0.837995
0.694454
0.820547
0.820577
0.829999
0.768842
0.825547
0.702847
0.805345
0.668042
0.706203
0.803192
0.823961
0.792488
0.820128
0.820139
0.820193
0.819509
0.592656
0.80286
0.820459
0.747446
0.810937
0.820119
0.816864
0.714525
0.686986
0.745465
0.637896
0.808308
0.690007
0.820399
0.802311
0.820165
0.837927
0.684504
0.807334
0.823015
0.834359
0.745965
0.785638
0.766073
0.776396
0.815966
0.633982
0.669331
0.820263
0.806134
0.815854
0.805306
0.72192
0.783481
0.733476
0.761707
0.800714
0.83467
0.813292
0.696856
0.826746
0.820531
0.815591
0.700426
0.688009
0.690964
0.873398
0.820436
0.820302
0.62073
0.716657
0.649766
0.804449
0.801015
0.678902
0.813095
0.82657
0.755966
0.800727
0.737178
0.818945
0.698113
0.820193
0.811412
0.804886
0.803431
0.827617
0.748577
0.820453
0.820345
0.782425
0.594829
0.81765
0.815323
0.76258
0.819424
0.74837
0.804015
0.828907
0.683538
0.822147
0.802997
0.810879
0.600512
0.669418
0.740458
0.807229
0.816446
0.81535
0.824589
0.816112
0.82042
0.709709
0.802327
0.817257
0.829266
0.708924
0.736117
0.817248
0.814782
0.704267
0.815378
0.777747
0.699121
0.812787
0.701705
0.807679
0.669875
0.803151
0.730579
0.678136
0.815441
0.787898
0.749241
0.639631
0.842101
0.82195
0.818777
0.773866
0.819718
0.80083
0.789206
0.800851
0.802553
0.818844
0.740653
0.810619
0.800898
0.822688
0.610455
0.802446
0.816857
0.817703
0.815748
0.816187
0.751173
0.805986
0.766824
0.755656
0.822416
0.664198
0.822296
0.821498
0.803441
0.819512
0.820724
0.730823
0.769613
0.825522
0.788811
0.804549
0.820018
0.876086
0.821472
0.802118
0.821135
0.820258
0.795126
0.822446
0.82031
0.776056
0.712232
0.843518
0.79808
0.803532
0.823612
0.784305
0.821878
0.825573
0.82258
0.82117
0.87183
0.803475
0.805941
0.822237
0.803461
0.820062
0.807838
0.743054
0.819924
0.823481
0.754908
0.720945
0.819745
0.844368
0.823302
0.677164
0.825287
0.776287
0.812393
0.802922
0.735441
0.803375
0.799615
0.816531
0.820509
0.702991
0.71646
0.803059
0.788882
0.802824
0.826942
0.721903
0.820307
0.80334
0.801362
0.825499
0.820304
0.722906
0.820174
0.766645
0.803259
0.833484
0.804051
0.777239
0.798892
0.79558
0.820027
0.657879
0.820421
0.689919
0.696573
0.804154
0.82334
0.820347
0.803214
0.820105
0.811345
0.732407
0.788959
0.858822
0.803373
0.835434
0.808361
0.577144
0.763272
0.784209
0.661784
0.744503
0.594422
0.822288
0.818771
0.816941
0.802874
0.768602
0.693241
0.769284
0.753498
0.784089
0.820403
0.84583
0.823199
0.806689
0.820111
0.825829
0.803603
0.808903
0.714896
0.803965
0.760078
0.809556
0.798837
0.757282
0.824976
0.790071
0.804278
0.793745
0.842791
0.732397
0.801672
0.80054
0.805701
0.625884
0.820302
0.820236
0.823072
0.650896
0.82017
0.820054
0.799482
0.804554
0.794586
0.779567
0.80766
0.798256
0.820554
0.754212
0.807376
0.876308
0.766726
0.753396
0.81051
0.785213
0.844818
0.803476
0.783971
0.818806
0.799225
0.793957
0.808948
0.828734
0.838265
0.800643
0.588265
0.823963
0.831048
0.773972
0.833553
0.840355
0.826116
0.829228
0.808185
0.835401
0.829891
0.785271
0.81024
0.815984
0.810058
0.826094
0.803994
0.8281
0.794196
0.804581
0.806747
0.73392
0.808053
0.577307
0.821914
0.828479
0.831547
0.807062
0.819305
0.827184
0.820353
0.824404
0.841167
0.835769
0.791738
0.80098
0.825194
0.819647
0.821165
0.801157
0.807254
0.866936
0.823728
0.849386
0.819519
0.801476
0.825391
0.800852
0.83428
0.817697
0.818837
0.806098
0.735019
0.803513
0.805274
0.81993
0.804061
0.804694
0.822896
0.805629
0.804892
0.78006
0.82058
0.722786
0.815363
0.7846
0.762515
0.804214
0.81422
0.819721
0.724127
0.823108
0.816127
0.827295
0.821014
0.792598
0.820728
0.848198
0.834197
0.817755
0.812664
0.80225
0.749747
0.692126
0.820288
0.821606
0.775258
0.818373
0.808738
0.816104
0.806368
0.799452
0.778216
0.80281
0.800826
0.843437
0.821483
0.812511
0.807285
0.613873
0.738383
0.802995
0.787181
0.805027
0.819794
0.806886
0.820592
0.781893
0.820267
0.805719
0.815154
0.804619
0.82172
0.803381
0.82047
0.8151
0.820106
0.816884
0.725284
0.81829
0.820377
0.608276
0.820109
0.79791
0.803834
0.860359
0.821782
0.815036
0.873625
0.819824
0.81997
0.821107
0.822645
0.819137
0.766995
0.830958
0.802317
0.803757
0.818181
0.819972
0.821033
0.820069
0.817185
0.823923
0.80459
0.816369
0.810006
0.816372
0.820875
0.820139
0.815763
0.822878
0.809761
0.691248
0.670469
0.803195
0.809802
0.803932
0.815383
0.822056
0.820804
0.803432
0.805089
0.801441
0.801523
0.820802
0.846078
0.822436
0.81269
0.822221
0.822115
0.847042
0.821232
0.822162
0.78732
0.819734
0.807579
0.802504
0.793377
0.8144
0.82229
0.819989
0.819624
0.836673
0.809562
0.817768
0.820455
0.822497
0.804096
0.803921
0.806254
0.815486
0.819982
0.802174
0.806452
0.821119
0.823364
0.801685
0.657025
0.804894
0.799546
0.818392
0.799649
0.803362
0.752216
0.843096
0.803537
0.800494
0.837341
0.832561
0.811149
0.829274
0.801237
0.821805
0.820817
0.822543
0.804179
0.822181
0.737655
0.825698
0.812314
0.800946
0.8141
0.824109
0.800135
0.804629
0.786174
0.816014
0.820245
0.820297
0.822334
0.807184
0.821259
0.820295
0.828501
0.822768
0.840071
0.80684
0.70057
0.821726
0.84231
0.823447
0.80549
0.800678
0.804186
0.819578
0.815066
0.82034
0.746605
0.746099
0.801598
0.803695
0.820079
0.820304
0.802439
0.66715
0.713332
0.808807
0.770004
0.820443
0.706674
0.803352
0.732707
0.8034
0.821058
0.80336
0.821391
0.81731
0.799287
0.809494
0.796972
0.830562
0.820286
0.802076
0.804215
0.81996
0.824956
0.75453
0.825321
0.804332
0.784201
0.820215
0.804476
0.811669
0.820049
0.819928
0.837613
0.796263
0.799643
0.820146
0.762525
0.80757
0.820092
0.801754
0.820217
0.841975
0.803054
0.845159
0.811399
0.793152
0.816837
0.802895
0.852799
0.789616
0.803558
0.820526
0.83431
0.809152
0.818576
0.820234
0.803402
0.80316
0.826733
0.785632
0.819091
0.820008
0.665574
0.820141
0.717415
0.818426
0.840373
0.827495
0.804986
0.81967
0.820189
0.730944
0.820011
0.801904
0.801974
0.801607
0.820033
0.865268
0.801903
0.801833
0.787074
0.842928
0.828642
0.823114
0.817491
0.750842
0.806588
0.80347
0.735289
0.800528
0.719385
0.814814
0.801427
0.683158
0.881173
0.707316
0.77335
0.80255
0.749173
0.809153
0.799737
0.803277
0.667916
0.797598
0.785775
0.799895
0.738228
0.8224
0.825768
0.885372
0.810227
0.832417
0.653286
0.800917
0.789791
0.751585
0.75686
0.773902
0.715162
0.803698
0.800233
0.803778
0.767485
0.636981
0.81231
0.624354
0.823957
0.824826
0.812275
0.739269
0.814568
0.799121
0.822311
0.784661
0.81105
0.79795
0.814185
0.721487
0.802153
0.728111
0.801988
0.799535
0.699015
0.80446
0.820297
0.820297
0.803443
0.764868
0.819925
0.732459
0.69666
0.80275
0.820326
0.875587
0.820316
0.819122
0.881455
0.866615
0.832763
0.716923
0.80259
0.812675
0.822472
0.801254
0.693912
0.72724
0.691352
0.802684
0.701653
0.771739
0.800076
0.640735
0.686925
0.837913
0.777316
0.750242
0.83301
0.763497
0.770156
0.671646
0.736983
0.788455
0.822414
0.870626
0.839656
0.820174
0.797661
0.800345
0.722362
0.820254
0.699965
0.797842
0.820381
0.784402
0.766161
0.804549
0.786122
0.802931
0.801365
0.815972
0.811873
0.868374
0.63745
0.571977
0.802916
0.809788
0.706244
0.81118
0.803249
0.839488
0.804019
0.802653
0.585466
0.599208
0.809141
0.816716
0.820262
0.736273
0.80341
0.813306
0.693796
0.815982
0.803052
0.81919
0.803343
0.803104
0.802534
0.819642
0.803148
0.817685
0.803796
0.863489
0.819998
0.802755
0.721741
0.681442
0.819903
0.60289
0.815556
0.811116
0.837973
0.817795
0.803574
0.811548
0.818682
0.817497
0.820315
0.801979
0.854896
0.858079
0.803288
0.670122
0.811858
0.823027
0.800075
0.803504
0.822835
0.742716
0.803396
0.827567
0.824005
0.819556
0.819873
0.769999
0.746252
0.801872
0.836234
0.803983
0.817218
0.805621
0.804836
0.806166
0.81928
0.809949
0.799667
0.807667
0.807145
0.825446
0.807458
0.807028
0.82142
0.807972
0.803502
0.818411
0.803197
0.803057
0.806537
0.808943
0.818505
0.776327
0.806038
0.803055
0.820482
0.800296
0.804304
0.807676
0.834209
0.805709
0.667779
0.801343
0.819414
0.8053
0.815516
0.766492
0.819342
0.755582
0.804165
0.802511
0.804637
0.819911
0.852822
0.804974
0.803416
0.74777
0.832104
0.820305
0.823689
0.825556
0.818091
0.74382
0.821805
0.732145
0.80192
0.830241
0.802804
0.713221
0.828621
0.817772
0.820636
0.82703
0.820269
0.77588
0.821113
0.66992
0.722697
0.820364
0.825658
0.694165
0.822897
0.666046
0.8246
0.808031
0.820802
0.80338
0.806815
0.818051
0.832745
0.825745
0.664955
0.81833
0.844172
0.783458
0.848257
0.800839
0.71836
0.840797
0.823073
0.837976
0.703589
0.700655
0.835438
0.680359
0.833276
0.820292
0.831373
0.807158
0.829775
0.78929
0.828386
0.827108
0.719135
0.867053
0.826024
0.825118
0.82429
0.763564
0.803235
0.573031
0.806623
0.824343
0.818453
0.805681
0.828835
0.820522
0.798786
0.82367
0.803337
0.698395
0.793725
0.835159
0.819598
0.725676
0.802754
0.822276
0.59729
0.819782
0.820337
0.803638
0.810762
0.734434
0.820679
0.803304
0.803951
0.797058
0.797571
0.799023
0.795684
0.803411
0.817904
0.82008
0.818811
0.586772
0.893667
0.716234
0.798842
0.746411
0.792711
0.820478
0.820354
0.820337
0.616912
0.822365
0.81799
0.80468
0.821175
0.837699
0.840416
0.784385
0.799181
0.800328
0.73515
0.758405
0.820269
0.767606
0.815995
0.822754
0.819838
0.814321
0.802333
0.779622
0.812889
0.82058
0.733229
0.81145
0.820454
0.822052
0.80873
0.810329
0.769593
0.819976
0.809062
0.803584
0.808287
0.62955
0.807358
0.805122
0.806759
0.82468
0.846441
0.805521
0.778938
0.806107
0.773427
0.823766
0.809512
0.81822
0.820504
0.851042
0.803902
0.747421
0.820592
0.820279
0.732588
0.802036
0.82068
0.760812
0.818142
0.583482
0.807528
0.691679
0.802367
0.813446
0.816965
0.821383
0.804888
0.81888
0.821512
0.801863
0.805635
0.845417
0.820549
0.797319
0.819944
0.803266
0.802833
0.800975
0.802105
0.810453
0.819863
0.80248
0.774886
0.822249
0.815244
0.809718
0.820499
0.600035
0.804382
0.814496
0.820241
0.791346
0.75387
0.718934
0.81795
0.820335
0.828878
0.793301
0.615225
0.77498
0.656812
0.821023
0.745946
0.817718
0.831413
0.709608
0.800456
0.836299
0.756261
0.801344
0.803524
0.81992
0.804846
0.704592
0.801408
0.573949
0.802707
0.803017
0.802825
0.654088
0.803246
0.803985
0.80375
0.733067
0.74205
0.803972
0.779809
0.820364
0.727253
0.712299
0.820033
0.802132
0.756735
0.855529
0.819186
0.817724
0.67702
0.803488
0.801155
0.801159
0.802807
0.666921
0.80385
0.820212
0.662757
0.692216
0.806806
0.793422
0.820262
0.825269
0.819584
0.819848
0.820682
0.804252
0.820243
0.819463
0.815728
0.830293
0.803534
0.802473
0.811493
0.736876
0.810399
0.819322
0.86401
0.813501
0.64765
0.779307
0.802743
0.778223
0.820941
0.816222
0.831986
0.815249
0.865816
0.803131
0.819191
0.608137
0.816835
0.835787
0.803183
0.819643
0.635875
0.819371
0.803038
0.820901
0.802598
0.821509
0.820383
0.755565
0.804272
0.803317
0.837106
0.863259
0.820621
0.820601
0.725087
0.749064
0.80292
0.803604
0.813246
0.821889
0.800267
0.803398
0.823004
0.810052
0.808371
0.740135
0.803109
0.821166
0.817486
0.771645
0.7615
0.815502
0.797475
0.858547
0.723725
0.83668
0.814877
0.710232
0.800744
0.819051
0.788456
0.801236
0.800631
0.819809
0.781145
0.775513
0.818426
0.695334
0.799416
0.769808
0.819805
0.821408
0.802691
0.791024
0.744021
0.757143
0.777188
0.819747
0.822718
0.809337
0.680128
0.80518
0.798957
0.779237
0.810564
0.817881
0.800588
0.80436
0.654218
0.805192
0.805815
0.853186
0.804305
0.810216
0.835546
0.806496
0.814204
0.853956
0.630515
0.804662
0.82063
0.806199
0.805787
0.806529
0.805272
0.805427
0.804864
0.806646
0.8075
0.730927
0.806566
0.808196
0.809743
0.819252
0.809308
0.821461
0.803337
0.804107
0.81916
0.819177
0.814334
0.803489
0.816995
0.814365
0.812782
0.82033
0.716002
0.818743
0.833902
0.819877
0.856054
0.753617
0.811742
0.820353
0.802105
0.657094
0.803726
0.775611
0.82532
0.635395
0.820291
0.832071
0.819825
0.81491
0.802641
0.828218
0.821599
0.804377
0.768275
0.821181
0.760765
0.566471
0.819833
0.691472
0.703878
0.821132
0.830345
0.830348
0.820892
0.849462
0.622712
0.877906
0.806154
0.828786
0.827262
0.817346
0.692283
0.82013
0.825869
0.820733
0.802315
0.774813
0.823
0.583358
0.816274
0.845295
0.803726
0.841895
0.824766
0.803406
0.682108
0.844432
0.82384
0.838861
0.801702
0.817103
0.803264
0.836366
0.803345
0.817174
0.834074
0.832055
0.822766
0.827512
0.831845
0.739767
0.677357
0.596614
0.830333
0.828922
0.770524
0.760869
0.810164
0.827605
0.847706
0.609948
0.826431
0.825446
0.824635
0.823304
0.804915
0.821539
0.676417
0.750372
0.823933
0.798449
0.871185
0.890909
0.778827
0.807533
0.676111
0.836481
0.739099
0.729546
0.819921
0.802704
0.785352
0.681909
0.802566
0.820113
0.790411
0.723703
0.80408
0.817964
0.799147
0.695667
0.825511
0.794086
0.820376
0.835805
0.815991
0.799353
0.820629
0.820485
0.787312
0.804795
0.72237
0.841532
0.794332
0.814916
0.783927
0.805212
0.710007
0.801322
0.814346
0.81298
0.811816
0.81032
0.809222
0.808457
0.80682
0.80567
0.807631
0.735245
0.806237
0.801867
0.796983
0.803878
0.84536
0.725631
0.803628
0.777942
0.884747
0.855519
0.79894
0.732478
0.804365
0.798663
0.726634
0.803907
0.802629
0.741846
0.804538
0.793746
0.798345
0.801937
0.741512
0.78384
0.807778
0.753513
0.766629
0.774099
0.802272
0.819351
0.80944
0.764005
0.754242
0.80034
0.819026
0.803763
0.795678
0.801607
0.928555
0.861803
0.821245
0.820385
0.724
0.846284
0.751525
0.827139
0.818709
0.898691
0.820399
0.798107
0.601758
0.820358
0.798245
0.82032
0.798671
0.847127
0.569033
0.835319
0.802225
0.806622
0.805801
0.804767
0.856993
0.801903
0.821415
0.706721
0.651712
0.672865
0.820294
0.547361
0.798622
0.729026
0.843435
0.815989
0.572748
0.80465
0.819695
0.819524
0.723809
0.802604
0.541958
0.7983
0.820283
0.798442
0.803247
0.798698
0.820307
0.83576
0.803399
0.79945
0.820478
0.79973
0.820557
0.815377
0.800029
0.820657
0.818604
0.820783
0.800192
0.820934
0.685473
0.800406
0.821111
0.803404
0.800616
0.821293
0.707415
0.820259
0.799058
0.820457
0.799674
0.814038
0.839497
0.86287
0.801542
0.801738
0.822019
0.816428
0.801367
0.80098
0.864645
0.814762
0.821763
0.814498
0.851539
0.83145
0.82074
0.826919
0.848314
0.820256
0.802909
0.823035
0.813974
0.803346
0.820011
0.801087