# vtk DataFile Version 1.0
unstructured grid
ascii
DATASET UNSTRUCTURED_GRID
points 3920 float
-1 0 0
-1 1 0
2 0 0
2 1 0
0 0 0
1 0 0
-1 1 0.1
-1 0 0.1
0 0 0.1
1 0 0.1
2 0 0.1
2 1 0.1
-0.98 0 0
-0.96 0 0
-0.94 0 0
-0.92 0 0
-0.9 0 0
-0.88 0 0
-0.86 0 0
-0.84 0 0
-0.82 0 0
-0.8 0 0
-0.78 0 0
-0.76 0 0
-0.74 0 0
-0.72 0 0
-0.7 0 0
-0.68 0 0
-0.66 0 0
-0.64 0 0
-0.62 0 0
-0.6 0 0
-0.58 0 0
-0.56 0 0
-0.54 0 0
-0.52 0 0
-0.5 0 0
-0.48 0 0
-0.46 0 0
-0.44 0 0
-0.42 0 0
-0.4 0 0
-0.38 0 0
-0.36 0 0
-0.34 0 0
-0.32 0 0
-0.3 0 0
-0.28 0 0
-0.26 0 0
-0.24 0 0
-0.22 0 0
-0.2 0 0
-0.18 0 0
-0.16 0 0
-0.14 0 0
-0.12 0 0
-0.1 0 0
-0.08 0 0
-0.06 0 0
-0.04 0 0
-0.02 0 0
1.02 0 0
1.04 0 0
1.06 0 0
1.08 0 0
1.1 0 0
1.12 0 0
1.14 0 0
1.16 0 0
1.18 0 0
1.2 0 0
1.22 0 0
1.24 0 0
1.26 0 0
1.28 0 0
1.3 0 0
1.32 0 0
1.34 0 0
1.36 0 0
1.38 0 0
1.4 0 0
1.42 0 0
1.44 0 0
1.46 0 0
1.48 0 0
1.5 0 0
1.52 0 0
1.54 0 0
1.56 0 0
1.58 0 0
1.6 0 0
1.62 0 0
1.64 0 0
1.66 0 0
1.68 0 0
1.7 0 0
1.72 0 0
1.74 0 0
1.76 0 0
1.78 0 0
1.8 0 0
1.82 0 0
1.84 0 0
1.86 0 0
1.88 0 0
1.9 0 0
1.92 0 0
1.94 0 0
1.96 0 0
1.98 0 0
2 0.0199133 0
2 0.0414128 0
2 0.0646247 0
2 0.0896856 0
2 0.116743 0
2 0.145955 0
2 0.177494 0
2 0.211545 0
2 0.248309 0
2 0.288001 0
2 0.330854 0
2 0.377121 0
2 0.427073 0
2 0.481004 0
2 0.539231 0
2 0.602096 0
2 0.669968 0
2 0.743247 0
2 0.822362 0
2 0.907779 0
1.9 1 0
1.8 1 0
1.7 1 0
1.6 1 0
1.5 1 0
1.4 1 0
1.3 1 0
1.2 1 0
1.1 1 0
1 1 0
0.9 1 0
0.8 1 0
0.7 1 0
0.6 1 0
0.5 1 0
0.4 1 0
0.3 1 0
0.2 1 0
0.1 1 0
3.69793e-12 1 0
-0.1 1 0
-0.2 1 0
-0.3 1 0
-0.4 1 0
-0.5 1 0
-0.6 1 0
-0.7 1 0
-0.8 1 0
-0.9 1 0
-1 0.907779 0
-1 0.822362 0
-1 0.743247 0
-1 0.669968 0
-1 0.602096 0
-1 0.539231 0
-1 0.481004 0
-1 0.427073 0
-1 0.377121 0
-1 0.330854 0
-1 0.288001 0
-1 0.248309 0
-1 0.211545 0
-1 0.177494 0
-1 0.145955 0
-1 0.116743 0
-1 0.0896856 0
-1 0.0646247 0
-1 0.0414128 0
-1 0.0199133 0
0.0182781 0.00745351 0
0.0366672 0.0146286 0
0.0551632 0.0215237 0
0.0737617 0.0281372 0
0.0924585 0.0344675 0
0.111249 0.0405131 0
0.13013 0.0462728 0
0.149095 0.0517451 0
0.168142 0.0569289 0
0.187265 0.0618228 0
0.20646 0.0664258 0
0.225723 0.0707368 0
0.245049 0.0747549 0
0.264434 0.078479 0
0.283873 0.0819084 0
0.303362 0.0850422 0
0.322896 0.0878798 0
0.342472 0.0904204 0
0.362083 0.0926635 0
0.381726 0.0946086 0
0.401397 0.0962552 0
0.42109 0.0976029 0
0.440802 0.0986514 0
0.460527 0.0994006 0
0.480261 0.0998501 0
0.5 0.1 0
0.519739 0.0998501 0
0.539473 0.0994006 0
0.559198 0.0986514 0
0.57891 0.0976029 0
0.598603 0.0962552 0
0.618274 0.0946086 0
0.637917 0.0926635 0
0.657528 0.0904204 0
0.677104 0.0878798 0
0.696638 0.0850422 0
0.716127 0.0819084 0
0.735566 0.078479 0
0.754951 0.0747549 0
0.774277 0.0707368 0
0.79354 0.0664258 0
0.812735 0.0618228 0
0.831858 0.0569289 0
0.850905 0.0517451 0
0.86987 0.0462728 0
0.888751 0.0405131 0
0.907542 0.0344675 0
0.926238 0.0281372 0
0.944837 0.0215237 0
0.963333 0.0146286 0
0.981722 0.00745351 0
-1 0.907779 0.1
-1 0.822362 0.1
-1 0.743247 0.1
-1 0.669968 0.1
-1 0.602096 0.1
-1 0.539231 0.1
-1 0.481004 0.1
-1 0.427073 0.1
-1 0.377121 0.1
-1 0.330854 0.1
-1 0.288001 0.1
-1 0.248309 0.1
-1 0.211545 0.1
-1 0.177494 0.1
-1 0.145955 0.1
-1 0.116743 0.1
-1 0.0896856 0.1
-1 0.0646247 0.1
-1 0.0414128 0.1
-1 0.0199133 0.1
-0.98 0 0.1
-0.96 0 0.1
-0.94 0 0.1
-0.92 0 0.1
-0.9 0 0.1
-0.88 0 0.1
-0.86 0 0.1
-0.84 0 0.1
-0.82 0 0.1
-0.8 0 0.1
-0.78 0 0.1
-0.76 0 0.1
-0.74 0 0.1
-0.72 0 0.1
-0.7 0 0.1
-0.68 0 0.1
-0.66 0 0.1
-0.64 0 0.1
-0.62 0 0.1
-0.6 0 0.1
-0.58 0 0.1
-0.56 0 0.1
-0.54 0 0.1
-0.52 0 0.1
-0.5 0 0.1
-0.48 0 0.1
-0.46 0 0.1
-0.44 0 0.1
-0.42 0 0.1
-0.4 0 0.1
-0.38 0 0.1
-0.36 0 0.1
-0.34 0 0.1
-0.32 0 0.1
-0.3 0 0.1
-0.28 0 0.1
-0.26 0 0.1
-0.24 0 0.1
-0.22 0 0.1
-0.2 0 0.1
-0.18 0 0.1
-0.16 0 0.1
-0.14 0 0.1
-0.12 0 0.1
-0.1 0 0.1
-0.08 0 0.1
-0.06 0 0.1
-0.04 0 0.1
-0.02 0 0.1
0.0182781 0.00745351 0.1
0.0366672 0.0146286 0.1
0.0551632 0.0215237 0.1
0.0737617 0.0281372 0.1
0.0924585 0.0344675 0.1
0.111249 0.0405131 0.1
0.13013 0.0462728 0.1
0.149095 0.0517451 0.1
0.168142 0.0569289 0.1
0.187265 0.0618228 0.1
0.20646 0.0664258 0.1
0.225723 0.0707368 0.1
0.245049 0.0747549 0.1
0.264434 0.078479 0.1
0.283873 0.0819084 0.1
0.303362 0.0850422 0.1
0.322896 0.0878798 0.1
0.342472 0.0904204 0.1
0.362083 0.0926635 0.1
0.381726 0.0946086 0.1
0.401397 0.0962552 0.1
0.42109 0.0976029 0.1
0.440802 0.0986514 0.1
0.460527 0.0994006 0.1
0.480261 0.0998501 0.1
0.5 0.1 0.1
0.519739 0.0998501 0.1
0.539473 0.0994006 0.1
0.559198 0.0986514 0.1
0.57891 0.0976029 0.1
0.598603 0.0962552 0.1
0.618274 0.0946086 0.1
0.637917 0.0926635 0.1
0.657528 0.0904204 0.1
0.677104 0.0878798 0.1
0.696638 0.0850422 0.1
0.716127 0.0819084 0.1
0.735566 0.078479 0.1
0.754951 0.0747549 0.1
0.774277 0.0707368 0.1
0.79354 0.0664258 0.1
0.812735 0.0618228 0.1
0.831858 0.0569289 0.1
0.850905 0.0517451 0.1
0.86987 0.0462728 0.1
0.888751 0.0405131 0.1
0.907542 0.0344675 0.1
0.926238 0.0281372 0.1
0.944837 0.0215237 0.1
0.963333 0.0146286 0.1
0.981722 0.00745351 0.1
1.02 0 0.1
1.04 0 0.1
1.06 0 0.1
1.08 0 0.1
1.1 0 0.1
1.12 0 0.1
1.14 0 0.1
1.16 0 0.1
1.18 0 0.1
1.2 0 0.1
1.22 0 0.1
1.24 0 0.1
1.26 0 0.1
1.28 0 0.1
1.3 0 0.1
1.32 0 0.1
1.34 0 0.1
1.36 0 0.1
1.38 0 0.1
1.4 0 0.1
1.42 0 0.1
1.44 0 0.1
1.46 0 0.1
1.48 0 0.1
1.5 0 0.1
1.52 0 0.1
1.54 0 0.1
1.56 0 0.1
1.58 0 0.1
1.6 0 0.1
1.62 0 0.1
1.64 0 0.1
1.66 0 0.1
1.68 0 0.1
1.7 0 0.1
1.72 0 0.1
1.74 0 0.1
1.76 0 0.1
1.78 0 0.1
1.8 0 0.1
1.82 0 0.1
1.84 0 0.1
1.86 0 0.1
1.88 0 0.1
1.9 0 0.1
1.92 0 0.1
1.94 0 0.1
1.96 0 0.1
1.98 0 0.1
2 0.0199133 0.1
2 0.0414128 0.1
2 0.0646247 0.1
2 0.0896856 0.1
2 0.116743 0.1
2 0.145955 0.1
2 0.177494 0.1
2 0.211545 0.1
2 0.248309 0.1
2 0.288001 0.1
2 0.330854 0.1
2 0.377121 0.1
2 0.427073 0.1
2 0.481004 0.1
2 0.539231 0.1
2 0.602096 0.1
2 0.669968 0.1
2 0.743247 0.1
2 0.822362 0.1
2 0.907779 0.1
1.9 1 0.1
1.8 1 0.1
1.7 1 0.1
1.6 1 0.1
1.5 1 0.1
1.4 1 0.1
1.3 1 0.1
1.2 1 0.1
1.1 1 0.1
1 1 0.1
0.9 1 0.1
0.8 1 0.1
0.7 1 0.1
0.6 1 0.1
0.5 1 0.1
0.4 1 0.1
0.3 1 0.1
0.2 1 0.1
0.1 1 0.1
3.69793e-12 1 0.1
-0.1 1 0.1
-0.2 1 0.1
-0.3 1 0.1
-0.4 1 0.1
-0.5 1 0.1
-0.6 1 0.1
-0.7 1 0.1
-0.8 1 0.1
-0.9 1 0.1
1.08758 0.0158154 0
-0.0898513 0.0203294 0
0.0966181 0.0537636 0
0.90205 0.0548881 0
1.21055 0.0202058 0
-0.209811 0.0159577 0
1.3305 0.0176902 0
-0.33 0.0173205 0
1.45324 0.0148141 0
-0.448654 0.0159854 0
1.56842 0.0191785 0
-0.569936 0.0166364 0
0.193292 0.0805369 0
0.805051 0.0813623 0
0.709096 0.100353 0
0.288591 0.0996656 0
0.390184 0.111848 0
0.61033 0.111742 0
0.488809 0.116278 0
1.67175 0.0169692 0
-0.67 0.0169809 0
-0.955017 0.454039 0
1.95131 0.44569 0
1.74981 0.0168753 0
-0.75 0.0173205 0
-0.968032 0.266538 0
1.96871 0.266267 0
0.978232 0.0305687 0
0.0208675 0.026451 0
-0.150454 0.91842 0
1.13854 0.907437 0
1.45012 0.904365 0
-0.445923 0.908903 0
-0.853423 0.0157019 0
1.84881 0.016319 0
0.853689 0.915652 0
0.153944 0.912184 0
0.545151 0.914125 0
0.549913 0.115152 0
1.51 0.0173205 0
-0.506989 0.01651 0
1.27 0.0173205 0
1.14976 0.0173333 0
-0.268171 0.0206442 0
-0.150501 0.0153244 0
-0.391384 0.0153993 0
1.38886 0.0171544 0
-0.973694 0.161724 0
1.97441 0.162392 0
-0.945221 0.633523 0
1.94544 0.63312 0
1.91008 0.0186068 0
-0.91 0.0169616 0
-0.030664 0.0194327 0
1.03074 0.0165456 0
-0.966065 0.353575 0
1.96128 0.359765 0
1.93879 0.781254 0
-0.937057 0.781882 0
-0.980746 0.080709 0
1.9772 0.0760699 0
0.058735 0.0409372 0
0.355202 0.913001 0
0.86356 0.0661005 0
0.134223 0.0651111 0
0.941972 0.0397386 0
-0.653034 0.915003 0
1.65328 0.904589 0
0.770126 0.0881325 0
0.232946 0.0902008 0
0.330582 0.105648 0
0.670612 0.108365 0
0.428707 0.116145 0
1.80993 0.016629 0
-0.810168 0.0172178 0
-0.71 0.0173205 0
1.63047 0.0175504 0
1.70842 0.0169661 0
-0.628824 0.0181787 0
-0.949815 0.0133898 0
1.95 0.0173205 0
1.85542 0.907891 0
-0.85 0.913397 0
1.9833 0.0307692 0
-0.983315 0.0309709 0
-0.750025 0.916468 0
-0.701107 0.836904 0
-0.607741 0.836428 0
-0.656448 0.759827 0
-0.572936 0.758144 0
-0.61411 0.691195 0
-0.539534 0.689068 0
-0.578542 0.626111 0
-0.507461 0.624216 0
-0.544001 0.566638 0
-0.477696 0.564279 0
-0.511582 0.51001 0
-0.451689 0.507147 0
-0.481834 0.457732 0
-0.426137 0.454624 0
-0.453236 0.407539 0
-0.398845 0.406233 0
-0.507958 0.409496 0
-0.368427 0.460177 0
-0.344602 0.405209 0
-0.315696 0.447824 0
-0.294128 0.402169 0
-0.262844 0.444518 0
-0.241968 0.388746 0
-0.209878 0.439557 0
-0.185184 0.391135 0
-0.156687 0.437338 0
-0.133719 0.390776 0
-0.104405 0.434306 0
-0.0818745 0.388334 0
-0.0528785 0.431165 0
-0.0305984 0.385639 0
-0.00180552 0.427863 0
0.0194564 0.382608 0
0.0485809 0.42449 0
0.0701962 0.37973 0
0.0985483 0.421145 0
0.119893 0.377339 0
0.147837 0.417911 0
0.172552 0.36751 0
0.197018 0.412597 0
0.221203 0.37141 0
0.24512 0.409646 0
-0.48178 0.364657 0
-0.531053 0.364782 0
-0.0599102 0.344151 0
-0.324909 0.359566 0
0.266181 0.368462 0
0.292132 0.407649 0
0.311992 0.365779 0
0.338918 0.404821 0
0.357567 0.355909 0
0.384723 0.40053 0
0.404675 0.359681 0
0.430617 0.398558 0
0.450457 0.35827 0
0.474237 0.395182 0
0.496746 0.34898 0
0.520548 0.397931 0
0.542071 0.353121 0
0.566011 0.389914 0
0.585061 0.350856 0
0.609352 0.38696 0
0.629069 0.348168 0
0.655979 0.391217 0
0.67472 0.346182 0
0.699346 0.381414 0
0.719333 0.341965 0
0.743718 0.377547 0
0.764028 0.339036 0
0.788201 0.373582 0
0.807659 0.336101 0
0.832821 0.372249 0
0.852309 0.334017 0
0.877785 0.370339 0
0.897875 0.331141 0
0.922904 0.366281 0
0.943173 0.327335 0
0.968282 0.363358 0
0.989029 0.324222 0
1.01391 0.361511 0
1.03465 0.321428 0
1.05949 0.358447 0
1.08389 0.312052 0
1.10575 0.355104 0
1.12889 0.31562 0
1.15067 0.353235 0
1.17157 0.312819 0
1.19626 0.349369 0
1.21618 0.309863 0
1.2416 0.346914 0
1.26131 0.30715 0
1.28691 0.344312 0
1.30571 0.303752 0
1.33144 0.341222 0
1.35018 0.300911 0
1.3758 0.338308 0
1.39501 0.298931 0
1.42015 0.335235 0
1.43904 0.296349 0
1.46355 0.330194 0
1.48256 0.293347 0
1.50685 0.326967 0
1.52589 0.29055 0
1.54996 0.325305 0
1.56909 0.287929 0
[...]
CELL_DATA 3694
SCALARS rho float
LOOKUP_TABLE default
0.737396
0.674549
0.803989
0.814881
0.82776
0.805351
0.792058
0.800384
0.811721
0.802956
0.818984
0.818977
0.841049
0.789872
0.801159
0.753777
0.803408
0.803197
0.762962
0.850863
0.818646
0.824501
0.703909
0.803591
0.700581
0.839985
0.72103
0.806769
0.837616
0.798891
0.799071
0.719106
0.803708
0.825222
0.803155
0.799157
0.838124
0.824279
0.82608
0.778522
0.804888
0.817791
0.834955
0.825807
0.805549
0.814776
0.801279
0.678797
0.682319
0.726093
0.802274
0.803011
0.847664
0.802394
0.642388
0.839028
0.802981
0.820443
0.833094
0.75599
0.796699
0.817022
0.843124
0.79999
0.843702
0.83209
0.808064
0.815464
0.736677
0.85917
0.803229
0.807876
0.824524
0.803374
0.825859
0.802994
0.814556
0.799944
0.815628
0.802943
0.718904
0.818892
0.802443
0.777174
0.811498
0.799908
0.819797
0.719779
0.736004
0.826258
0.800785
0.802651
0.821026
0.81687
0.677798
0.8068
0.725281
0.819442
0.814131
0.841009
0.816456
0.765266
0.717809
0.811501
0.810939
0.817017
0.819423
0.8073
0.717981
0.816034
0.799602
0.727712
0.720312
0.824664
0.868666
0.802461
0.801365
0.813935
0.803216
0.802355
0.766313
0.822972
0.821183
0.771776
0.703338
0.760084
0.819062
0.779145
0.844451
0.706109
0.767854
0.800814
0.808234
0.778575
0.801393
0.797134
0.805707
0.802547
0.798294
0.816379
0.815489
0.714426
0.818625
0.815519
0.759177
0.680699
0.679965
0.798446
0.817807
0.813434
0.747606
0.802849
0.567047
0.780323
0.693952
0.766137
0.715893
0.785447
0.611681
0.793569
0.837975
0.648497
0.782858
0.739235
0.845205
0.564892
0.817687
0.80078
0.803356
0.676358
0.80167
0.666967
0.858703
0.562721
0.800227
0.64679
0.873255
0.834592
0.82213
0.745379
0.815798
0.721301
0.828334
0.737625
0.652138
0.803225
0.677012
0.824872
0.8019
0.851944
0.792278
0.701909
0.816759
0.79871
0.744818
0.853596
0.811744
0.84969
0.738737
0.74628
0.772073
0.795383
0.83302
0.834686
0.81722
0.816013
0.673894
0.80485
0.730624
0.803318
0.715066
0.798784
0.795963
0.801845
0.827158
0.766329
0.831755
0.751451
0.827101
0.821324
0.817766
0.853817
0.829906
0.709869
0.828479
0.680783
0.788441
0.811615
0.852112
0.831483
0.810049
0.794988
0.748508
0.819327
0.837875
0.81915
0.719038
0.801496
0.700999
0.794029
0.795822
0.811677
0.64554
0.807988
0.760268
0.79831
0.803184
0.761379
0.817115
0.866537
0.784566
0.689743
0.804832
0.802112
0.650887
0.794235
0.778901
0.802437
0.839948
0.816768
0.613462
0.817112
0.810595
0.798708
0.817348
0.802813
0.815731
0.815938
0.836083
0.758358
0.802028
0.836124
0.81101
0.803222
0.796548
0.81695
0.728412
0.593092
0.818587
0.830081
0.822015
0.80489
0.689924
0.817346
0.817105
0.818296
0.719057
0.798674
0.81704
0.568868
0.802939
0.869846
0.679639
0.759488
0.839845
0.828216
0.816802
0.705015
0.809762
0.817038
0.804038
0.802051
0.812528
0.837645
0.817915
0.768415
0.807344
0.803185
0.650179
0.822617
0.829292
0.676466
0.792866
0.820548
0.82131
0.682853
0.668284
0.823022
0.825577
0.80987
0.733338
0.710256
0.716934
0.737195
0.82193
0.778976
0.804398
0.737109
0.742223
0.824053
0.81194
0.819759
0.771865
0.817114
0.815763
0.819105
0.817741
0.802908
0.807976
0.804379
0.688924
0.802835
0.813265
0.70268
0.807729
0.805374
0.821107
0.786494
0.806339
0.792395
0.816928
0.822607
0.821826
0.798615
0.690721
0.717219
0.799761
0.811227
0.631578
0.804103
0.808061
0.81766
0.746031
0.804553
0.818114
0.813473
0.819554
0.805291
0.797713
0.766784
0.804869
0.844686
0.82066
0.705059
0.804066
0.708245
0.703648
0.803298
0.618873
0.771782
0.785504
0.808443
0.815475
0.826662
0.818854
0.814139
0.821836
0.829662
0.802942
0.766907
0.810135
0.664079
0.820906
0.759404
0.731666
0.696164
0.815901
0.854877
0.820931
0.809351
0.822735
0.817255
0.787566
0.760934
0.811431
0.695939
0.791681
0.844593
0.827
0.801066
0.864928
0.813736
0.818175
0.819315
0.831432
0.637591
0.80046
0.736067
0.798344
0.73516
0.820444
0.809003
0.788996
0.677212
0.816805
0.830507
0.81383
0.803173
0.804007
0.825882
0.804075
0.716976
0.790838
0.803186
0.816747
0.815742
0.814433
0.872414
0.829265
0.809707
0.833471
0.686234
0.824978
0.838889
0.818041
0.63185
0.817237
0.809611
0.846638
0.822991
0.803078
0.597926
0.810526
0.701925
0.806394
0.802984
0.812807
0.815597
0.825609
0.805326
0.811617
0.817834
0.729565
0.863842
0.802154
0.851259
0.818182
0.583815
0.804114
0.797175
0.813501
0.819429
0.664629
0.802952
0.809972
0.813418
0.80742
0.794284
0.817517
0.81907
0.798067
0.804491
0.823052
0.837962
0.735306
0.806584
0.810291
0.814958
0.685634
0.805624
0.81768
0.799683
0.804473
0.551365
0.834299
0.766518
0.816713
0.819499
0.832249
0.847284
0.8179
0.813577
0.721343
0.799381
0.853284
0.810302
0.712534
0.80057
0.802706
0.873001
0.846453
0.820776
0.802226
0.810058
0.757509
0.817313
0.814402
0.591169
0.802968
0.734634
0.751033
0.80349
0.813328
0.781621
0.822038
0.817194
0.838812
0.817685
0.800804
0.810654
0.738473
0.73958
0.80441
0.809864
0.822623
0.802654
0.752629
0.694689
0.815597
0.815711
0.814405
0.600688
0.815668
0.818157
0.826275
0.803303
0.810345
0.821275
0.812211
0.840705
0.803155
0.813046
0.825173
0.817514
0.819172
0.822883
0.695998
0.784907
0.796488
0.803376
0.848757
0.802195
0.804304
0.639321
0.812353
0.815415
0.811263
0.820776
0.806078
0.815151
0.729443
0.844819
0.706099
0.800847
0.819139
0.807571
0.668062
0.675403
0.816057
0.805982
0.804704
0.787479
0.801688
0.830698
0.815302
0.805269
0.802528
0.814135
0.623857
0.814323
0.803493
0.706219
0.817274
0.633453
0.786219
0.817368
0.838863
0.807772
0.814513
0.794477
0.797246
0.804514
0.801605
0.813991
0.811624
0.810871
0.803392
0.757625
0.804342
0.814578
0.814018
0.817751
0.813515
0.817801
0.816933
0.835362
0.742393
0.807124
0.817541
0.802883
0.551206
0.690243
0.8119
0.815321
0.817161
0.780982
0.808989
0.813434
0.803638
0.800264
0.803138
0.821351
0.822211
0.816999
0.786938
0.809855
0.807534
0.620468
0.775181
0.759696
0.807881
0.737828
0.685071
0.798111
0.768807
0.829186
0.81699
0.816726
0.808768
0.548823
0.816275
0.589695
0.704078
0.826237
0.870491
0.745614
0.818379
0.853939
0.698998
0.817245
0.809452
0.815407
0.807831
0.660211
0.85562
0.737644
0.73516
0.803677
0.804871
0.799965
0.833927
0.817178
0.694973
0.816932
0.800497
0.700141
0.840805
0.798681
0.62715
0.774169
0.817582
0.809748
0.816828
0.784903
0.730531
0.772768
0.837738
0.691575
0.817852
0.818934
0.828454
0.767181
0.823711
0.697546
0.804887
0.664343
0.703514
0.801992
0.823444
0.790608
0.816659
0.817318
0.817187
0.816067
0.584887
0.802702
0.817038
0.745487
0.810454
0.817344
0.813813
0.713989
0.687949
0.743475
0.629167
0.807844
0.685911
0.817579
0.80212
0.81701
0.837649
0.686119
0.806055
0.821384
0.833596
0.742285
0.783886
0.765267
0.77485
0.814076
0.602056
0.673293
0.81727
0.805656
0.81403
0.804861
0.717666
0.782021
0.729241
0.760943
0.800198
0.833345
0.812775
0.694097
0.825009
0.819294
0.812882
0.693614
0.688591
0.68641
0.872979
0.817778
0.818337
0.614851
0.714091
0.645544
0.803926
0.800735
0.675381
0.81255
0.825699
0.752871
0.800125
0.733619
0.816103
0.695325
0.816806
0.810961
0.80328
0.803233
0.826761
0.746535
0.817671
0.817026
0.781284
0.571406
0.817038
0.812836
0.760209
0.815957
0.747573
0.803465
0.827788
0.673499
0.819925
0.802853
0.810461
0.59197
0.661451
0.737979
0.806738
0.813983
0.812758
0.822733
0.815492
0.817851
0.707135
0.802145
0.814982
0.827764
0.706274
0.731625
0.814255
0.81343
0.700403
0.814947
0.776232
0.699224
0.812316
0.698889
0.806019
0.666185
0.80298
0.729783
0.672642
0.813054
0.786946
0.746873
0.635347
0.841263
0.821617
0.816686
0.772247
0.816274
0.800517
0.787811
0.800434
0.802029
0.81689
0.736598
0.810131
0.800514
0.820542
0.604375
0.80193
0.814734
0.815662
0.81345
0.81398
0.748664
0.804637
0.765333
0.753173
0.820357
0.655704
0.820281
0.819426
0.80323
0.817371
0.81859
0.726075
0.768861
0.823748
0.78724
0.804058
0.81782
0.875825
0.819678
0.800255
0.818672
0.817297
0.794434
0.820265
0.818559
0.774545
0.7058
0.842478
0.79751
0.803323
0.823197
0.782868
0.819645
0.825275
0.820429
0.818736
0.871399
0.803256
0.8054
0.820046
0.803244
0.817342
0.807332
0.739544
0.817253
0.821444
0.754128
0.715216
0.817125
0.844046
0.822907
0.666409
0.82343
0.774883
0.810204
0.802432
0.732722
0.803218
0.799222
0.816041
0.818613
0.699241
0.711
0.802631
0.788154
0.802228
0.826071
0.721221
0.817015
0.802875
0.800801
0.824634
0.817386
0.718297
0.817558
0.764814
0.802762
0.833214
0.803661
0.775469
0.79837
0.795059
0.817051
0.63902
0.817004
0.690821
0.688647
0.803759
0.821279
0.817032
0.802865
0.817088
0.81002
0.728551
0.788299
0.858161
0.803165
0.834659
0.807845
0.557325
0.762523
0.782214
0.654841
0.741345
0.586365
0.821382
0.815344
0.815533
0.802655
0.767518
0.689094
0.76706
0.752634
0.782974
0.816977
0.845609
0.821123
0.806186
0.819772
0.824968
0.803121
0.808268
0.710435
0.80352
0.758299
0.809061
0.79842
0.754667
0.823769
0.789154
0.803869
0.791908
0.842026
0.730064
0.801308
0.800038
0.80522
0.621579
0.817417
0.817308
0.82253
0.641186
0.817199
0.817177
0.799077
0.804135
0.793806
0.777605
0.806978
0.796551
0.817857
0.753372
0.805638
0.876038
0.764653
0.750857
0.808779
0.784496
0.843828
0.801777
0.78195
0.817097
0.798609
0.79317
0.808448
0.827122
0.837076
0.800084
0.580879
0.8221
0.829689
0.772903
0.832185
0.839425
0.824448
0.827767
0.80767
0.834256
0.828352
0.784411
0.809623
0.81329
0.808155
0.824317
0.803619
0.827813
0.793489
0.80388
0.806206
0.730453
0.807532
0.568848
0.819722
0.826861
0.83009
0.806422
0.81879
0.825486
0.819919
0.822477
0.840073
0.83449
0.789968
0.800712
0.823342
0.817207
0.818764
0.800727
0.806744
0.866455
0.821727
0.848515
0.816954
0.801081
0.825054
0.800249
0.834025
0.815277
0.817009
0.805605
0.730836
0.803169
0.804814
0.816999
0.803595
0.803536
0.822524
0.805159
0.804451
0.778885
0.820175
0.720156
0.814791
0.782614
0.76058
0.803816
0.813729
0.819397
0.719861
0.821032
0.815658
0.826989
0.818831
0.791286
0.81814
0.847993
0.833789
0.81642
0.812157
0.801901
0.746915
0.685153
0.81708
0.821202
0.77323
0.816153
0.808203
0.81364
0.805839
0.799021
0.777059
0.80259
0.800464
0.842583
0.819165
0.811962
0.806761
0.608298
0.734798
0.802471
0.785416
0.80451
0.817476
0.806348
0.817933
0.780733
0.817131
0.805196
0.812564
0.804115
0.819566
0.803252
0.817738
0.812715
0.817648
0.814607
0.721446
0.816195
0.817569
0.60242
0.816911
0.797222
0.803289
0.859742
0.819952
0.812551
0.873278
0.817153
0.817248
0.818642
0.820532
0.816993
0.765471
0.830714
0.801805
0.803389
0.81622
0.817145
0.818533
0.817052
0.815138
0.823463
0.804158
0.814245
0.809481
0.815808
0.820448
0.817082
0.813552
0.820916
0.80927
0.691679
0.664885
0.802857
0.80918
0.803553
0.813082
0.82004
0.818781
0.803098
0.80443
0.800997
0.801165
0.818617
0.845396
0.820255
0.812098
0.820161
0.819891
0.84677
0.819159
0.821681
0.786352
0.817536
0.807081
0.801851
0.79257
0.81248
0.820186
0.816917
0.817004
0.836463
0.807815
0.814654
0.81832
0.822069
0.803713
0.803485
0.805771
0.812778
0.817006
0.801833
0.804772
0.818684
0.822969
0.801227
0.654296
0.804466
0.798334
0.817864
0.799051
0.802933
0.750295
0.842053
0.803011
0.800132
0.836114
0.831145
0.810624
0.827697
0.800845
0.819572
0.819019
0.820393
0.803793
0.81999
0.733193
0.823884
0.811855
0.800517
0.813565
0.822146
0.799505
0.804212
0.78439
0.815544
0.817283
0.817379
0.820183
0.806694
0.818828
0.817604
0.827328
0.822392
0.838933
0.80631
0.697852
0.81961
0.841627
0.821409
0.804969
0.800368
0.803694
0.817822
0.814567
0.817774
0.744918
0.742405
0.801146
0.803194
0.817463
0.818225
0.800578
0.660062
0.710804
0.808312
0.769279
0.817675
0.705066
0.803134
0.730411
0.803256
0.820559
0.80319
0.819036
0.814607
0.798779
0.808969
0.795307
0.83031
0.8174
0.801604
0.803763
0.817588
0.82319
0.752058
0.824025
0.803933
0.783564
0.817286
0.804058
0.811064
0.8166
0.816895
0.836533
0.794577
0.799342
0.817175
0.760785
0.807023
0.816718
0.801234
0.817701
0.841774
0.802591
0.844322
0.810131
0.791857
0.81373
0.802688
0.852634
0.788908
0.803264
0.817801
0.832964
0.808658
0.81557
0.817503
0.803044
0.802818
0.826384
0.784244
0.816116
0.817131
0.655179
0.817318
0.715001
0.81799
0.839403
0.82593
0.804468
0.81644
0.817057
0.72834
0.816659
0.80132
0.801749
0.801201
0.817467
0.864741
0.80153
0.801368
0.786063
0.841856
0.828348
0.821153
0.814965
0.748837
0.805078
0.803359
0.733028
0.799936
0.716852
0.812229
0.801054
0.679686
0.880952
0.704813
0.772564
0.801856
0.746362
0.808654
0.799325
0.80309
0.664021
0.797007
0.784793
0.799421
0.733833
0.820294
0.823955
0.885226
0.809734
0.831972
0.649051
0.800396
0.788413
0.748242
0.754056
0.771605
0.710705
0.803278
0.799746
0.803354
0.765441
0.631868
0.8118
0.618433
0.822493
0.82394
0.811799
0.737652
0.813385
0.797268
0.820581
0.783533
0.808892
0.797381
0.811712
0.719054
0.801763
0.725285
0.801608
0.799155
0.692784
0.803962
0.817001
0.81705
0.803184
0.763085
0.816788
0.731633
0.693637
0.802478
0.817054
0.87523
0.816973
0.816231
0.881272
0.866257
0.831963
0.716326
0.802222
0.812196
0.821938
0.799662
0.687671
0.724943
0.684075
0.802439
0.701628
0.76995
0.79974
0.628592
0.688263
0.837144
0.775541
0.747874
0.831755
0.761434
0.76944
0.66341
0.734264
0.786873
0.821023
0.870298
0.838856
0.817288
0.796218
0.8
0.719165
0.81719
0.696976
0.797339
0.817049
0.78379
0.764406
0.803175
0.78455
0.802437
0.801026
0.813398
0.811435
0.867974
0.607623
0.553051
0.802597
0.808437
0.70234
0.81057
0.80296
0.838621
0.803638
0.802484
0.576037
0.574914
0.808735
0.814071
0.817124
0.731715
0.803224
0.811931
0.689219
0.813148
0.802822
0.815725
0.803221
0.801913
0.802365
0.816172
0.803011
0.81735
0.803435
0.862976
0.816528
0.802599
0.720869
0.675877
0.817076
0.594029
0.814128
0.810551
0.837016
0.815461
0.803238
0.811057
0.815221
0.814794
0.816842
0.801782
0.85467
0.857441
0.802747
0.662897
0.81002
0.822731
0.799612
0.803257
0.821353
0.738747
0.803281
0.826432
0.822637
0.817236
0.816941
0.768391
0.745403
0.801307
0.835179
0.803371
0.81571
0.805023
0.804236
0.805558
0.815843
0.80937
0.799192
0.807159
0.80655
0.825051
0.806954
0.80653
0.819101
0.807379
0.803399
0.814949
0.803003
0.802908
0.806046
0.808358
0.815078
0.774826
0.805556
0.802786
0.817005
0.800022
0.803919
0.807165
0.833053
0.805244
0.659244
0.801052
0.816971
0.804854
0.815091
0.764641
0.816777
0.753062
0.803807
0.802331
0.804232
0.819448
0.852061
0.804548
0.803295
0.746911
0.830841
0.816958
0.821826
0.82527
0.816258
0.740319
0.819612
0.72745
0.801361
0.828875
0.802558
0.707174
0.827156
0.816162
0.817973
0.825461
0.817277
0.774457
0.818711
0.659802
0.717071
0.817045
0.823987
0.685775
0.820785
0.662332
0.822833
0.807397
0.818251
0.803223
0.806179
0.816336
0.832329
0.825445
0.669485
0.815031
0.843178
0.782326
0.847376
0.800421
0.712583
0.839702
0.820998
0.836785
0.696506
0.692932
0.834156
0.669924
0.831905
0.817041
0.829917
0.806639
0.828237
0.788356
0.826768
0.82541
0.713773
0.866541
0.824247
0.823266
0.823964
0.761522
0.802975
0.54141
0.804866
0.822416
0.815442
0.805138
0.82729
0.817043
0.79845
0.82167
0.803085
0.690551
0.792935
0.834824
0.816366
0.721122
0.801036
0.821917
0.586025
0.816685
0.817453
0.803065
0.810265
0.730588
0.819293
0.803098
0.803619
0.796381
0.795846
0.798389
0.795144
0.803309
0.814446
0.819689
0.815966
0.579578
0.893591
0.711681
0.798228
0.743262
0.791984
0.817015
0.817545
0.81745
0.610696
0.82054
0.81757
0.804216
0.819489
0.837335
0.840147
0.783509
0.798672
0.799774
0.730617
0.755787
0.817175
0.765914
0.815547
0.820685
0.816744
0.813853
0.802045
0.777646
0.812407
0.817922
0.730801
0.810955
0.817722
0.819803
0.808202
0.809828
0.767355
0.816603
0.808551
0.803294
0.807778
0.622975
0.806847
0.804645
0.806254
0.822866
0.846221
0.805032
0.776796
0.805609
0.772337
0.821858
0.807593
0.814795
0.817028
0.850861
0.803558
0.745699
0.820186
0.817176
0.729992
0.801462
0.818053
0.759436
0.81468
0.576362
0.806993
0.688753
0.801781
0.812415
0.814325
0.818976
0.80445
0.817274
0.819395
0.801442
0.804981
0.845137
0.81796
0.796641
0.817866
0.802605
0.802169
0.80065
0.801668
0.808786
0.816599
0.802029
0.772656
0.8201
0.814221
0.809217
0.817035
0.593356
0.803811
0.814049
0.817207
0.789559
0.751292
0.718195
0.814532
0.816878
0.827375
0.791449
0.60915
0.773385
0.648729
0.818519
0.745165
0.814264
0.830936
0.703029
0.800107
0.835128
0.753207
0.800843
0.803268
0.817357
0.803704
0.701809
0.801062
0.560283
0.802225
0.80269
0.8024
0.632986
0.803036
0.803622
0.803358
0.730896
0.73986
0.803596
0.778256
0.817506
0.724811
0.709593
0.816964
0.801611
0.75479
0.855026
0.815847
0.814312
0.673251
0.803025
0.800874
0.800831
0.802613
0.661885
0.803478
0.817206
0.658614
0.688899
0.806295
0.792067
0.817084
0.82436
0.816855
0.81707
0.81821
0.803846
0.817137
0.81678
0.8147
0.829907
0.802994
0.802114
0.810933
0.732379
0.809912
0.816637
0.863599
0.812361
0.642828
0.777179
0.802436
0.777065
0.818465
0.813651
0.831142
0.814674
0.865399
0.802533
0.816433
0.600753
0.816286
0.834951
0.803013
0.816272
0.630411
0.817107
0.802796
0.818423
0.802398
0.819231
0.817761
0.754767
0.803803
0.803193
0.836231
0.862765
0.820168
0.817913
0.724272
0.745667
0.802687
0.803255
0.812655
0.819736
0.799958
0.803075
0.821089
0.808238
0.807868
0.73921
0.802866
0.819144
0.815577
0.769865
0.760695
0.813442
0.796894
0.85794
0.721319
0.835734
0.812731
0.709751
0.80012
0.81629
0.787845
0.800998
0.800124
0.816927
0.779395
0.774801
0.815326
0.69555
0.799107
0.767834
0.816816
0.819011
0.802314
0.789445
0.741417
0.754891
0.775697
0.816579
0.820605
0.807505
0.675721
0.803763
0.797486
0.778382
0.810147
0.814871
0.79996
0.803757
0.644353
0.804594
0.805211
0.852373
0.803909
0.809641
0.834517
0.805894
0.81191
0.853236
0.621671
0.804248
0.817968
0.805696
0.805293
0.806017
0.804817
0.804945
0.804424
0.806124
0.806906
0.727923
0.806037
0.807604
0.808334
0.816866
0.808724
0.81999
0.803187
0.803703
0.816527
0.816669
0.811859
0.803387
0.816631
0.813787
0.811343
0.817814
0.712358
0.815821
0.832776
0.816842
0.855306
0.751759
0.809806
0.81699
0.80146
0.637191
0.803407
0.774091
0.823466
0.631329
0.817443
0.830845
0.816626
0.813409
0.802339
0.8278
0.820501
0.803919
0.766629
0.818818
0.759419
0.556522
0.816364
0.691545
0.699644
0.820797
0.829018
0.828889
0.818444
0.848627
0.597216
0.877638
0.805615
0.827363
0.825739
0.814796
0.687261
0.816841
0.824243
0.818183
0.801667
0.774092
0.82267
0.574327
0.814692
0.844346
0.803325
0.840845
0.823044
0.803306
0.675935
0.844092
0.822023
0.837712
0.80129
0.815426
0.803131
0.835126
0.803032
0.815389
0.832745
0.83064
0.822423
0.825823
0.831482
0.73894
0.669813
0.579412
0.828833
0.827342
0.768813
0.758623
0.808175
0.825945
0.847499
0.600483
0.824694
0.823631
0.822746
0.821267
0.804352
0.821174
0.667794
0.747367
0.821969
0.797964
0.870986
0.890756
0.777491
0.805717
0.672851
0.836165
0.735042
0.72454
0.819529
0.802102
0.784269
0.672416
0.802356
0.817011
0.789506
0.71826
0.80232
0.817544
0.798487
0.687364
0.824651
0.79335
0.817604
0.834594
0.815543
0.797604
0.818009
0.817789
0.78646
0.804323
0.717059
0.841269
0.793561
0.812851
0.782781
0.804728
0.70402
0.801086
0.813875
0.812496
0.811324
0.809811
0.808709
0.807944
0.806308
0.805175
0.807118
0.730638
0.805734
0.801656
0.796309
0.803514
0.845131
0.720847
0.803345
0.77688
0.884602
0.855228
0.798339
0.728349
0.803813
0.798119
0.723089
0.803532
0.802149
0.738352
0.803996
0.79196
0.797869
0.801508
0.739326
0.781932
0.806179
0.750637
0.765306
0.771948
0.80183
0.816557
0.80894
0.76154
0.752552
0.799802
0.815724
0.803458
0.794436
0.801362
0.928905
0.861391
0.819364
0.81691
0.723181
0.845447
0.749644
0.826711
0.817763
0.898676
0.817047
0.797693
0.595035
0.817064
0.797814
0.817083
0.798229
0.84653
0.538521
0.834141
0.801769
0.806075
0.805307
0.804232
0.856706
0.80158
0.819136
0.704192
0.660544
0.669787
0.817114
0.518456
0.798211
0.725636
0.842806
0.815432
0.565349
0.803498
0.816523
0.816229
0.721476
0.802136
0.532646
0.797782
0.81722
0.79791
0.802936
0.798153
0.81736
0.835018
0.803296
0.798866
0.817707
0.799136
0.817843
0.814731
0.799426
0.817999
0.815679
0.818182
0.799554
0.81839
0.682537
0.799757
0.818625
0.803183
0.799956
0.818861
0.702876
0.817037
0.798713
0.817033
0.799029
0.811823
0.8391
0.862256
0.801247
0.801056
0.819752
0.815914
0.800693
0.800313
0.864353
0.813637
0.819441
0.812275
0.85089
0.82998
0.818418
0.826418
0.847381
0.816988
0.802206
0.820935
0.812954
0.80264
0.816852
0.800553
0.808859