# vtk DataFile Version 1.0
unstructured grid
ascii
DATASET UNSTRUCTURED_GRID
points 3920 float
-1 0 0
-1 1 0
2 0 0
2 1 0
0 0 0
1 0 0
-1 1 0.1
-1 0 0.1
0 0 0.1
1 0 0.1
2 0 0.1
2 1 0.1
-0.98 0 0
-0.96 0 0
-0.94 0 0
-0.92 0 0
-0.9 0 0
-0.88 0 0
-0.86 0 0
-0.84 0 0
-0.82 0 0
-0.8 0 0
-0.78 0 0
-0.76 0 0
-0.74 0 0
-0.72 0 0
-0.7 0 0
-0.68 0 0
-0.66 0 0
-0.64 0 0
-0.62 0 0
-0.6 0 0
-0.58 0 0
-0.56 0 0
-0.54 0 0
-0.52 0 0
-0.5 0 0
-0.48 0 0
-0.46 0 0
-0.44 0 0
-0.42 0 0
-0.4 0 0
-0.38 0 0
-0.36 0 0
-0.34 0 0
-0.32 0 0
-0.3 0 0
-0.28 0 0
-0.26 0 0
-0.24 0 0
-0.22 0 0
-0.2 0 0
-0.18 0 0
-0.16 0 0
-0.14 0 0
-0.12 0 0
-0.1 0 0
-0.08 0 0
-0.06 0 0
-0.04 0 0
-0.02 0 0
1.02 0 0
1.04 0 0
1.06 0 0
1.08 0 0
1.1 0 0
1.12 0 0
1.14 0 0
1.16 0 0
1.18 0 0
1.2 0 0
1.22 0 0
1.24 0 0
1.26 0 0
1.28 0 0
1.3 0 0
1.32 0 0
1.34 0 0
1.36 0 0
1.38 0 0
1.4 0 0
1.42 0 0
1.44 0 0
1.46 0 0
1.48 0 0
1.5 0 0
1.52 0 0
1.54 0 0
1.56 0 0
1.58 0 0
1.6 0 0
1.62 0 0
1.64 0 0
1.66 0 0
1.68 0 0
1.7 0 0
1.72 0 0
1.74 0 0
1.76 0 0
1.78 0 0
1.8 0 0
1.82 0 0
1.84 0 0
1.86 0 0
1.88 0 0
1.9 0 0
1.92 0 0
1.94 0 0
1.96 0 0
1.98 0 0
2 0.0199133 0
2 0.0414128 0
2 0.0646247 0
2 0.0896856 0
2 0.116743 0
2 0.145955 0
2 0.177494 0
2 0.211545 0
2 0.248309 0
2 0.288001 0
2 0.330854 0
2 0.377121 0
2 0.427073 0
2 0.481004 0
2 0.539231 0
2 0.602096 0
2 0.669968 0
2 0.743247 0
2 0.822362 0
2 0.907779 0
1.9 1 0
1.8 1 0
1.7 1 0
1.6 1 0
1.5 1 0
1.4 1 0
1.3 1 0
1.2 1 0
1.1 1 0
1 1 0
0.9 1 0
0.8 1 0
0.7 1 0
0.6 1 0
0.5 1 0
0.4 1 0
0.3 1 0
0.2 1 0
0.1 1 0
3.69793e-12 1 0
-0.1 1 0
-0.2 1 0
-0.3 1 0
-0.4 1 0
-0.5 1 0
-0.6 1 0
-0.7 1 0
-0.8 1 0
-0.9 1 0
-1 0.907779 0
-1 0.822362 0
-1 0.743247 0
-1 0.669968 0
-1 0.602096 0
-1 0.539231 0
-1 0.481004 0
-1 0.427073 0
-1 0.377121 0
-1 0.330854 0
-1 0.288001 0
-1 0.248309 0
-1 0.211545 0
-1 0.177494 0
-1 0.145955 0
-1 0.116743 0
-1 0.0896856 0
-1 0.0646247 0
-1 0.0414128 0
-1 0.0199133 0
0.0182781 0.00745351 0
0.0366672 0.0146286 0
0.0551632 0.0215237 0
0.0737617 0.0281372 0
0.0924585 0.0344675 0
0.111249 0.0405131 0
0.13013 0.0462728 0
0.149095 0.0517451 0
0.168142 0.0569289 0
0.187265 0.0618228 0
0.20646 0.0664258 0
0.225723 0.0707368 0
0.245049 0.0747549 0
0.264434 0.078479 0
0.283873 0.0819084 0
0.303362 0.0850422 0
0.322896 0.0878798 0
0.342472 0.0904204 0
0.362083 0.0926635 0
0.381726 0.0946086 0
0.401397 0.0962552 0
0.42109 0.0976029 0
0.440802 0.0986514 0
0.460527 0.0994006 0
0.480261 0.0998501 0
0.5 0.1 0
0.519739 0.0998501 0
0.539473 0.0994006 0
0.559198 0.0986514 0
0.57891 0.0976029 0
0.598603 0.0962552 0
0.618274 0.0946086 0
0.637917 0.0926635 0
0.657528 0.0904204 0
0.677104 0.0878798 0
0.696638 0.0850422 0
0.716127 0.0819084 0
0.735566 0.078479 0
0.754951 0.0747549 0
0.774277 0.0707368 0
0.79354 0.0664258 0
0.812735 0.0618228 0
0.831858 0.0569289 0
0.850905 0.0517451 0
0.86987 0.0462728 0
0.888751 0.0405131 0
0.907542 0.0344675 0
0.926238 0.0281372 0
0.944837 0.0215237 0
0.963333 0.0146286 0
0.981722 0.00745351 0
-1 0.907779 0.1
-1 0.822362 0.1
-1 0.743247 0.1
-1 0.669968 0.1
-1 0.602096 0.1
-1 0.539231 0.1
-1 0.481004 0.1
-1 0.427073 0.1
-1 0.377121 0.1
-1 0.330854 0.1
-1 0.288001 0.1
-1 0.248309 0.1
-1 0.211545 0.1
-1 0.177494 0.1
-1 0.145955 0.1
-1 0.116743 0.1
-1 0.0896856 0.1
-1 0.0646247 0.1
-1 0.0414128 0.1
-1 0.0199133 0.1
-0.98 0 0.1
-0.96 0 0.1
-0.94 0 0.1
-0.92 0 0.1
-0.9 0 0.1
-0.88 0 0.1
-0.86 0 0.1
-0.84 0 0.1
-0.82 0 0.1
-0.8 0 0.1
-0.78 0 0.1
-0.76 0 0.1
-0.74 0 0.1
-0.72 0 0.1
-0.7 0 0.1
-0.68 0 0.1
-0.66 0 0.1
-0.64 0 0.1
-0.62 0 0.1
-0.6 0 0.1
-0.58 0 0.1
-0.56 0 0.1
-0.54 0 0.1
-0.52 0 0.1
-0.5 0 0.1
-0.48 0 0.1
-0.46 0 0.1
-0.44 0 0.1
-0.42 0 0.1
-0.4 0 0.1
-0.38 0 0.1
-0.36 0 0.1
-0.34 0 0.1
-0.32 0 0.1
-0.3 0 0.1
-0.28 0 0.1
-0.26 0 0.1
-0.24 0 0.1
-0.22 0 0.1
-0.2 0 0.1
-0.18 0 0.1
-0.16 0 0.1
-0.14 0 0.1
-0.12 0 0.1
-0.1 0 0.1
-0.08 0 0.1
-0.06 0 0.1
-0.04 0 0.1
-0.02 0 0.1
0.0182781 0.00745351 0.1
0.0366672 0.0146286 0.1
0.0551632 0.0215237 0.1
0.0737617 0.0281372 0.1
0.0924585 0.0344675 0.1
0.111249 0.0405131 0.1
0.13013 0.0462728 0.1
0.149095 0.0517451 0.1
0.168142 0.0569289 0.1
0.187265 0.0618228 0.1
0.20646 0.0664258 0.1
0.225723 0.0707368 0.1
0.245049 0.0747549 0.1
0.264434 0.078479 0.1
0.283873 0.0819084 0.1
0.303362 0.0850422 0.1
0.322896 0.0878798 0.1
0.342472 0.0904204 0.1
0.362083 0.0926635 0.1
0.381726 0.0946086 0.1
0.401397 0.0962552 0.1
0.42109 0.0976029 0.1
0.440802 0.0986514 0.1
0.460527 0.0994006 0.1
0.480261 0.0998501 0.1
0.5 0.1 0.1
0.519739 0.0998501 0.1
0.539473 0.0994006 0.1
0.559198 0.0986514 0.1
0.57891 0.0976029 0.1
0.598603 0.0962552 0.1
0.618274 0.0946086 0.1
0.637917 0.0926635 0.1
0.657528 0.0904204 0.1
0.677104 0.0878798 0.1
0.696638 0.0850422 0.1
0.716127 0.0819084 0.1
0.735566 0.078479 0.1
0.754951 0.0747549 0.1
0.774277 0.0707368 0.1
0.79354 0.0664258 0.1
0.812735 0.0618228 0.1
0.831858 0.0569289 0.1
0.850905 0.0517451 0.1
0.86987 0.0462728 0.1
0.888751 0.0405131 0.1
0.907542 0.0344675 0.1
0.926238 0.0281372 0.1
0.944837 0.0215237 0.1
0.963333 0.0146286 0.1
0.981722 0.00745351 0.1
1.02 0 0.1
1.04 0 0.1
1.06 0 0.1
1.08 0 0.1
1.1 0 0.1
1.12 0 0.1
1.14 0 0.1
1.16 0 0.1
1.18 0 0.1
1.2 0 0.1
1.22 0 0.1
1.24 0 0.1
1.26 0 0.1
1.28 0 0.1
1.3 0 0.1
1.32 0 0.1
1.34 0 0.1
1.36 0 0.1
1.38 0 0.1
1.4 0 0.1
1.42 0 0.1
1.44 0 0.1
1.46 0 0.1
1.48 0 0.1
1.5 0 0.1
1.52 0 0.1
1.54 0 0.1
1.56 0 0.1
1.58 0 0.1
1.6 0 0.1
1.62 0 0.1
1.64 0 0.1
1.66 0 0.1
1.68 0 0.1
1.7 0 0.1
1.72 0 0.1
1.74 0 0.1
1.76 0 0.1
1.78 0 0.1
1.8 0 0.1
1.82 0 0.1
1.84 0 0.1
1.86 0 0.1
1.88 0 0.1
1.9 0 0.1
1.92 0 0.1
1.94 0 0.1
1.96 0 0.1
1.98 0 0.1
2 0.0199133 0.1
2 0.0414128 0.1
2 0.0646247 0.1
2 0.0896856 0.1
2 0.116743 0.1
2 0.145955 0.1
2 0.177494 0.1
2 0.211545 0.1
2 0.248309 0.1
2 0.288001 0.1
2 0.330854 0.1
2 0.377121 0.1
2 0.427073 0.1
2 0.481004 0.1
2 0.539231 0.1
2 0.602096 0.1
2 0.669968 0.1
2 0.743247 0.1
2 0.822362 0.1
2 0.907779 0.1
1.9 1 0.1
1.8 1 0.1
1.7 1 0.1
1.6 1 0.1
1.5 1 0.1
1.4 1 0.1
1.3 1 0.1
1.2 1 0.1
1.1 1 0.1
1 1 0.1
0.9 1 0.1
0.8 1 0.1
0.7 1 0.1
0.6 1 0.1
0.5 1 0.1
0.4 1 0.1
0.3 1 0.1
0.2 1 0.1
0.1 1 0.1
3.69793e-12 1 0.1
-0.1 1 0.1
-0.2 1 0.1
-0.3 1 0.1
-0.4 1 0.1
-0.5 1 0.1
-0.6 1 0.1
-0.7 1 0.1
-0.8 1 0.1
-0.9 1 0.1
1.08758 0.0158154 0
-0.0898513 0.0203294 0
0.0966181 0.0537636 0
0.90205 0.0548881 0
1.21055 0.0202058 0
-0.209811 0.0159577 0
1.3305 0.0176902 0
-0.33 0.0173205 0
1.45324 0.0148141 0
-0.448654 0.0159854 0
1.56842 0.0191785 0
-0.569936 0.0166364 0
0.193292 0.0805369 0
0.805051 0.0813623 0
0.709096 0.100353 0
0.288591 0.0996656 0
0.390184 0.111848 0
0.61033 0.111742 0
0.488809 0.116278 0
1.67175 0.0169692 0
-0.67 0.0169809 0
-0.955017 0.454039 0
1.95131 0.44569 0
1.74981 0.0168753 0
-0.75 0.0173205 0
-0.968032 0.266538 0
1.96871 0.266267 0
0.978232 0.0305687 0
0.0208675 0.026451 0
-0.150454 0.91842 0
1.13854 0.907437 0
1.45012 0.904365 0
-0.445923 0.908903 0
-0.853423 0.0157019 0
1.84881 0.016319 0
0.853689 0.915652 0
0.153944 0.912184 0
0.545151 0.914125 0
0.549913 0.115152 0
1.51 0.0173205 0
-0.506989 0.01651 0
1.27 0.0173205 0
1.14976 0.0173333 0
-0.268171 0.0206442 0
-0.150501 0.0153244 0
-0.391384 0.0153993 0
1.38886 0.0171544 0
-0.973694 0.161724 0
1.97441 0.162392 0
-0.945221 0.633523 0
1.94544 0.63312 0
1.91008 0.0186068 0
-0.91 0.0169616 0
-0.030664 0.0194327 0
1.03074 0.0165456 0
-0.966065 0.353575 0
1.96128 0.359765 0
1.93879 0.781254 0
-0.937057 0.781882 0
-0.980746 0.080709 0
1.9772 0.0760699 0
0.058735 0.0409372 0
0.355202 0.913001 0
0.86356 0.0661005 0
0.134223 0.0651111 0
0.941972 0.0397386 0
-0.653034 0.915003 0
1.65328 0.904589 0
0.770126 0.0881325 0
0.232946 0.0902008 0
0.330582 0.105648 0
0.670612 0.108365 0
0.428707 0.116145 0
1.80993 0.016629 0
-0.810168 0.0172178 0
-0.71 0.0173205 0
1.63047 0.0175504 0
1.70842 0.0169661 0
-0.628824 0.0181787 0
-0.949815 0.0133898 0
1.95 0.0173205 0
1.85542 0.907891 0
-0.85 0.913397 0
1.9833 0.0307692 0
-0.983315 0.0309709 0
-0.750025 0.916468 0
-0.701107 0.836904 0
-0.607741 0.836428 0
-0.656448 0.759827 0
-0.572936 0.758144 0
-0.61411 0.691195 0
-0.539534 0.689068 0
-0.578542 0.626111 0
-0.507461 0.624216 0
-0.544001 0.566638 0
-0.477696 0.564279 0
-0.511582 0.51001 0
-0.451689 0.507147 0
-0.481834 0.457732 0
-0.426137 0.454624 0
-0.453236 0.407539 0
-0.398845 0.406233 0
-0.507958 0.409496 0
-0.368427 0.460177 0
-0.344602 0.405209 0
-0.315696 0.447824 0
-0.294128 0.402169 0
-0.262844 0.444518 0
-0.241968 0.388746 0
-0.209878 0.439557 0
-0.185184 0.391135 0
-0.156687 0.437338 0
-0.133719 0.390776 0
-0.104405 0.434306 0
-0.0818745 0.388334 0
-0.0528785 0.431165 0
-0.0305984 0.385639 0
-0.00180552 0.427863 0
0.0194564 0.382608 0
0.0485809 0.42449 0
0.0701962 0.37973 0
0.0985483 0.421145 0
0.119893 0.377339 0
0.147837 0.417911 0
0.172552 0.36751 0
0.197018 0.412597 0
0.221203 0.37141 0
0.24512 0.409646 0
-0.48178 0.364657 0
-0.531053 0.364782 0
-0.0599102 0.344151 0
-0.324909 0.359566 0
0.266181 0.368462 0
0.292132 0.407649 0
0.311992 0.365779 0
0.338918 0.404821 0
0.357567 0.355909 0
0.384723 0.40053 0
0.404675 0.359681 0
0.430617 0.398558 0
0.450457 0.35827 0
0.474237 0.395182 0
0.496746 0.34898 0
0.520548 0.397931 0
0.542071 0.353121 0
0.566011 0.389914 0
0.585061 0.350856 0
0.609352 0.38696 0
0.629069 0.348168 0
0.655979 0.391217 0
0.67472 0.346182 0
0.699346 0.381414 0
0.719333 0.341965 0
0.743718 0.377547 0
0.764028 0.339036 0
0.788201 0.373582 0
0.807659 0.336101 0
0.832821 0.372249 0
0.852309 0.334017 0
0.877785 0.370339 0
0.897875 0.331141 0
0.922904 0.366281 0
0.943173 0.327335 0
0.968282 0.363358 0
0.989029 0.324222 0
1.01391 0.361511 0
1.03465 0.321428 0
1.05949 0.358447 0
1.08389 0.312052 0
1.10575 0.355104 0
1.12889 0.31562 0
1.15067 0.353235 0
1.17157 0.312819 0
1.19626 0.349369 0
1.21618 0.309863 0
1.2416 0.346914 0
1.26131 0.30715 0
1.28691 0.344312 0
1.30571 0.303752 0
1.33144 0.341222 0
1.35018 0.300911 0
1.3758 0.338308 0
1.39501 0.298931 0
1.42015 0.335235 0
1.43904 0.296349 0
1.46355 0.330194 0
1.48256 0.293347 0
1.50685 0.326967 0
1.52589 0.29055 0
1.54996 0.325305 0
1.56909 0.287929 0
[...]
CELL_DATA 3694
SCALARS rho float
LOOKUP_TABLE default
0.923537
0.914524
0.853605
0.945264
0.949349
0.854717
0.889234
0.836199
0.943564
0.828499
0.950226
0.950201
0.933557
0.894052
0.836124
0.926221
0.824391
0.83245
0.927373
0.954209
0.946629
0.951954
0.92102
0.856681
0.920738
0.933376
0.916233
0.879068
0.923436
0.808033
0.807687
0.915532
0.832271
0.91305
0.841863
0.936943
0.949567
0.951414
0.949056
0.920567
0.849265
0.902789
0.921576
0.914012
0.918014
0.945117
0.852665
0.912268
0.912409
0.921774
0.861699
0.817598
0.953221
0.893897
0.913887
0.950159
0.84051
0.948068
0.923148
0.927977
0.902029
0.945029
0.953957
0.832152
0.955495
0.952346
0.879385
0.945096
0.912449
0.958729
0.811881
0.88432
0.951948
0.826027
0.951602
0.818581
0.918483
0.814677
0.94691
0.858182
0.919184
0.905834
0.809313
0.920079
0.943639
0.816059
0.947696
0.918959
0.914081
0.947473
0.938745
0.827345
0.909023
0.945791
0.909959
0.868942
0.919107
0.950522
0.94527
0.95342
0.946992
0.927582
0.911382
0.943349
0.943094
0.945043
0.950487
0.871031
0.916486
0.947326
0.890221
0.921672
0.911412
0.946756
0.961226
0.825039
0.939044
0.945068
0.810937
0.823696
0.919744
0.927997
0.949462
0.932013
0.907115
0.918386
0.949947
0.931353
0.951874
0.921512
0.919623
0.918282
0.884371
0.90752
0.853783
0.938384
0.856945
0.81014
0.807105
0.947067
0.946856
0.922493
0.949751
0.945434
0.919051
0.913128
0.910528
0.810966
0.948921
0.896448
0.918717
0.815888
0.903786
0.93405
0.915478
0.927998
0.917225
0.935508
0.902353
0.90443
0.926624
0.906732
0.904261
0.924202
0.955797
0.902613
0.901406
0.832337
0.863535
0.910679
0.835939
0.914028
0.958702
0.901761
0.891441
0.914743
0.94211
0.95367
0.949702
0.913578
0.947142
0.915245
0.952594
0.91709
0.90694
0.826141
0.904903
0.951591
0.861185
0.95699
0.919534
0.909256
0.94449
0.811568
0.919678
0.932734
0.900431
0.953248
0.923896
0.919303
0.916562
0.937566
0.95335
0.926288
0.912498
0.946366
0.9161
0.84709
0.924564
0.819018
0.920207
0.93885
0.876618
0.893666
0.9524
0.928674
0.953175
0.926428
0.952398
0.948619
0.948811
0.932604
0.919511
0.921034
0.952624
0.905375
0.909607
0.943573
0.957102
0.95201
0.942305
0.922732
0.918736
0.950479
0.953075
0.950353
0.923105
0.938929
0.915251
0.936708
0.877135
0.943708
0.913692
0.873734
0.929184
0.919516
0.810862
0.930213
0.946472
0.940198
0.92149
0.904914
0.915156
0.852858
0.907674
0.934805
0.907181
0.82506
0.95039
0.945198
0.903427
0.946889
0.925553
0.936517
0.947752
0.814656
0.912508
0.94436
0.924866
0.929429
0.807646
0.953894
0.890707
0.812278
0.896897
0.944845
0.91055
0.897793
0.949735
0.927086
0.951048
0.924879
0.919062
0.947738
0.947053
0.946766
0.919918
0.938726
0.945196
0.90345
0.810682
0.959283
0.906253
0.926579
0.953504
0.948238
0.944646
0.910501
0.896997
0.945104
0.837484
0.829417
0.916775
0.949351
0.904234
0.91758
0.887147
0.817753
0.90592
0.951578
0.952708
0.916875
0.936151
0.951034
0.927357
0.916025
0.901304
0.951648
0.951389
0.882413
0.913336
0.920929
0.922283
0.92004
0.951074
0.930936
0.843298
0.920343
0.912625
0.951211
0.943925
0.907518
0.932431
0.946476
0.945908
0.950292
0.949011
0.835614
0.872909
0.86378
0.905049
0.809243
0.892953
0.918917
0.882404
0.858293
0.951214
0.89932
0.91347
0.907598
0.945031
0.951589
0.951412
0.814349
0.918873
0.920384
0.886502
0.900078
0.912481
0.84016
0.883517
0.902257
0.919606
0.884871
0.949183
0.944696
0.950532
0.854797
0.89276
0.930387
0.871351
0.95556
0.907714
0.909354
0.850251
0.921723
0.906882
0.829988
0.900448
0.916348
0.914643
0.924673
0.944346
0.949558
0.949721
0.943536
0.951398
0.952082
0.823172
0.930684
0.913097
0.914773
0.950766
0.929406
0.924624
0.91625
0.946081
0.954854
0.950713
0.887146
0.928171
0.947359
0.909069
0.929025
0.943268
0.912846
0.889184
0.95284
0.925817
0.865751
0.960341
0.898558
0.948146
0.950459
0.922491
0.912968
0.938323
0.920484
0.807792
0.916758
0.946482
0.896502
0.936368
0.903689
0.945519
0.918511
0.944852
0.825715
0.86028
0.951704
0.837485
0.919695
0.918905
0.811364
0.945774
0.947009
0.945919
0.961386
0.952677
0.884288
0.953388
0.917165
0.95198
0.954334
0.949349
0.904198
0.947211
0.881477
0.955906
0.951615
0.828604
0.89892
0.883921
0.921256
0.871374
0.81882
0.894318
0.944534
0.914858
0.858398
0.914177
0.949057
0.920809
0.959842
0.808853
0.956906
0.949253
0.904597
0.840046
0.902386
0.94483
0.95047
0.914367
0.82385
0.884451
0.892817
0.875033
0.882417
0.948289
0.949972
0.936433
0.869885
0.951217
0.94978
0.920857
0.871638
0.889043
0.946291
0.913238
0.8593
0.947702
0.814023
0.850291
0.90089
0.953593
0.928563
0.944655
0.950456
0.952513
0.95382
0.948921
0.944658
0.919472
0.814251
0.954014
0.942521
0.916553
0.814058
0.820903
0.961569
0.955851
0.951069
0.807363
0.907094
0.928283
0.948253
0.895059
0.899307
0.830924
0.922578
0.918769
0.841505
0.944573
0.919971
0.928919
0.947696
0.924092
0.948272
0.878978
0.942922
0.914859
0.925752
0.843112
0.942508
0.94906
0.837341
0.919141
0.920343
0.94493
0.897033
0.914156
0.900807
0.945602
0.945552
0.952219
0.827544
0.942597
0.949704
0.909761
0.954823
0.832552
0.899367
0.949349
0.948289
0.94526
0.9465
0.920664
0.916028
0.937949
0.825693
0.956481
0.829973
0.940087
0.904575
0.942888
0.946703
0.886582
0.951118
0.863007
0.945005
0.920811
0.95556
0.908303
0.820733
0.950339
0.875244
0.915184
0.902795
0.902605
0.865329
0.855227
0.934637
0.836186
0.952347
0.946558
0.851934
0.829567
0.945554
0.902231
0.945371
0.844139
0.919348
0.947855
0.913074
0.9323
0.948683
0.950044
0.94084
0.944933
0.935056
0.938286
0.853836
0.839064
0.945011
0.888443
0.942875
0.824092
0.915673
0.866651
0.944769
0.944641
0.945719
0.944614
0.949061
0.946179
0.948715
0.919603
0.869451
0.948679
0.838496
0.898403
0.919703
0.892446
0.944904
0.947652
0.919638
0.885761
0.89566
0.845906
0.878988
0.837344
0.946432
0.947285
0.946496
0.93416
0.942605
0.940753
0.902049
0.909978
0.916514
0.941043
0.922512
0.918863
0.806339
0.917775
0.951776
0.944966
0.945787
0.90654
0.897003
0.902257
0.898215
0.919853
0.952184
0.959536
0.924636
0.949494
0.95729
0.919766
0.948507
0.910975
0.897601
0.925339
0.909652
0.958136
0.916982
0.922474
0.886881
0.851949
0.80789
0.921955
0.946956
0.91824
0.944284
0.848827
0.919428
0.954837
0.812472
0.905322
0.912085
0.948769
0.942197
0.946463
0.920737
0.920706
0.929269
0.932172
0.91355
0.949
0.947635
0.952607
0.930417
0.951824
0.920418
0.85207
0.909444
0.91591
0.939779
0.911051
0.933545
0.944481
0.948137
0.947332
0.944565
0.901755
0.806607
0.944888
0.924696
0.894689
0.948313
0.944721
0.912175
0.907263
0.924203
0.911395
0.925399
0.917192
0.948439
0.806143
0.946472
0.931658
0.908271
0.940851
0.948933
0.948359
0.9239
0.934027
0.916806
0.93228
0.945304
0.904981
0.903883
0.947482
0.860092
0.945104
0.849051
0.922851
0.934359
0.920059
0.917446
0.825809
0.953354
0.890782
0.912507
0.952012
0.945524
0.944317
0.920048
0.905932
0.918181
0.962323
0.948952
0.948524
0.904009
0.91878
0.907392
0.848005
0.807698
0.912154
0.890891
0.946356
0.925539
0.834883
0.919663
0.946925
0.913788
0.944994
0.918989
0.939731
0.812497
0.94656
0.926094
0.948601
0.9455
0.913652
0.903869
0.904088
0.944416
0.916377
0.944385
0.915674
0.848062
0.948656
0.914257
0.950742
0.806091
0.924604
0.904406
0.906371
0.925406
0.866114
0.945461
0.944284
0.951229
0.900874
0.949142
0.916023
0.805756
0.946429
0.951828
0.916731
0.922058
0.945058
0.943659
0.919928
0.926839
0.932503
0.910197
0.898408
0.915531
0.940753
0.910252
0.816007
0.914153
0.916795
0.944691
0.912425
0.927217
0.905404
0.952305
0.926712
0.947645
0.932054
0.944585
0.809502
0.936035
0.816803
0.874886
0.947505
0.923161
0.902387
0.815097
0.951016
0.902455
0.835513
0.946164
0.946785
0.94509
0.945574
0.919346
0.940465
0.918719
0.919099
0.950514
0.915576
0.95027
0.949816
0.815069
0.948301
0.949324
0.920432
0.91926
0.951397
0.935811
0.869917
0.948806
0.961362
0.948797
0.937088
0.949963
0.94766
0.883086
0.950907
0.947895
0.910584
0.920435
0.955108
0.920837
0.814611
0.909904
0.934421
0.950513
0.924355
0.950938
0.950018
0.961635
0.815929
0.85947
0.950746
0.816607
0.948412
0.878064
0.919979
0.948409
0.951287
0.916065
0.920706
0.94835
0.927262
0.91111
0.915653
0.951758
0.914869
0.942541
0.835388
0.924672
0.813887
0.81098
0.898971
0.94847
0.914341
0.921628
0.828101
0.920048
0.846261
0.946327
0.912724
0.945695
0.835063
0.834007
0.945646
0.947912
0.922656
0.948798
0.91742
0.867227
0.929322
0.832369
0.933065
0.92327
0.922917
0.947357
0.904656
0.944869
0.908486
0.916483
0.834676
0.951277
0.945555
0.822044
0.947214
0.942232
0.923958
0.921505
0.95828
0.815649
0.9489
0.898835
0.902387
0.91802
0.931453
0.915178
0.925781
0.903184
0.944709
0.944511
0.944795
0.810125
0.919429
0.918338
0.930051
0.914541
0.911142
0.944823
0.932556
0.951211
0.874256
0.925069
0.945682
0.839185
0.881045
0.917284
0.836866
0.927987
0.886453
0.810068
0.927813
0.947391
0.906147
0.834689
0.934362
0.95191
0.918134
0.816177
0.823301
0.86134
0.901118
0.948064
0.9478
0.910678
0.913687
0.947517
0.947852
0.811821
0.84279
0.899782
0.932346
0.880164
0.936939
0.949016
0.91687
0.940358
0.96162
0.915002
0.927751
0.94202
0.920484
0.955234
0.938836
0.93111
0.946796
0.883433
0.908423
0.890631
0.95236
0.953952
0.874947
0.900491
0.950838
0.951659
0.919508
0.953126
0.952384
0.951139
0.951473
0.893155
0.952022
0.952493
0.919097
0.885004
0.944616
0.941461
0.951836
0.834135
0.922736
0.917889
0.867681
0.90826
0.924811
0.904014
0.900791
0.950458
0.952259
0.952776
0.873223
0.904108
0.952033
0.905363
0.951491
0.954484
0.953511
0.934926
0.806839
0.951659
0.948514
0.950024
0.819236
0.880696
0.959935
0.95132
0.956199
0.948224
0.817685
0.916303
0.91581
0.930181
0.946635
0.947183
0.867707
0.920137
0.823705
0.85489
0.947481
0.863712
0.940111
0.912339
0.924974
0.848677
0.915403
0.908337
0.917297
0.897545
0.931836
0.918383
0.83715
0.894842
0.925822
0.923049
0.951131
0.899534
0.919768
0.949666
0.936579
0.949418
0.933905
0.920742
0.94474
0.890153
0.817347
0.926706
0.919586
0.946223
0.928461
0.931462
0.947305
0.875671
0.945077
0.861506
0.813002
0.916967
0.809726
0.812776
0.953007
0.95028
0.888902
0.916339
0.901515
0.919771
0.875081
0.934508
0.852303
0.948683
0.866247
0.949145
0.913315
0.946679
0.856863
0.94409
0.847764
0.950159
0.808397
0.948815
0.944307
0.94893
0.945999
0.923417
0.947175
0.948454
0.900583
0.94617
0.897979
0.846273
0.95851
0.949083
0.944112
0.961405
0.948265
0.948285
0.949922
0.950862
0.947915
0.918595
0.924561
0.834117
0.827818
0.946928
0.947959
0.949841
0.947159
0.946291
0.909849
0.853003
0.94565
0.880312
0.899225
0.907029
0.947001
0.94511
0.950474
0.901975
0.907406
0.915573
0.820418
0.883391
0.830054
0.944677
0.950032
0.949068
0.82194
0.865541
0.821894
0.815038
0.949422
0.952457
0.950879
0.890895
0.950321
0.950689
0.929202
0.949546
0.907954
0.91203
0.948487
0.877816
0.851064
0.903609
0.944247
0.950521
0.946793
0.948178
0.928042
0.941354
0.945092
0.949027
0.907893
0.832283
0.83492
0.864805
0.944227
0.947288
0.816096
0.939963
0.949946
0.909646
0.824683
0.903023
0.845844
0.938461
0.902467
0.917445
0.852993
0.926346
0.954928
0.879119
0.811824
0.953828
0.953003
0.885546
0.952428
0.816497
0.950419
0.948297
0.950889
0.834569
0.950673
0.921419
0.951784
0.905258
0.818279
0.892924
0.951441
0.895556
0.839215
0.933865
0.897626
0.947621
0.947892
0.950722
0.868716
0.950098
0.948695
0.948846
0.91065
0.954375
0.864063
0.91389
0.950117
0.950806
0.951255
0.854822
0.808764
0.843422
0.947333
0.895098
0.949048
0.918901
0.923785
0.823342
0.871485
0.94867
0.948862
0.937352
0.915779
0.917147
0.8812
0.918643
0.948656
0.914186
0.817366
0.922368
0.808623
0.906183
0.812808
0.950205
0.945727
0.862579
0.877646
0.93688
0.928061
0.948032
0.82774
0.839104
0.948773
0.950992
0.928166
0.948117
0.834665
0.920954
0.947765
0.836848
0.888887
0.944634
0.94698
0.952459
0.936326
0.805472
0.947475
0.928609
0.868567
0.945047
0.870526
0.948995
0.930926
0.833303
0.953714
0.941935
0.936625
0.944625
0.819915
0.933908
0.920311
0.826634
0.94889
0.953352
0.879086
0.946006
0.948552
0.823761
0.835383
0.915103
0.934413
0.946536
0.947774
0.915385
0.948182
0.917461
0.904118
0.952728
0.951277
0.924625
0.945725
0.946652
0.923388
0.945201
0.83972
0.806914
0.819106
0.94876
0.959701
0.817594
0.825948
0.900155
0.955194
0.918704
0.950687
0.946259
0.926586
0.940272
0.809572
0.923063
0.832985
0.919581
0.943862
0.842735
0.91352
0.963257
0.91419
0.9183
0.856596
0.926898
0.881497
0.812765
0.817052
0.910951
0.872383
0.9143
0.818393
0.921905
0.950651
0.951832
0.964123
0.886173
0.91907
0.908719
0.826892
0.936018
0.924619
0.917703
0.928748
0.92195
0.85076
0.82077
0.85169
0.914694
0.906924
0.888133
0.90548
0.948548
0.945442
0.893781
0.918167
0.942866
0.935896
0.948991
0.903077
0.941563
0.869479
0.94347
0.919354
0.82028
0.92328
0.818892
0.809859
0.920143
0.845738
0.945641
0.945983
0.822217
0.930021
0.946378
0.914833
0.915275
0.813048
0.945811
0.962458
0.945363
0.946849
0.962778
0.958115
0.947857
0.912956
0.82043
0.894202
0.909386
0.938235
0.919737
0.920393
0.918946
0.82479
0.911075
0.912705
0.80877
0.912984
0.909282
0.949721
0.932794
0.927337
0.951807
0.929951
0.919348
0.907593
0.924946
0.935421
0.947261
0.959614
0.950734
0.947931
0.937745
0.809825
0.922672
0.947073
0.916279
0.922847
0.94544
0.921144
0.930167
0.939756
0.935027
0.866663
0.8127
0.944788
0.916113
0.95948
0.906235
0.90081
0.817284
0.941502
0.920531
0.887196
0.817855
0.951307
0.839896
0.806364
0.903405
0.905115
0.923898
0.945311
0.94665
0.921094
0.811976
0.942925
0.918889
0.944452
0.812175
0.944364
0.806836
0.939515
0.805795
0.944397
0.806402
0.924122
0.827739
0.958633
0.944451
0.805915
0.909512
0.917585
0.947857
0.905781
0.944062
0.88496
0.951427
0.946744
0.823572
0.895528
0.944317
0.945934
0.944486
0.805561
0.93687
0.957599
0.842775
0.916709
0.94257
0.92334
0.855772
0.820095
0.947999
0.923098
0.80749
0.94808
0.948011
0.948397
0.947394
0.930143
0.916347
0.837081
0.951522
0.854569
0.945115
0.861898
0.858137
0.865658
0.944555
0.881107
0.817632
0.892691
0.869492
0.911734
0.886726
0.88041
0.950189
0.873296
0.807735
0.944277
0.81873
0.806923
0.873987
0.877174
0.944461
0.910596
0.867474
0.826622
0.944483
0.805294
0.837053
0.898369
0.951462
0.86113
0.916442
0.809387
0.948229
0.854731
0.908486
0.917132
0.947996
0.918805
0.833966
0.806278
0.842718
0.904072
0.956538
0.848588
0.808711
0.916842
0.951351
0.945307
0.950607
0.921607
0.946574
0.919825
0.950333
0.920388
0.883006
0.951232
0.811519
0.918821
0.951111
0.945734
0.949196
0.950975
0.947512
0.914539
0.94994
0.916349
0.920737
0.945542
0.950837
0.918257
0.951092
0.909116
0.95073
0.877104
0.949536
0.811865
0.871555
0.946227
0.919195
0.91906
0.901629
0.944807
0.954924
0.910767
0.955696
0.849262
0.921236
0.954293
0.951085
0.953795
0.91991
0.918217
0.953348
0.916592
0.952981
0.945941
0.952662
0.903486
0.952411
0.905677
0.952189
0.95197
0.921861
0.960433
0.951772
0.951595
0.915737
0.930019
0.815671
0.900389
0.939789
0.951432
0.945846
0.907814
0.951873
0.94448
0.804904
0.951263
0.821334
0.917019
0.899159
0.920836
0.945653
0.922896
0.938214
0.911993
0.906142
0.946499
0.948103
0.911692
0.890582
0.924127
0.946477
0.816429
0.830799
0.891445
0.93638
0.914952
0.92299
0.808276
0.944232
0.907976
0.946732
0.899216
0.967407
0.917693
0.883422
0.925866
0.917227
0.944614
0.94842
0.948094
0.905089
0.949526
0.903708
0.843363
0.948084
0.9229
0.92469
0.918657
0.862204
0.874803
0.922151
0.927774
0.946912
0.930263
0.89924
0.950803
0.946589
0.89464
0.830538
0.931973
0.889993
0.949122
0.91839
0.885179
0.948787
0.950686
0.873377
0.880454
0.929814
0.94501
0.875669
0.82449
0.870924
0.908703
0.866168
0.847738
0.861468
0.951041
0.928693
0.852242
0.929922
0.856799
0.919217
0.950886
0.941008
0.944411
0.944501
0.931843
0.83102
0.919043
0.906671
0.946855
0.923827
0.839078
0.949306
0.919329
0.944247
0.898447
0.868665
0.912797
0.842886
0.942184
0.945584
0.950226
0.845907
0.946454
0.949892
0.821807
0.867592
0.927796
0.949233
0.890904
0.948497
0.856413
0.85448
0.81061
0.824636
0.941867
0.945643
0.827769
0.929568
0.950621
0.943019
0.891447
0.944608
0.90095
0.911722
0.903913
0.947249
0.93447
0.927843
0.910117
0.944381
0.94463
0.951563
0.934073
0.904158
0.932236
0.914899
0.949837
0.914804
0.94422
0.919129
0.920201
0.810692
0.952736
0.92569
0.865601
0.820771
0.948606
0.939788
0.916407
0.813689
0.901847
0.833552
0.818696
0.851509
0.903025
0.81227
0.831726
0.843748
0.920999
0.924823
0.839892
0.933726
0.948251
0.921568
0.918365
0.94687
0.870728
0.928206
0.954933
0.944931
0.944357
0.912866
0.859185
0.808324
0.811474
0.808426
0.913942
0.829818
0.947381
0.910558
0.915387
0.918509
0.93724
0.946415
0.945893
0.947844
0.948009
0.949487
0.846293
0.946839
0.947911
0.943182
0.916803
0.844364
0.818839
0.886746
0.921534
0.889612
0.947707
0.957698
0.942474
0.90862
0.930213
0.815754
0.916986
0.949776
0.94507
0.948022
0.896599
0.95858
0.847949
0.947426
0.904212
0.900442
0.949496
0.808795
0.944889
0.90711
0.948273
0.822956
0.949684
0.807694
0.950245
0.948995
0.917322
0.863905
0.807282
0.950413
0.95833
0.905781
0.949082
0.914348
0.924744
0.811214
0.825458
0.892737
0.950342
0.807036
0.821537
0.950401
0.941645
0.876629
0.916182
0.813732
0.949419
0.946437
0.912996
0.918368
0.945121
0.920598
0.95748
0.920067
0.95081
0.944582
0.912486
0.899491
0.947224
0.92165
0.805321
0.922929
0.94757
0.933781
0.920121
0.945562
0.910885
0.80506
0.93129
0.947092
0.950276
0.821858
0.936172
0.926262
0.928615
0.931864
0.946136
0.950942
0.941098
0.909179
0.940161
0.93827
0.920173
0.923478
0.945447
0.896377
0.856218
0.914605
0.859903
0.863653
0.957423
0.839708
0.882838
0.951027
0.867371
0.943762
0.956641
0.910637
0.845499
0.949184
0.876883
0.870504
0.883216
0.857791
0.863998
0.851417
0.889351
0.871287
0.92401
0.895167
0.875035
0.941753
0.948162
0.879033
0.94729
0.808433
0.846715
0.947731
0.94798
0.943612
0.80809
0.923001
0.894577
0.943016
0.949141
0.921986
0.94645
0.951101
0.946899
0.958052
0.926143
0.942368
0.945215
0.847834
0.907775
0.827926
0.931461
0.95176
0.901694
0.948208
0.951067
0.945964
0.944105
0.814583
0.930445
0.945254
0.841138
0.929837
0.950012
0.919366
0.899641
0.944427
0.906103
0.920204
0.921743
0.951013
0.952076
0.949742
0.955789
0.906628
0.945346
0.90059
0.950931
0.950824
0.946053
0.918711
0.94564
0.95071
0.949463
0.849392
0.918879
0.919677
0.901965
0.945004
0.955015
0.843805
0.954402
0.950616
0.808622
0.917739
0.927708
0.950518
0.953858
0.820325
0.945648
0.807245
0.95345
0.819894
0.946004
0.953059
0.952712
0.916811
0.952166
0.918516
0.913336
0.91745
0.905608
0.952439
0.952231
0.91584
0.917995
0.941375
0.952017
0.931516
0.906943
0.951806
0.951625
0.951462
0.951136
0.905402
0.913368
0.91699
0.919377
0.951308
0.813602
0.940948
0.967232
0.912646
0.940205
0.90977
0.92231
0.920204
0.920692
0.909656
0.909467
0.908227
0.917049
0.808077
0.946733
0.902502
0.921159
0.938713
0.905548
0.913073
0.917443
0.945315
0.915837
0.948584
0.952818
0.901138
0.936945
0.949261
0.948937
0.917779
0.84546
0.921751
0.926044
0.895488
0.944573
0.904635
0.849924
0.917785
0.805714
0.896664
0.892083
0.88744
0.882646
0.877798
0.873191
0.863719
0.854441
0.868497
0.921203
0.859014
0.805909
0.887672
0.829692
0.929117
0.922515
0.821526
0.91888
0.963648
0.938173
0.879237
0.92361
0.849728
0.921536
0.918453
0.83189
0.832227
0.925
0.890915
0.93512
0.812689
0.823098
0.918986
0.932842
0.940643
0.926782
0.919281
0.93065
0.826045
0.947396
0.879694
0.928642
0.919306
0.870106
0.945093
0.825575
0.936654
0.807156
0.978321
0.956311
0.948957
0.944485
0.910472
0.954204
0.925332
0.913546
0.943444
0.968895
0.945323
0.807787
0.901592
0.945685
0.809254
0.946061
0.810847
0.952036
0.898616
0.95224
0.85622
0.864063
0.92017
0.851551
0.934239
0.813607
0.95013
0.913723
0.897968
0.906278
0.946421
0.894982
0.809264
0.923957
0.950585
0.927136
0.893701
0.93994
0.946045
0.945284
0.919184
0.830436
0.893427
0.815863
0.947106
0.817748
0.818587
0.819803
0.947779
0.94882
0.808589
0.826432
0.948689
0.828896
0.948963
0.900838
0.831439
0.949225
0.946271
0.949476
0.83655
0.949715
0.910027
0.83918
0.94994
0.814282
0.841912
0.950149
0.920997
0.946129
0.806269
0.944833
0.923164
0.943654
0.92489
0.95975
0.810214
0.850626
0.950709
0.898579
0.847666
0.844767
0.940877
0.94302
0.950535
0.944158
0.954501
0.952836
0.949527
0.914949
0.956409
0.945825
0.859729
0.951174
0.942339
0.862703
0.946309
0.829214
0.940698
0.919708