# vtk DataFile Version 1.0
unstructured grid
ascii
DATASET UNSTRUCTURED_GRID
points 3920 float
-1 0 0
-1 1 0
2 0 0
2 1 0
0 0 0
1 0 0
-1 1 0.1
-1 0 0.1
0 0 0.1
1 0 0.1
2 0 0.1
2 1 0.1
-0.98 0 0
-0.96 0 0
-0.94 0 0
-0.92 0 0
-0.9 0 0
-0.88 0 0
-0.86 0 0
-0.84 0 0
-0.82 0 0
-0.8 0 0
-0.78 0 0
-0.76 0 0
-0.74 0 0
-0.72 0 0
-0.7 0 0
-0.68 0 0
-0.66 0 0
-0.64 0 0
-0.62 0 0
-0.6 0 0
-0.58 0 0
-0.56 0 0
-0.54 0 0
-0.52 0 0
-0.5 0 0
-0.48 0 0
-0.46 0 0
-0.44 0 0
-0.42 0 0
-0.4 0 0
-0.38 0 0
-0.36 0 0
-0.34 0 0
-0.32 0 0
-0.3 0 0
-0.28 0 0
-0.26 0 0
-0.24 0 0
-0.22 0 0
-0.2 0 0
-0.18 0 0
-0.16 0 0
-0.14 0 0
-0.12 0 0
-0.1 0 0
-0.08 0 0
-0.06 0 0
-0.04 0 0
-0.02 0 0
1.02 0 0
1.04 0 0
1.06 0 0
1.08 0 0
1.1 0 0
1.12 0 0
1.14 0 0
1.16 0 0
1.18 0 0
1.2 0 0
1.22 0 0
1.24 0 0
1.26 0 0
1.28 0 0
1.3 0 0
1.32 0 0
1.34 0 0
1.36 0 0
1.38 0 0
1.4 0 0
1.42 0 0
1.44 0 0
1.46 0 0
1.48 0 0
1.5 0 0
1.52 0 0
1.54 0 0
1.56 0 0
1.58 0 0
1.6 0 0
1.62 0 0
1.64 0 0
1.66 0 0
1.68 0 0
1.7 0 0
1.72 0 0
1.74 0 0
1.76 0 0
1.78 0 0
1.8 0 0
1.82 0 0
1.84 0 0
1.86 0 0
1.88 0 0
1.9 0 0
1.92 0 0
1.94 0 0
1.96 0 0
1.98 0 0
2 0.0199133 0
2 0.0414128 0
2 0.0646247 0
2 0.0896856 0
2 0.116743 0
2 0.145955 0
2 0.177494 0
2 0.211545 0
2 0.248309 0
2 0.288001 0
2 0.330854 0
2 0.377121 0
2 0.427073 0
2 0.481004 0
2 0.539231 0
2 0.602096 0
2 0.669968 0
2 0.743247 0
2 0.822362 0
2 0.907779 0
1.9 1 0
1.8 1 0
1.7 1 0
1.6 1 0
1.5 1 0
1.4 1 0
1.3 1 0
1.2 1 0
1.1 1 0
1 1 0
0.9 1 0
0.8 1 0
0.7 1 0
0.6 1 0
0.5 1 0
0.4 1 0
0.3 1 0
0.2 1 0
0.1 1 0
3.69793e-12 1 0
-0.1 1 0
-0.2 1 0
-0.3 1 0
-0.4 1 0
-0.5 1 0
-0.6 1 0
-0.7 1 0
-0.8 1 0
-0.9 1 0
-1 0.907779 0
-1 0.822362 0
-1 0.743247 0
-1 0.669968 0
-1 0.602096 0
-1 0.539231 0
-1 0.481004 0
-1 0.427073 0
-1 0.377121 0
-1 0.330854 0
-1 0.288001 0
-1 0.248309 0
-1 0.211545 0
-1 0.177494 0
-1 0.145955 0
-1 0.116743 0
-1 0.0896856 0
-1 0.0646247 0
-1 0.0414128 0
-1 0.0199133 0
0.0182781 0.00745351 0
0.0366672 0.0146286 0
0.0551632 0.0215237 0
0.0737617 0.0281372 0
0.0924585 0.0344675 0
0.111249 0.0405131 0
0.13013 0.0462728 0
0.149095 0.0517451 0
0.168142 0.0569289 0
0.187265 0.0618228 0
0.20646 0.0664258 0
0.225723 0.0707368 0
0.245049 0.0747549 0
0.264434 0.078479 0
0.283873 0.0819084 0
0.303362 0.0850422 0
0.322896 0.0878798 0
0.342472 0.0904204 0
0.362083 0.0926635 0
0.381726 0.0946086 0
0.401397 0.0962552 0
0.42109 0.0976029 0
0.440802 0.0986514 0
0.460527 0.0994006 0
0.480261 0.0998501 0
0.5 0.1 0
0.519739 0.0998501 0
0.539473 0.0994006 0
0.559198 0.0986514 0
0.57891 0.0976029 0
0.598603 0.0962552 0
0.618274 0.0946086 0
0.637917 0.0926635 0
0.657528 0.0904204 0
0.677104 0.0878798 0
0.696638 0.0850422 0
0.716127 0.0819084 0
0.735566 0.078479 0
0.754951 0.0747549 0
0.774277 0.0707368 0
0.79354 0.0664258 0
0.812735 0.0618228 0
0.831858 0.0569289 0
0.850905 0.0517451 0
0.86987 0.0462728 0
0.888751 0.0405131 0
0.907542 0.0344675 0
0.926238 0.0281372 0
0.944837 0.0215237 0
0.963333 0.0146286 0
0.981722 0.00745351 0
-1 0.907779 0.1
-1 0.822362 0.1
-1 0.743247 0.1
-1 0.669968 0.1
-1 0.602096 0.1
-1 0.539231 0.1
-1 0.481004 0.1
-1 0.427073 0.1
-1 0.377121 0.1
-1 0.330854 0.1
-1 0.288001 0.1
-1 0.248309 0.1
-1 0.211545 0.1
-1 0.177494 0.1
-1 0.145955 0.1
-1 0.116743 0.1
-1 0.0896856 0.1
-1 0.0646247 0.1
-1 0.0414128 0.1
-1 0.0199133 0.1
-0.98 0 0.1
-0.96 0 0.1
-0.94 0 0.1
-0.92 0 0.1
-0.9 0 0.1
-0.88 0 0.1
-0.86 0 0.1
-0.84 0 0.1
-0.82 0 0.1
-0.8 0 0.1
-0.78 0 0.1
-0.76 0 0.1
-0.74 0 0.1
-0.72 0 0.1
-0.7 0 0.1
-0.68 0 0.1
-0.66 0 0.1
-0.64 0 0.1
-0.62 0 0.1
-0.6 0 0.1
-0.58 0 0.1
-0.56 0 0.1
-0.54 0 0.1
-0.52 0 0.1
-0.5 0 0.1
-0.48 0 0.1
-0.46 0 0.1
-0.44 0 0.1
-0.42 0 0.1
-0.4 0 0.1
-0.38 0 0.1
-0.36 0 0.1
-0.34 0 0.1
-0.32 0 0.1
-0.3 0 0.1
-0.28 0 0.1
-0.26 0 0.1
-0.24 0 0.1
-0.22 0 0.1
-0.2 0 0.1
-0.18 0 0.1
-0.16 0 0.1
-0.14 0 0.1
-0.12 0 0.1
-0.1 0 0.1
-0.08 0 0.1
-0.06 0 0.1
-0.04 0 0.1
-0.02 0 0.1
0.0182781 0.00745351 0.1
0.0366672 0.0146286 0.1
0.0551632 0.0215237 0.1
0.0737617 0.0281372 0.1
0.0924585 0.0344675 0.1
0.111249 0.0405131 0.1
0.13013 0.0462728 0.1
0.149095 0.0517451 0.1
0.168142 0.0569289 0.1
0.187265 0.0618228 0.1
0.20646 0.0664258 0.1
0.225723 0.0707368 0.1
0.245049 0.0747549 0.1
0.264434 0.078479 0.1
0.283873 0.0819084 0.1
0.303362 0.0850422 0.1
0.322896 0.0878798 0.1
0.342472 0.0904204 0.1
0.362083 0.0926635 0.1
0.381726 0.0946086 0.1
0.401397 0.0962552 0.1
0.42109 0.0976029 0.1
0.440802 0.0986514 0.1
0.460527 0.0994006 0.1
0.480261 0.0998501 0.1
0.5 0.1 0.1
0.519739 0.0998501 0.1
0.539473 0.0994006 0.1
0.559198 0.0986514 0.1
0.57891 0.0976029 0.1
0.598603 0.0962552 0.1
0.618274 0.0946086 0.1
0.637917 0.0926635 0.1
0.657528 0.0904204 0.1
0.677104 0.0878798 0.1
0.696638 0.0850422 0.1
0.716127 0.0819084 0.1
0.735566 0.078479 0.1
0.754951 0.0747549 0.1
0.774277 0.0707368 0.1
0.79354 0.0664258 0.1
0.812735 0.0618228 0.1
0.831858 0.0569289 0.1
0.850905 0.0517451 0.1
0.86987 0.0462728 0.1
0.888751 0.0405131 0.1
0.907542 0.0344675 0.1
0.926238 0.0281372 0.1
0.944837 0.0215237 0.1
0.963333 0.0146286 0.1
0.981722 0.00745351 0.1
1.02 0 0.1
1.04 0 0.1
1.06 0 0.1
1.08 0 0.1
1.1 0 0.1
1.12 0 0.1
1.14 0 0.1
1.16 0 0.1
1.18 0 0.1
1.2 0 0.1
1.22 0 0.1
1.24 0 0.1
1.26 0 0.1
1.28 0 0.1
1.3 0 0.1
1.32 0 0.1
1.34 0 0.1
1.36 0 0.1
1.38 0 0.1
1.4 0 0.1
1.42 0 0.1
1.44 0 0.1
1.46 0 0.1
1.48 0 0.1
1.5 0 0.1
1.52 0 0.1
1.54 0 0.1
1.56 0 0.1
1.58 0 0.1
1.6 0 0.1
1.62 0 0.1
1.64 0 0.1
1.66 0 0.1
1.68 0 0.1
1.7 0 0.1
1.72 0 0.1
1.74 0 0.1
1.76 0 0.1
1.78 0 0.1
1.8 0 0.1
1.82 0 0.1
1.84 0 0.1
1.86 0 0.1
1.88 0 0.1
1.9 0 0.1
1.92 0 0.1
1.94 0 0.1
1.96 0 0.1
1.98 0 0.1
2 0.0199133 0.1
2 0.0414128 0.1
2 0.0646247 0.1
2 0.0896856 0.1
2 0.116743 0.1
2 0.145955 0.1
2 0.177494 0.1
2 0.211545 0.1
2 0.248309 0.1
2 0.288001 0.1
2 0.330854 0.1
2 0.377121 0.1
2 0.427073 0.1
2 0.481004 0.1
2 0.539231 0.1
2 0.602096 0.1
2 0.669968 0.1
2 0.743247 0.1
2 0.822362 0.1
2 0.907779 0.1
1.9 1 0.1
1.8 1 0.1
1.7 1 0.1
1.6 1 0.1
1.5 1 0.1
1.4 1 0.1
1.3 1 0.1
1.2 1 0.1
1.1 1 0.1
1 1 0.1
0.9 1 0.1
0.8 1 0.1
0.7 1 0.1
0.6 1 0.1
0.5 1 0.1
0.4 1 0.1
0.3 1 0.1
0.2 1 0.1
0.1 1 0.1
3.69793e-12 1 0.1
-0.1 1 0.1
-0.2 1 0.1
-0.3 1 0.1
-0.4 1 0.1
-0.5 1 0.1
-0.6 1 0.1
-0.7 1 0.1
-0.8 1 0.1
-0.9 1 0.1
1.08758 0.0158154 0
-0.0898513 0.0203294 0
0.0966181 0.0537636 0
0.90205 0.0548881 0
1.21055 0.0202058 0
-0.209811 0.0159577 0
1.3305 0.0176902 0
-0.33 0.0173205 0
1.45324 0.0148141 0
-0.448654 0.0159854 0
1.56842 0.0191785 0
-0.569936 0.0166364 0
0.193292 0.0805369 0
0.805051 0.0813623 0
0.709096 0.100353 0
0.288591 0.0996656 0
0.390184 0.111848 0
0.61033 0.111742 0
0.488809 0.116278 0
1.67175 0.0169692 0
-0.67 0.0169809 0
-0.955017 0.454039 0
1.95131 0.44569 0
1.74981 0.0168753 0
-0.75 0.0173205 0
-0.968032 0.266538 0
1.96871 0.266267 0
0.978232 0.0305687 0
0.0208675 0.026451 0
-0.150454 0.91842 0
1.13854 0.907437 0
1.45012 0.904365 0
-0.445923 0.908903 0
-0.853423 0.0157019 0
1.84881 0.016319 0
0.853689 0.915652 0
0.153944 0.912184 0
0.545151 0.914125 0
0.549913 0.115152 0
1.51 0.0173205 0
-0.506989 0.01651 0
1.27 0.0173205 0
1.14976 0.0173333 0
-0.268171 0.0206442 0
-0.150501 0.0153244 0
-0.391384 0.0153993 0
1.38886 0.0171544 0
-0.973694 0.161724 0
1.97441 0.162392 0
-0.945221 0.633523 0
1.94544 0.63312 0
1.91008 0.0186068 0
-0.91 0.0169616 0
-0.030664 0.0194327 0
1.03074 0.0165456 0
-0.966065 0.353575 0
1.96128 0.359765 0
1.93879 0.781254 0
-0.937057 0.781882 0
-0.980746 0.080709 0
1.9772 0.0760699 0
0.058735 0.0409372 0
0.355202 0.913001 0
0.86356 0.0661005 0
0.134223 0.0651111 0
0.941972 0.0397386 0
-0.653034 0.915003 0
1.65328 0.904589 0
0.770126 0.0881325 0
0.232946 0.0902008 0
0.330582 0.105648 0
0.670612 0.108365 0
0.428707 0.116145 0
1.80993 0.016629 0
-0.810168 0.0172178 0
-0.71 0.0173205 0
1.63047 0.0175504 0
1.70842 0.0169661 0
-0.628824 0.0181787 0
-0.949815 0.0133898 0
1.95 0.0173205 0
1.85542 0.907891 0
-0.85 0.913397 0
1.9833 0.0307692 0
-0.983315 0.0309709 0
-0.750025 0.916468 0
-0.701107 0.836904 0
-0.607741 0.836428 0
-0.656448 0.759827 0
-0.572936 0.758144 0
-0.61411 0.691195 0
-0.539534 0.689068 0
-0.578542 0.626111 0
-0.507461 0.624216 0
-0.544001 0.566638 0
-0.477696 0.564279 0
-0.511582 0.51001 0
-0.451689 0.507147 0
-0.481834 0.457732 0
-0.426137 0.454624 0
-0.453236 0.407539 0
-0.398845 0.406233 0
-0.507958 0.409496 0
-0.368427 0.460177 0
-0.344602 0.405209 0
-0.315696 0.447824 0
-0.294128 0.402169 0
-0.262844 0.444518 0
-0.241968 0.388746 0
-0.209878 0.439557 0
-0.185184 0.391135 0
-0.156687 0.437338 0
-0.133719 0.390776 0
-0.104405 0.434306 0
-0.0818745 0.388334 0
-0.0528785 0.431165 0
-0.0305984 0.385639 0
-0.00180552 0.427863 0
0.0194564 0.382608 0
0.0485809 0.42449 0
0.0701962 0.37973 0
0.0985483 0.421145 0
0.119893 0.377339 0
0.147837 0.417911 0
0.172552 0.36751 0
0.197018 0.412597 0
0.221203 0.37141 0
0.24512 0.409646 0
-0.48178 0.364657 0
-0.531053 0.364782 0
-0.0599102 0.344151 0
-0.324909 0.359566 0
0.266181 0.368462 0
0.292132 0.407649 0
0.311992 0.365779 0
0.338918 0.404821 0
0.357567 0.355909 0
0.384723 0.40053 0
0.404675 0.359681 0
0.430617 0.398558 0
0.450457 0.35827 0
0.474237 0.395182 0
0.496746 0.34898 0
0.520548 0.397931 0
0.542071 0.353121 0
0.566011 0.389914 0
0.585061 0.350856 0
0.609352 0.38696 0
0.629069 0.348168 0
0.655979 0.391217 0
0.67472 0.346182 0
0.699346 0.381414 0
0.719333 0.341965 0
0.743718 0.377547 0
0.764028 0.339036 0
0.788201 0.373582 0
0.807659 0.336101 0
0.832821 0.372249 0
0.852309 0.334017 0
0.877785 0.370339 0
0.897875 0.331141 0
0.922904 0.366281 0
0.943173 0.327335 0
0.968282 0.363358 0
0.989029 0.324222 0
1.01391 0.361511 0
1.03465 0.321428 0
1.05949 0.358447 0
1.08389 0.312052 0
1.10575 0.355104 0
1.12889 0.31562 0
1.15067 0.353235 0
1.17157 0.312819 0
1.19626 0.349369 0
1.21618 0.309863 0
1.2416 0.346914 0
1.26131 0.30715 0
1.28691 0.344312 0
1.30571 0.303752 0
1.33144 0.341222 0
1.35018 0.300911 0
1.3758 0.338308 0
1.39501 0.298931 0
1.42015 0.335235 0
1.43904 0.296349 0
1.46355 0.330194 0
1.48256 0.293347 0
1.50685 0.326967 0
1.52589 0.29055 0
1.54996 0.325305 0
1.56909 0.287929 0
[...]
CELL_DATA 3694
SCALARS rho float
LOOKUP_TABLE default
0.735554
0.671351
0.803787
0.81344
0.826649
0.805089
0.791632
0.799929
0.810316
0.802685
0.817627
0.81762
0.840447
0.789382
0.800721
0.750995
0.803255
0.802931
0.760579
0.850039
0.817416
0.823252
0.698558
0.803374
0.695152
0.83937
0.720309
0.806234
0.837017
0.798516
0.798706
0.71867
0.803471
0.824655
0.802776
0.797644
0.837229
0.823038
0.824945
0.778136
0.804636
0.817325
0.83435
0.825232
0.80513
0.813332
0.800784
0.669981
0.679794
0.721749
0.802048
0.802919
0.846813
0.802055
0.632071
0.83813
0.802597
0.819209
0.832622
0.754341
0.796269
0.815562
0.842164
0.799542
0.842708
0.830977
0.807545
0.814011
0.736481
0.858344
0.803136
0.807575
0.823275
0.803219
0.824647
0.802896
0.814164
0.799569
0.814242
0.802732
0.714866
0.818332
0.802269
0.776736
0.810118
0.799525
0.818557
0.715917
0.735965
0.825187
0.799389
0.802371
0.820459
0.815625
0.675358
0.806506
0.723409
0.818097
0.812714
0.840029
0.815038
0.762915
0.718263
0.810103
0.809556
0.815557
0.818077
0.807004
0.71621
0.814666
0.799255
0.723441
0.72062
0.823592
0.867921
0.802188
0.799958
0.812517
0.803122
0.802088
0.765751
0.822453
0.819925
0.770124
0.704151
0.758732
0.817725
0.777255
0.84359
0.701523
0.76725
0.800373
0.807919
0.777712
0.800895
0.795783
0.805442
0.802375
0.797908
0.814964
0.814108
0.711099
0.817272
0.814076
0.757847
0.672058
0.677543
0.798046
0.816411
0.813092
0.744971
0.802682
0.557627
0.778811
0.687739
0.763821
0.713919
0.783961
0.607444
0.793082
0.837485
0.645357
0.782149
0.737399
0.844228
0.555761
0.817218
0.800347
0.802847
0.673814
0.80154
0.663384
0.857871
0.541585
0.799882
0.636549
0.8726
0.833487
0.820887
0.745098
0.814431
0.721647
0.827145
0.737351
0.6491
0.803099
0.678343
0.823639
0.801677
0.851047
0.791791
0.703414
0.815291
0.798315
0.74261
0.85297
0.811389
0.848877
0.736919
0.743559
0.771099
0.794015
0.831897
0.834208
0.816863
0.814587
0.670012
0.804603
0.727552
0.80319
0.710132
0.797547
0.795648
0.801505
0.82595
0.764082
0.830613
0.749784
0.825893
0.820095
0.816369
0.853191
0.829429
0.704672
0.827291
0.685355
0.787847
0.81028
0.851215
0.830368
0.808639
0.79448
0.745918
0.817978
0.836848
0.817797
0.71577
0.800066
0.696863
0.792517
0.795504
0.810314
0.639348
0.807576
0.758122
0.797872
0.803095
0.759548
0.815676
0.865896
0.784158
0.691441
0.804431
0.801623
0.647751
0.792636
0.778042
0.802339
0.839059
0.815311
0.609206
0.815681
0.810104
0.797188
0.81593
0.802646
0.815365
0.814745
0.835597
0.756544
0.801839
0.835042
0.810466
0.803134
0.796136
0.815488
0.728299
0.588642
0.817236
0.829598
0.820733
0.804371
0.683418
0.815928
0.815677
0.817048
0.714659
0.797439
0.815582
0.545699
0.802817
0.869174
0.681061
0.756898
0.83884
0.82716
0.815336
0.706513
0.809424
0.815579
0.803808
0.801695
0.812136
0.836749
0.817353
0.767396
0.807028
0.803055
0.647142
0.821335
0.828118
0.672567
0.791333
0.819227
0.82084
0.679693
0.678097
0.821748
0.824364
0.809552
0.733258
0.707514
0.714228
0.733644
0.820645
0.77708
0.804158
0.733489
0.742061
0.822812
0.81057
0.819199
0.770212
0.815675
0.814329
0.817753
0.81638
0.802756
0.807577
0.803881
0.691035
0.802713
0.812808
0.696845
0.807189
0.805111
0.819797
0.785897
0.805948
0.791883
0.815468
0.821326
0.820531
0.798203
0.68372
0.71239
0.799432
0.810887
0.624654
0.803875
0.807518
0.817256
0.743822
0.804266
0.816767
0.812048
0.818213
0.805037
0.797336
0.76483
0.804347
0.843705
0.820099
0.706228
0.803676
0.703638
0.704363
0.803066
0.615555
0.770788
0.784876
0.808026
0.814004
0.825522
0.817516
0.812929
0.82054
0.828511
0.802832
0.764972
0.809767
0.660054
0.819603
0.757597
0.728552
0.690032
0.814468
0.854098
0.819629
0.808807
0.822165
0.81583
0.786962
0.758774
0.810025
0.693734
0.791251
0.843698
0.826588
0.800822
0.864148
0.81339
0.816876
0.817966
0.831034
0.631481
0.79901
0.732393
0.797956
0.735013
0.81927
0.808673
0.78757
0.682423
0.815354
0.830027
0.8124
0.802948
0.803785
0.824667
0.803853
0.712478
0.790365
0.803103
0.8153
0.814389
0.813051
0.871726
0.82809
0.809394
0.832356
0.68304
0.823738
0.837843
0.816665
0.628578
0.81581
0.809211
0.845682
0.821717
0.802946
0.593626
0.810125
0.697368
0.806117
0.802893
0.812271
0.814129
0.825215
0.805077
0.81123
0.816472
0.725491
0.863059
0.801959
0.850354
0.816832
0.576404
0.8039
0.796744
0.812086
0.818084
0.653654
0.802835
0.809652
0.813018
0.807126
0.793923
0.816109
0.81773
0.796549
0.803972
0.821789
0.837057
0.731501
0.806294
0.809747
0.813576
0.683131
0.805261
0.816377
0.799302
0.804122
0.528236
0.833192
0.764257
0.815247
0.818158
0.831136
0.846406
0.816553
0.812141
0.717419
0.798993
0.852503
0.808893
0.710518
0.800228
0.80262
0.872315
0.845495
0.81946
0.802052
0.809691
0.755871
0.815911
0.81391
0.586415
0.802686
0.730751
0.750345
0.803146
0.811902
0.781083
0.821464
0.815778
0.838211
0.816363
0.800511
0.809308
0.738499
0.73742
0.804178
0.808473
0.821409
0.802279
0.751921
0.690222
0.81414
0.815232
0.814025
0.596125
0.814226
0.816964
0.825055
0.803072
0.809024
0.820011
0.811857
0.839677
0.803013
0.812694
0.824008
0.816107
0.818027
0.821771
0.690678
0.784305
0.795153
0.803165
0.847819
0.802083
0.803026
0.636161
0.811144
0.814022
0.810808
0.819459
0.805804
0.813698
0.727581
0.843842
0.706912
0.800474
0.817785
0.807266
0.657448
0.680646
0.815498
0.805703
0.804309
0.785842
0.801558
0.829558
0.813946
0.805013
0.802204
0.812752
0.620622
0.812904
0.803112
0.700641
0.81595
0.621557
0.784462
0.815992
0.837965
0.806352
0.813068
0.792882
0.795872
0.804114
0.801466
0.812562
0.811171
0.809461
0.803267
0.75734
0.804114
0.813123
0.812566
0.816534
0.812079
0.816415
0.815491
0.834444
0.739244
0.806727
0.816151
0.802511
0.544543
0.684329
0.811358
0.813865
0.815745
0.78045
0.808446
0.812888
0.803257
0.79997
0.802803
0.820206
0.821052
0.815562
0.785283
0.808514
0.80611
0.563788
0.774171
0.757908
0.806745
0.736072
0.678286
0.797724
0.767815
0.828033
0.815528
0.815279
0.808408
0.54226
0.815713
0.584952
0.698159
0.825017
0.869824
0.742443
0.81703
0.853068
0.69588
0.815869
0.809066
0.814949
0.807347
0.657132
0.854751
0.737358
0.731287
0.803374
0.804633
0.799633
0.833458
0.815747
0.691922
0.815769
0.800321
0.693972
0.839778
0.798283
0.623247
0.77315
0.816191
0.808346
0.815392
0.784485
0.726498
0.770683
0.83714
0.689236
0.816459
0.817675
0.827266
0.765662
0.822448
0.693065
0.804637
0.661434
0.701308
0.800774
0.822878
0.788941
0.815191
0.815912
0.815763
0.814599
0.579089
0.802583
0.815575
0.743783
0.810124
0.815942
0.812373
0.714873
0.690971
0.741754
0.622526
0.807335
0.68258
0.816174
0.80195
0.815572
0.837093
0.687826
0.804793
0.820144
0.83266
0.738895
0.782242
0.764884
0.773417
0.812741
0.573176
0.674986
0.815848
0.805389
0.812705
0.804618
0.713976
0.780638
0.72572
0.760569
0.799776
0.832228
0.812322
0.691873
0.823769
0.818132
0.811462
0.687752
0.691414
0.682691
0.872273
0.816389
0.817027
0.610382
0.711955
0.642276
0.803543
0.800459
0.672582
0.812054
0.824695
0.749999
0.79967
0.730761
0.81469
0.693059
0.815346
0.810557
0.801877
0.803127
0.825766
0.744753
0.816269
0.815573
0.780538
0.557185
0.816477
0.811433
0.758436
0.814488
0.747383
0.803047
0.826704
0.663119
0.818591
0.802746
0.810033
0.585526
0.642314
0.735821
0.806451
0.81259
0.811346
0.821462
0.814935
0.81647
0.705017
0.801985
0.813614
0.826582
0.704088
0.727565
0.812821
0.812191
0.697201
0.814431
0.774815
0.701123
0.811967
0.696585
0.804635
0.66328
0.802909
0.729994
0.668213
0.811661
0.78633
0.744779
0.632069
0.840325
0.82113
0.815348
0.770755
0.814807
0.80021
0.786464
0.800066
0.801762
0.81557
0.732895
0.809778
0.800164
0.81922
0.599781
0.801524
0.813379
0.814323
0.812068
0.81261
0.746816
0.803337
0.764359
0.75132
0.819045
0.648854
0.818975
0.818108
0.803126
0.816032
0.81726
0.722026
0.768486
0.822496
0.785748
0.803811
0.816478
0.875189
0.8184
0.798751
0.817306
0.815877
0.794072
0.818938
0.81728
0.773539
0.700151
0.841473
0.797094
0.803218
0.82269
0.781495
0.818308
0.824858
0.819107
0.817374
0.870686
0.803148
0.805004
0.818717
0.803141
0.815945
0.807028
0.736723
0.81586
0.820141
0.75382
0.710193
0.815736
0.843436
0.822431
0.656833
0.822162
0.773941
0.8088
0.802058
0.730369
0.80315
0.798842
0.815578
0.817314
0.695383
0.706209
0.802323
0.787682
0.80177
0.825069
0.721716
0.815565
0.802543
0.800362
0.823632
0.815971
0.714249
0.816172
0.763533
0.802516
0.832679
0.803441
0.773823
0.797949
0.794667
0.81563
0.602025
0.815542
0.693725
0.681129
0.803542
0.819972
0.815579
0.802645
0.815664
0.808765
0.725144
0.787793
0.857332
0.803065
0.833722
0.8075
0.545813
0.762199
0.780374
0.64935
0.738516
0.580368
0.820356
0.813876
0.814296
0.802497
0.766915
0.685715
0.765006
0.752312
0.782255
0.815514
0.845031
0.819814
0.805899
0.819346
0.823969
0.802775
0.807744
0.706425
0.803246
0.756715
0.808748
0.798023
0.752287
0.822641
0.788583
0.803632
0.790275
0.841118
0.728433
0.801003
0.799623
0.80496
0.618329
0.816005
0.815891
0.821962
0.633595
0.815778
0.815765
0.798688
0.803917
0.793341
0.775783
0.80644
0.795035
0.816465
0.753084
0.804234
0.875403
0.763158
0.748573
0.807413
0.784064
0.842843
0.800331
0.780092
0.815814
0.798282
0.792668
0.80813
0.825916
0.836009
0.799802
0.575405
0.820825
0.82855
0.772265
0.831053
0.838449
0.823218
0.826596
0.807342
0.833194
0.827165
0.783863
0.809093
0.811875
0.806757
0.823067
0.803433
0.827394
0.793013
0.803365
0.805816
0.72743
0.807168
0.562735
0.818391
0.825652
0.828929
0.805913
0.818231
0.824255
0.819458
0.821195
0.839044
0.833389
0.788349
0.800442
0.822076
0.815836
0.817405
0.800359
0.806444
0.865715
0.820431
0.847583
0.81557
0.800742
0.824643
0.799823
0.833493
0.813898
0.815707
0.805335
0.727363
0.802963
0.804571
0.815582
0.803371
0.802349
0.822116
0.804639
0.80422
0.778113
0.819764
0.718116
0.814243
0.780785
0.759214
0.803605
0.813326
0.818983
0.716142
0.819722
0.815245
0.826574
0.817497
0.790002
0.816759
0.847402
0.833209
0.815212
0.811765
0.801641
0.744371
0.679273
0.815637
0.820645
0.771349
0.814799
0.807816
0.812245
0.805472
0.798626
0.776312
0.80243
0.800125
0.841645
0.817817
0.811466
0.806333
0.604193
0.73192
0.802202
0.78377
0.804149
0.816119
0.805965
0.816544
0.779973
0.815695
0.804838
0.811151
0.803766
0.818239
0.803179
0.816341
0.811319
0.816278
0.813236
0.718128
0.814855
0.816165
0.598078
0.815469
0.796814
0.802873
0.858933
0.818671
0.811147
0.872606
0.81576
0.815851
0.817276
0.819215
0.815653
0.764463
0.830305
0.8014
0.803176
0.814895
0.815737
0.817162
0.815627
0.813795
0.822915
0.803954
0.812886
0.809087
0.815255
0.819991
0.815654
0.81218
0.819621
0.808927
0.694326
0.660437
0.802638
0.808652
0.803337
0.811697
0.818733
0.817466
0.802894
0.803929
0.800626
0.800857
0.817282
0.844531
0.818928
0.81157
0.818848
0.818557
0.846161
0.81784
0.821128
0.785726
0.816193
0.80679
0.801367
0.792075
0.811127
0.818868
0.815487
0.815616
0.835989
0.806438
0.813212
0.816989
0.821561
0.8035
0.803215
0.805507
0.811358
0.815584
0.801572
0.80337
0.817321
0.822508
0.800851
0.627751
0.804241
0.797114
0.817305
0.798628
0.802738
0.748612
0.841045
0.802732
0.799785
0.835034
0.829996
0.810231
0.826499
0.8005
0.818235
0.817737
0.81907
0.803588
0.818661
0.729192
0.822626
0.811507
0.800144
0.813072
0.820856
0.799134
0.803979
0.782725
0.815151
0.815863
0.815964
0.81886
0.806411
0.817466
0.816212
0.826229
0.821979
0.837886
0.805937
0.695645
0.818288
0.84075
0.820105
0.804608
0.800057
0.803353
0.816538
0.814117
0.816394
0.74394
0.739001
0.800773
0.802941
0.816077
0.816899
0.799078
0.654376
0.708711
0.808006
0.768916
0.816275
0.703779
0.803033
0.728457
0.803171
0.820007
0.803107
0.817683
0.813199
0.798547
0.80858
0.793794
0.829825
0.815988
0.801228
0.803483
0.816226
0.821936
0.749843
0.822875
0.803708
0.783104
0.81587
0.803816
0.810533
0.815134
0.815468
0.835499
0.793046
0.799
0.815754
0.759223
0.806612
0.815259
0.800977
0.816326
0.841232
0.802252
0.843393
0.8089
0.790581
0.812284
0.802604
0.852032
0.788444
0.803134
0.816406
0.83184
0.808348
0.81414
0.816106
0.80282
0.802671
0.825931
0.782913
0.814692
0.815719
0.646583
0.815912
0.712997
0.817596
0.838415
0.824727
0.803969
0.814994
0.815622
0.726111
0.815203
0.800867
0.801545
0.800859
0.816086
0.863978
0.801226
0.800991
0.785459
0.840837
0.827938
0.819859
0.813573
0.747073
0.803724
0.803304
0.731092
0.799484
0.714732
0.810814
0.8009
0.676909
0.880348
0.702758
0.772158
0.801354
0.743842
0.808339
0.79894
0.803012
0.660949
0.79672
0.784153
0.799007
0.729851
0.818977
0.822698
0.884659
0.809416
0.831391
0.645763
0.799977
0.787073
0.745142
0.751869
0.769459
0.706883
0.803087
0.799331
0.803162
0.763968
0.627987
0.811405
0.613924
0.821293
0.822927
0.811463
0.736797
0.812205
0.795719
0.81932
0.78284
0.807476
0.797109
0.810301
0.717019
0.801456
0.722866
0.801302
0.798778
0.687495
0.803615
0.81555
0.815603
0.803068
0.761476
0.815352
0.731837
0.691179
0.802283
0.815605
0.874556
0.815518
0.814814
0.880685
0.865567
0.831011
0.71716
0.801961
0.811857
0.821381
0.798225
0.682456
0.723006
0.677899
0.802341
0.703397
0.768707
0.799394
0.61926
0.689794
0.83622
0.773883
0.745773
0.830651
0.759561
0.769134
0.644986
0.731903
0.785366
0.819831
0.869631
0.837927
0.815876
0.794827
0.799658
0.716449
0.815761
0.694533
0.796979
0.815595
0.783445
0.762809
0.801856
0.783052
0.802196
0.800724
0.811992
0.811049
0.867272
0.57993
0.541879
0.80238
0.807163
0.699099
0.810041
0.802787
0.837666
0.803462
0.802347
0.569219
0.559721
0.808361
0.812665
0.815688
0.727679
0.803126
0.810677
0.685468
0.811721
0.802676
0.814255
0.803144
0.800696
0.802222
0.814703
0.802913
0.816976
0.803231
0.862216
0.81506
0.802476
0.720955
0.671375
0.815668
0.587371
0.812877
0.810056
0.836025
0.814091
0.803041
0.810711
0.813749
0.813386
0.815374
0.801596
0.854039
0.85662
0.802328
0.657082
0.808654
0.82236
0.799408
0.803143
0.820143
0.735103
0.803213
0.825339
0.821459
0.815878
0.815524
0.766919
0.745288
0.800869
0.834149
0.802901
0.814455
0.804553
0.803764
0.805084
0.814375
0.808882
0.798775
0.806848
0.806073
0.824555
0.806657
0.806251
0.817752
0.8069
0.803342
0.813476
0.802926
0.802804
0.80578
0.807873
0.813609
0.773824
0.805303
0.802676
0.815537
0.799717
0.803728
0.806838
0.831984
0.805006
0.652303
0.800785
0.8156
0.804633
0.814734
0.763339
0.815392
0.751172
0.80364
0.802178
0.804033
0.818937
0.85118
0.804338
0.803228
0.746805
0.829732
0.815502
0.82055
0.824898
0.814951
0.737502
0.818281
0.72345
0.801061
0.827731
0.802382
0.701848
0.825982
0.81489
0.816584
0.824256
0.815854
0.773501
0.817352
0.651347
0.712141
0.815592
0.822754
0.678398
0.819469
0.659432
0.821577
0.806882
0.816875
0.803147
0.805672
0.815048
0.831742
0.82508
0.672662
0.813574
0.84219
0.781596
0.846439
0.800243
0.707492
0.838671
0.819688
0.835717
0.690309
0.685996
0.833053
0.660652
0.830772
0.815595
0.828755
0.80629
0.827049
0.787778
0.825558
0.824178
0.709053
0.865786
0.822997
0.821999
0.8236
0.759666
0.802824
0.527383
0.803449
0.821133
0.814012
0.804761
0.826098
0.815575
0.798081
0.820373
0.802972
0.683201
0.792468
0.834254
0.814919
0.717106
0.799576
0.821557
0.578248
0.815252
0.816041
0.80266
0.80993
0.727176
0.81809
0.803003
0.803466
0.796004
0.794315
0.797952
0.794671
0.803255
0.812972
0.819327
0.814552
0.574236
0.893066
0.707609
0.797904
0.74043
0.791502
0.815549
0.816141
0.816038
0.605971
0.819263
0.817219
0.803934
0.818229
0.836742
0.839566
0.782956
0.798439
0.799496
0.726524
0.753396
0.815744
0.764381
0.815189
0.819374
0.815311
0.81351
0.801931
0.775809
0.812071
0.816533
0.729061
0.810613
0.816326
0.818466
0.807832
0.809492
0.765285
0.815144
0.808217
0.803163
0.807457
0.618096
0.806524
0.804357
0.805943
0.821604
0.845634
0.804732
0.774805
0.805305
0.771683
0.820576
0.806187
0.813326
0.81556
0.850259
0.803396
0.744673
0.819792
0.815743
0.727762
0.801018
0.816668
0.758641
0.813207
0.571003
0.806612
0.686388
0.801322
0.811307
0.812921
0.817617
0.804214
0.816011
0.818071
0.801096
0.804477
0.844524
0.816578
0.796261
0.816539
0.802109
0.801676
0.800342
0.801318
0.807434
0.81515
0.801678
0.770574
0.818777
0.813119
0.808888
0.815569
0.588313
0.803395
0.813694
0.815781
0.787925
0.748974
0.718458
0.813062
0.815412
0.826193
0.789803
0.604479
0.771903
0.64234
0.817148
0.744933
0.812789
0.830361
0.697262
0.799765
0.83406
0.750368
0.800606
0.803151
0.815976
0.802534
0.69952
0.800758
0.551373
0.801852
0.802476
0.802209
0.592461
0.802917
0.803439
0.803182
0.729052
0.737966
0.803425
0.7768
0.816097
0.722746
0.707348
0.815534
0.801351
0.753062
0.854248
0.814389
0.812841
0.670253
0.802805
0.800609
0.800527
0.80247
0.657891
0.803269
0.815783
0.655364
0.686216
0.805863
0.790742
0.815645
0.823336
0.815455
0.815666
0.816841
0.803658
0.815705
0.815385
0.813594
0.82933
0.802577
0.801854
0.810434
0.728346
0.809593
0.815241
0.862881
0.811193
0.639117
0.775201
0.802222
0.776311
0.817097
0.812247
0.830167
0.814156
0.864683
0.802074
0.815029
0.595371
0.815725
0.833993
0.802905
0.814812
0.626218
0.815754
0.802695
0.817054
0.80224
0.817887
0.816376
0.754547
0.803577
0.803118
0.835263
0.862012
0.819661
0.816522
0.724665
0.742536
0.802526
0.803056
0.812126
0.81841
0.799632
0.802883
0.819801
0.806853
0.807562
0.739176
0.802719
0.81783
0.814253
0.768627
0.760414
0.812082
0.796466
0.857131
0.719298
0.834741
0.811356
0.710809
0.799738
0.814885
0.787471
0.800744
0.799743
0.815513
0.777758
0.774455
0.813887
0.696754
0.79876
0.766022
0.815393
0.817654
0.80205
0.787946
0.739131
0.752867
0.774305
0.815139
0.819288
0.80611
0.666382
0.802428
0.796086
0.777878
0.809758
0.813438
0.799589
0.803285
0.636567
0.804123
0.804742
0.851471
0.803714
0.809145
0.833491
0.805417
0.810514
0.852373
0.615021
0.804046
0.816579
0.805421
0.805031
0.805726
0.80459
0.804696
0.804206
0.805815
0.806432
0.725332
0.80571
0.807118
0.807038
0.815499
0.80824
0.818772
0.803096
0.803518
0.815135
0.815289
0.810449
0.803333
0.816245
0.813264
0.810063
0.816439
0.709283
0.8144
0.831713
0.815415
0.854436
0.750126
0.808424
0.815533
0.800981
0.613459
0.80326
0.772683
0.8222
0.628185
0.816035
0.829745
0.815183
0.812133
0.80212
0.827219
0.819389
0.803639
0.765137
0.817464
0.758653
0.54944
0.814895
0.693609
0.696117
0.820414
0.827884
0.827723
0.817079
0.84771
0.578614
0.877019
0.805267
0.826198
0.824544
0.813402
0.683123
0.81539
0.82302
0.816806
0.801185
0.773674
0.822288
0.567752
0.813411
0.843377
0.803141
0.839832
0.821797
0.803256
0.670889
0.843483
0.820755
0.836659
0.800946
0.814135
0.803047
0.834038
0.802843
0.81408
0.831624
0.829491
0.822048
0.824596
0.830908
0.738741
0.663596
0.568139
0.827657
0.826142
0.767627
0.756977
0.806767
0.824724
0.846912
0.593526
0.823452
0.822371
0.821471
0.819963
0.803976
0.820808
0.6606
0.745019
0.820679
0.797543
0.870304
0.890191
0.776608
0.8043
0.670265
0.835599
0.731666
0.720203
0.819161
0.801691
0.783583
0.66419
0.802187
0.815578
0.788958
0.713458
0.800867
0.817184
0.798038
0.679835
0.82366
0.792862
0.816204
0.833514
0.815185
0.796087
0.816624
0.816396
0.785911
0.804038
0.712351
0.840702
0.793119
0.811486
0.78207
0.804434
0.69859
0.800846
0.813521
0.812153
0.810987
0.809466
0.808373
0.807616
0.805988
0.804873
0.806796
0.726556
0.805425
0.801457
0.795944
0.803318
0.844543
0.716598
0.803207
0.776216
0.884034
0.854583
0.79803
0.724668
0.8034
0.797718
0.720182
0.803331
0.801777
0.735212
0.803682
0.790354
0.79745
0.80116
0.737832
0.780162
0.804813
0.748016
0.764498
0.769953
0.80148
0.815151
0.808626
0.759271
0.751499
0.79954
0.814269
0.803315
0.793212
0.801135
0.928616
0.860668
0.818071
0.815442
0.72324
0.844524
0.748
0.826151
0.816715
0.898187
0.815591
0.797289
0.590107
0.815613
0.797407
0.815638
0.797826
0.845699
0.524871
0.83307
0.801559
0.80567
0.8049
0.80384
0.85607
0.801318
0.817792
0.70213
0.666765
0.667355
0.815674
0.506693
0.797812
0.722706
0.841955
0.814903
0.559787
0.802316
0.815083
0.814776
0.719522
0.801775
0.52644
0.79735
0.815791
0.797472
0.802738
0.797713
0.815942
0.834093
0.803245
0.798422
0.816307
0.798688
0.816448
0.814175
0.798974
0.81661
0.814258
0.816801
0.799089
0.817015
0.680184
0.799285
0.817256
0.803067
0.799477
0.8175
0.699049
0.815593
0.798344
0.815571
0.798523
0.810435
0.838499
0.861452
0.800987
0.800566
0.818412
0.815416
0.800207
0.799831
0.863735
0.81248
0.818093
0.810889
0.850052
0.828815
0.817066
0.825838
0.846424
0.81554
0.8017
0.819621
0.811853
0.802128
0.815414
0.800129
0.80775