# vtk DataFile Version 1.0
unstructured grid
ascii
DATASET UNSTRUCTURED_GRID
points 3920 float
-1 0 0
-1 1 0
2 0 0
2 1 0
0 0 0
1 0 0
-1 1 0.1
-1 0 0.1
0 0 0.1
1 0 0.1
2 0 0.1
2 1 0.1
-0.98 0 0
-0.96 0 0
-0.94 0 0
-0.92 0 0
-0.9 0 0
-0.88 0 0
-0.86 0 0
-0.84 0 0
-0.82 0 0
-0.8 0 0
-0.78 0 0
-0.76 0 0
-0.74 0 0
-0.72 0 0
-0.7 0 0
-0.68 0 0
-0.66 0 0
-0.64 0 0
-0.62 0 0
-0.6 0 0
-0.58 0 0
-0.56 0 0
-0.54 0 0
-0.52 0 0
-0.5 0 0
-0.48 0 0
-0.46 0 0
-0.44 0 0
-0.42 0 0
-0.4 0 0
-0.38 0 0
-0.36 0 0
-0.34 0 0
-0.32 0 0
-0.3 0 0
-0.28 0 0
-0.26 0 0
-0.24 0 0
-0.22 0 0
-0.2 0 0
-0.18 0 0
-0.16 0 0
-0.14 0 0
-0.12 0 0
-0.1 0 0
-0.08 0 0
-0.06 0 0
-0.04 0 0
-0.02 0 0
1.02 0 0
1.04 0 0
1.06 0 0
1.08 0 0
1.1 0 0
1.12 0 0
1.14 0 0
1.16 0 0
1.18 0 0
1.2 0 0
1.22 0 0
1.24 0 0
1.26 0 0
1.28 0 0
1.3 0 0
1.32 0 0
1.34 0 0
1.36 0 0
1.38 0 0
1.4 0 0
1.42 0 0
1.44 0 0
1.46 0 0
1.48 0 0
1.5 0 0
1.52 0 0
1.54 0 0
1.56 0 0
1.58 0 0
1.6 0 0
1.62 0 0
1.64 0 0
1.66 0 0
1.68 0 0
1.7 0 0
1.72 0 0
1.74 0 0
1.76 0 0
1.78 0 0
1.8 0 0
1.82 0 0
1.84 0 0
1.86 0 0
1.88 0 0
1.9 0 0
1.92 0 0
1.94 0 0
1.96 0 0
1.98 0 0
2 0.0199133 0
2 0.0414128 0
2 0.0646247 0
2 0.0896856 0
2 0.116743 0
2 0.145955 0
2 0.177494 0
2 0.211545 0
2 0.248309 0
2 0.288001 0
2 0.330854 0
2 0.377121 0
2 0.427073 0
2 0.481004 0
2 0.539231 0
2 0.602096 0
2 0.669968 0
2 0.743247 0
2 0.822362 0
2 0.907779 0
1.9 1 0
1.8 1 0
1.7 1 0
1.6 1 0
1.5 1 0
1.4 1 0
1.3 1 0
1.2 1 0
1.1 1 0
1 1 0
0.9 1 0
0.8 1 0
0.7 1 0
0.6 1 0
0.5 1 0
0.4 1 0
0.3 1 0
0.2 1 0
0.1 1 0
3.69793e-12 1 0
-0.1 1 0
-0.2 1 0
-0.3 1 0
-0.4 1 0
-0.5 1 0
-0.6 1 0
-0.7 1 0
-0.8 1 0
-0.9 1 0
-1 0.907779 0
-1 0.822362 0
-1 0.743247 0
-1 0.669968 0
-1 0.602096 0
-1 0.539231 0
-1 0.481004 0
-1 0.427073 0
-1 0.377121 0
-1 0.330854 0
-1 0.288001 0
-1 0.248309 0
-1 0.211545 0
-1 0.177494 0
-1 0.145955 0
-1 0.116743 0
-1 0.0896856 0
-1 0.0646247 0
-1 0.0414128 0
-1 0.0199133 0
0.0182781 0.00745351 0
0.0366672 0.0146286 0
0.0551632 0.0215237 0
0.0737617 0.0281372 0
0.0924585 0.0344675 0
0.111249 0.0405131 0
0.13013 0.0462728 0
0.149095 0.0517451 0
0.168142 0.0569289 0
0.187265 0.0618228 0
0.20646 0.0664258 0
0.225723 0.0707368 0
0.245049 0.0747549 0
0.264434 0.078479 0
0.283873 0.0819084 0
0.303362 0.0850422 0
0.322896 0.0878798 0
0.342472 0.0904204 0
0.362083 0.0926635 0
0.381726 0.0946086 0
0.401397 0.0962552 0
0.42109 0.0976029 0
0.440802 0.0986514 0
0.460527 0.0994006 0
0.480261 0.0998501 0
0.5 0.1 0
0.519739 0.0998501 0
0.539473 0.0994006 0
0.559198 0.0986514 0
0.57891 0.0976029 0
0.598603 0.0962552 0
0.618274 0.0946086 0
0.637917 0.0926635 0
0.657528 0.0904204 0
0.677104 0.0878798 0
0.696638 0.0850422 0
0.716127 0.0819084 0
0.735566 0.078479 0
0.754951 0.0747549 0
0.774277 0.0707368 0
0.79354 0.0664258 0
0.812735 0.0618228 0
0.831858 0.0569289 0
0.850905 0.0517451 0
0.86987 0.0462728 0
0.888751 0.0405131 0
0.907542 0.0344675 0
0.926238 0.0281372 0
0.944837 0.0215237 0
0.963333 0.0146286 0
0.981722 0.00745351 0
-1 0.907779 0.1
-1 0.822362 0.1
-1 0.743247 0.1
-1 0.669968 0.1
-1 0.602096 0.1
-1 0.539231 0.1
-1 0.481004 0.1
-1 0.427073 0.1
-1 0.377121 0.1
-1 0.330854 0.1
-1 0.288001 0.1
-1 0.248309 0.1
-1 0.211545 0.1
-1 0.177494 0.1
-1 0.145955 0.1
-1 0.116743 0.1
-1 0.0896856 0.1
-1 0.0646247 0.1
-1 0.0414128 0.1
-1 0.0199133 0.1
-0.98 0 0.1
-0.96 0 0.1
-0.94 0 0.1
-0.92 0 0.1
-0.9 0 0.1
-0.88 0 0.1
-0.86 0 0.1
-0.84 0 0.1
-0.82 0 0.1
-0.8 0 0.1
-0.78 0 0.1
-0.76 0 0.1
-0.74 0 0.1
-0.72 0 0.1
-0.7 0 0.1
-0.68 0 0.1
-0.66 0 0.1
-0.64 0 0.1
-0.62 0 0.1
-0.6 0 0.1
-0.58 0 0.1
-0.56 0 0.1
-0.54 0 0.1
-0.52 0 0.1
-0.5 0 0.1
-0.48 0 0.1
-0.46 0 0.1
-0.44 0 0.1
-0.42 0 0.1
-0.4 0 0.1
-0.38 0 0.1
-0.36 0 0.1
-0.34 0 0.1
-0.32 0 0.1
-0.3 0 0.1
-0.28 0 0.1
-0.26 0 0.1
-0.24 0 0.1
-0.22 0 0.1
-0.2 0 0.1
-0.18 0 0.1
-0.16 0 0.1
-0.14 0 0.1
-0.12 0 0.1
-0.1 0 0.1
-0.08 0 0.1
-0.06 0 0.1
-0.04 0 0.1
-0.02 0 0.1
0.0182781 0.00745351 0.1
0.0366672 0.0146286 0.1
0.0551632 0.0215237 0.1
0.0737617 0.0281372 0.1
0.0924585 0.0344675 0.1
0.111249 0.0405131 0.1
0.13013 0.0462728 0.1
0.149095 0.0517451 0.1
0.168142 0.0569289 0.1
0.187265 0.0618228 0.1
0.20646 0.0664258 0.1
0.225723 0.0707368 0.1
0.245049 0.0747549 0.1
0.264434 0.078479 0.1
0.283873 0.0819084 0.1
0.303362 0.0850422 0.1
0.322896 0.0878798 0.1
0.342472 0.0904204 0.1
0.362083 0.0926635 0.1
0.381726 0.0946086 0.1
0.401397 0.0962552 0.1
0.42109 0.0976029 0.1
0.440802 0.0986514 0.1
0.460527 0.0994006 0.1
0.480261 0.0998501 0.1
0.5 0.1 0.1
0.519739 0.0998501 0.1
0.539473 0.0994006 0.1
0.559198 0.0986514 0.1
0.57891 0.0976029 0.1
0.598603 0.0962552 0.1
0.618274 0.0946086 0.1
0.637917 0.0926635 0.1
0.657528 0.0904204 0.1
0.677104 0.0878798 0.1
0.696638 0.0850422 0.1
0.716127 0.0819084 0.1
0.735566 0.078479 0.1
0.754951 0.0747549 0.1
0.774277 0.0707368 0.1
0.79354 0.0664258 0.1
0.812735 0.0618228 0.1
0.831858 0.0569289 0.1
0.850905 0.0517451 0.1
0.86987 0.0462728 0.1
0.888751 0.0405131 0.1
0.907542 0.0344675 0.1
0.926238 0.0281372 0.1
0.944837 0.0215237 0.1
0.963333 0.0146286 0.1
0.981722 0.00745351 0.1
1.02 0 0.1
1.04 0 0.1
1.06 0 0.1
1.08 0 0.1
1.1 0 0.1
1.12 0 0.1
1.14 0 0.1
1.16 0 0.1
1.18 0 0.1
1.2 0 0.1
1.22 0 0.1
1.24 0 0.1
1.26 0 0.1
1.28 0 0.1
1.3 0 0.1
1.32 0 0.1
1.34 0 0.1
1.36 0 0.1
1.38 0 0.1
1.4 0 0.1
1.42 0 0.1
1.44 0 0.1
1.46 0 0.1
1.48 0 0.1
1.5 0 0.1
1.52 0 0.1
1.54 0 0.1
1.56 0 0.1
1.58 0 0.1
1.6 0 0.1
1.62 0 0.1
1.64 0 0.1
1.66 0 0.1
1.68 0 0.1
1.7 0 0.1
1.72 0 0.1
1.74 0 0.1
1.76 0 0.1
1.78 0 0.1
1.8 0 0.1
1.82 0 0.1
1.84 0 0.1
1.86 0 0.1
1.88 0 0.1
1.9 0 0.1
1.92 0 0.1
1.94 0 0.1
1.96 0 0.1
1.98 0 0.1
2 0.0199133 0.1
2 0.0414128 0.1
2 0.0646247 0.1
2 0.0896856 0.1
2 0.116743 0.1
2 0.145955 0.1
2 0.177494 0.1
2 0.211545 0.1
2 0.248309 0.1
2 0.288001 0.1
2 0.330854 0.1
2 0.377121 0.1
2 0.427073 0.1
2 0.481004 0.1
2 0.539231 0.1
2 0.602096 0.1
2 0.669968 0.1
2 0.743247 0.1
2 0.822362 0.1
2 0.907779 0.1
1.9 1 0.1
1.8 1 0.1
1.7 1 0.1
1.6 1 0.1
1.5 1 0.1
1.4 1 0.1
1.3 1 0.1
1.2 1 0.1
1.1 1 0.1
1 1 0.1
0.9 1 0.1
0.8 1 0.1
0.7 1 0.1
0.6 1 0.1
0.5 1 0.1
0.4 1 0.1
0.3 1 0.1
0.2 1 0.1
0.1 1 0.1
3.69793e-12 1 0.1
-0.1 1 0.1
-0.2 1 0.1
-0.3 1 0.1
-0.4 1 0.1
-0.5 1 0.1
-0.6 1 0.1
-0.7 1 0.1
-0.8 1 0.1
-0.9 1 0.1
1.08758 0.0158154 0
-0.0898513 0.0203294 0
0.0966181 0.0537636 0
0.90205 0.0548881 0
1.21055 0.0202058 0
-0.209811 0.0159577 0
1.3305 0.0176902 0
-0.33 0.0173205 0
1.45324 0.0148141 0
-0.448654 0.0159854 0
1.56842 0.0191785 0
-0.569936 0.0166364 0
0.193292 0.0805369 0
0.805051 0.0813623 0
0.709096 0.100353 0
0.288591 0.0996656 0
0.390184 0.111848 0
0.61033 0.111742 0
0.488809 0.116278 0
1.67175 0.0169692 0
-0.67 0.0169809 0
-0.955017 0.454039 0
1.95131 0.44569 0
1.74981 0.0168753 0
-0.75 0.0173205 0
-0.968032 0.266538 0
1.96871 0.266267 0
0.978232 0.0305687 0
0.0208675 0.026451 0
-0.150454 0.91842 0
1.13854 0.907437 0
1.45012 0.904365 0
-0.445923 0.908903 0
-0.853423 0.0157019 0
1.84881 0.016319 0
0.853689 0.915652 0
0.153944 0.912184 0
0.545151 0.914125 0
0.549913 0.115152 0
1.51 0.0173205 0
-0.506989 0.01651 0
1.27 0.0173205 0
1.14976 0.0173333 0
-0.268171 0.0206442 0
-0.150501 0.0153244 0
-0.391384 0.0153993 0
1.38886 0.0171544 0
-0.973694 0.161724 0
1.97441 0.162392 0
-0.945221 0.633523 0
1.94544 0.63312 0
1.91008 0.0186068 0
-0.91 0.0169616 0
-0.030664 0.0194327 0
1.03074 0.0165456 0
-0.966065 0.353575 0
1.96128 0.359765 0
1.93879 0.781254 0
-0.937057 0.781882 0
-0.980746 0.080709 0
1.9772 0.0760699 0
0.058735 0.0409372 0
0.355202 0.913001 0
0.86356 0.0661005 0
0.134223 0.0651111 0
0.941972 0.0397386 0
-0.653034 0.915003 0
1.65328 0.904589 0
0.770126 0.0881325 0
0.232946 0.0902008 0
0.330582 0.105648 0
0.670612 0.108365 0
0.428707 0.116145 0
1.80993 0.016629 0
-0.810168 0.0172178 0
-0.71 0.0173205 0
1.63047 0.0175504 0
1.70842 0.0169661 0
-0.628824 0.0181787 0
-0.949815 0.0133898 0
1.95 0.0173205 0
1.85542 0.907891 0
-0.85 0.913397 0
1.9833 0.0307692 0
-0.983315 0.0309709 0
-0.750025 0.916468 0
-0.701107 0.836904 0
-0.607741 0.836428 0
-0.656448 0.759827 0
-0.572936 0.758144 0
-0.61411 0.691195 0
-0.539534 0.689068 0
-0.578542 0.626111 0
-0.507461 0.624216 0
-0.544001 0.566638 0
-0.477696 0.564279 0
-0.511582 0.51001 0
-0.451689 0.507147 0
-0.481834 0.457732 0
-0.426137 0.454624 0
-0.453236 0.407539 0
-0.398845 0.406233 0
-0.507958 0.409496 0
-0.368427 0.460177 0
-0.344602 0.405209 0
-0.315696 0.447824 0
-0.294128 0.402169 0
-0.262844 0.444518 0
-0.241968 0.388746 0
-0.209878 0.439557 0
-0.185184 0.391135 0
-0.156687 0.437338 0
-0.133719 0.390776 0
-0.104405 0.434306 0
-0.0818745 0.388334 0
-0.0528785 0.431165 0
-0.0305984 0.385639 0
-0.00180552 0.427863 0
0.0194564 0.382608 0
0.0485809 0.42449 0
0.0701962 0.37973 0
0.0985483 0.421145 0
0.119893 0.377339 0
0.147837 0.417911 0
0.172552 0.36751 0
0.197018 0.412597 0
0.221203 0.37141 0
0.24512 0.409646 0
-0.48178 0.364657 0
-0.531053 0.364782 0
-0.0599102 0.344151 0
-0.324909 0.359566 0
0.266181 0.368462 0
0.292132 0.407649 0
0.311992 0.365779 0
0.338918 0.404821 0
0.357567 0.355909 0
0.384723 0.40053 0
0.404675 0.359681 0
0.430617 0.398558 0
0.450457 0.35827 0
0.474237 0.395182 0
0.496746 0.34898 0
0.520548 0.397931 0
0.542071 0.353121 0
0.566011 0.389914 0
0.585061 0.350856 0
0.609352 0.38696 0
0.629069 0.348168 0
0.655979 0.391217 0
0.67472 0.346182 0
0.699346 0.381414 0
0.719333 0.341965 0
0.743718 0.377547 0
0.764028 0.339036 0
0.788201 0.373582 0
0.807659 0.336101 0
0.832821 0.372249 0
0.852309 0.334017 0
0.877785 0.370339 0
0.897875 0.331141 0
0.922904 0.366281 0
0.943173 0.327335 0
0.968282 0.363358 0
0.989029 0.324222 0
1.01391 0.361511 0
1.03465 0.321428 0
1.05949 0.358447 0
1.08389 0.312052 0
1.10575 0.355104 0
1.12889 0.31562 0
1.15067 0.353235 0
1.17157 0.312819 0
1.19626 0.349369 0
1.21618 0.309863 0
1.2416 0.346914 0
1.26131 0.30715 0
1.28691 0.344312 0
1.30571 0.303752 0
1.33144 0.341222 0
1.35018 0.300911 0
1.3758 0.338308 0
1.39501 0.298931 0
1.42015 0.335235 0
1.43904 0.296349 0
1.46355 0.330194 0
1.48256 0.293347 0
1.50685 0.326967 0
1.52589 0.29055 0
1.54996 0.325305 0
1.56909 0.287929 0
[...]
CELL_DATA 3694
SCALARS rho float
LOOKUP_TABLE default
0.769913
0.726348
0.804528
0.85127
0.847992
0.805905
0.794537
0.801921
0.843469
0.804126
0.850301
0.850279
0.837104
0.79297
0.802592
0.787624
0.80434
0.804318
0.794008
0.863865
0.842059
0.850398
0.752416
0.804177
0.750201
0.836132
0.740466
0.807019
0.83403
0.80046
0.800608
0.73816
0.804717
0.823056
0.804259
0.826278
0.852229
0.849715
0.846977
0.782427
0.805563
0.816413
0.831643
0.823564
0.805578
0.851363
0.802537
0.717339
0.727443
0.764827
0.802885
0.803628
0.861186
0.802846
0.71674
0.853196
0.804119
0.844519
0.829677
0.784908
0.798182
0.854988
0.85969
0.801609
0.861384
0.852985
0.808149
0.852792
0.746376
0.872452
0.803936
0.807682
0.850417
0.8043
0.850162
0.80366
0.813201
0.801523
0.84808
0.803479
0.750236
0.817458
0.803451
0.781159
0.840753
0.801509
0.844041
0.749828
0.746829
0.844749
0.824517
0.803871
0.819341
0.840283
0.722442
0.806992
0.759208
0.850028
0.848462
0.85809
0.85157
0.796143
0.73207
0.842569
0.840144
0.854971
0.850127
0.807402
0.740301
0.847269
0.8005
0.765738
0.733749
0.842991
0.879922
0.80371
0.825539
0.848351
0.803935
0.803618
0.773965
0.820839
0.846818
0.798703
0.718949
0.77294
0.849005
0.80724
0.85803
0.754082
0.775437
0.8017
0.808025
0.785453
0.802623
0.81956
0.806194
0.803554
0.799914
0.851289
0.847459
0.758308
0.849547
0.852229
0.772151
0.719611
0.724152
0.800153
0.851573
0.812492
0.770115
0.80389
0.678422
0.805313
0.730281
0.796855
0.751856
0.809878
0.682273
0.795819
0.833952
0.703453
0.78815
0.771528
0.862403
0.675797
0.816327
0.80229
0.804222
0.722257
0.802299
0.722714
0.872178
0.676774
0.801
0.719488
0.866
0.855403
0.847238
0.753499
0.846814
0.738401
0.851986
0.751268
0.705498
0.803961
0.695827
0.850019
0.802539
0.867009
0.794745
0.719385
0.855138
0.800401
0.764754
0.848326
0.810931
0.862305
0.771051
0.769531
0.780647
0.818027
0.854468
0.831046
0.815578
0.851587
0.729301
0.805557
0.770084
0.804194
0.752962
0.819779
0.797517
0.802348
0.851414
0.796745
0.853762
0.780862
0.851432
0.845432
0.851686
0.848465
0.826925
0.754545
0.852035
0.69993
0.79203
0.837696
0.867188
0.852445
0.840937
0.796313
0.770659
0.850195
0.85626
0.850239
0.761714
0.826459
0.730579
0.81886
0.797376
0.839829
0.715752
0.808101
0.791288
0.799557
0.803865
0.791014
0.853776
0.859959
0.787714
0.707819
0.80496
0.803268
0.705633
0.821491
0.785741
0.802996
0.853948
0.854522
0.684253
0.853254
0.810019
0.825831
0.852642
0.803852
0.814285
0.836853
0.832344
0.788201
0.803073
0.856315
0.810627
0.803884
0.798075
0.85505
0.739152
0.667788
0.849346
0.826976
0.849223
0.804996
0.74195
0.85264
0.853071
0.842393
0.753074
0.819598
0.854875
0.680465
0.803819
0.879046
0.699104
0.791728
0.85765
0.846456
0.855073
0.722374
0.809226
0.854936
0.804942
0.803383
0.811493
0.851812
0.8166
0.777943
0.807202
0.804077
0.703551
0.849944
0.852403
0.731569
0.817996
0.849861
0.819295
0.732827
0.685707
0.850001
0.849907
0.809534
0.744409
0.752676
0.75808
0.766861
0.849356
0.806999
0.805201
0.767796
0.750834
0.849456
0.840726
0.818226
0.798982
0.853765
0.851877
0.850123
0.848969
0.803642
0.808088
0.805116
0.70716
0.803699
0.812517
0.744333
0.807818
0.805862
0.849834
0.790654
0.806259
0.794901
0.854866
0.84995
0.849837
0.800363
0.741362
0.754594
0.800638
0.810448
0.708997
0.804953
0.808102
0.816251
0.76586
0.804647
0.848409
0.848171
0.849897
0.80583
0.798989
0.796024
0.805441
0.861936
0.819017
0.721503
0.804964
0.755798
0.719058
0.804383
0.680774
0.780522
0.789765
0.808033
0.853853
0.847923
0.848848
0.835342
0.849845
0.851842
0.803622
0.796119
0.809427
0.722596
0.849062
0.788886
0.771113
0.732726
0.851955
0.866458
0.849057
0.8092
0.820592
0.852994
0.791345
0.791884
0.843149
0.736085
0.794202
0.859295
0.824159
0.801804
0.877034
0.812726
0.845273
0.850192
0.828129
0.711344
0.825737
0.767201
0.799985
0.748962
0.84183
0.808525
0.812641
0.69555
0.854213
0.827476
0.849128
0.804281
0.804461
0.850367
0.804957
0.751479
0.793537
0.803818
0.853904
0.845584
0.845943
0.882269
0.852364
0.809342
0.854662
0.735977
0.850512
0.857981
0.850457
0.691867
0.853127
0.809428
0.863242
0.849966
0.803816
0.671428
0.810188
0.751739
0.80655
0.803586
0.812185
0.85379
0.823124
0.805794
0.810732
0.849245
0.763737
0.876043
0.803215
0.866598
0.848806
0.68224
0.80494
0.798597
0.847366
0.85004
0.721814
0.803674
0.809604
0.812622
0.807426
0.796225
0.852129
0.849244
0.82472
0.805123
0.849385
0.852345
0.768032
0.806746
0.810005
0.846866
0.730071
0.806193
0.844844
0.80128
0.805304
0.673677
0.855219
0.797068
0.854965
0.849855
0.853284
0.861616
0.84822
0.849194
0.752141
0.801031
0.864916
0.841213
0.749177
0.802036
0.803233
0.88281
0.863102
0.849784
0.803214
0.809412
0.78605
0.851441
0.813519
0.668956
0.804132
0.771802
0.762948
0.804535
0.848063
0.786205
0.820188
0.852337
0.835106
0.846078
0.801526
0.83691
0.749057
0.773969
0.805196
0.838704
0.846311
0.803859
0.764418
0.746505
0.853194
0.81469
0.813154
0.675232
0.852313
0.839607
0.851015
0.804396
0.834968
0.847315
0.811193
0.85929
0.803876
0.812104
0.847153
0.852105
0.838991
0.84234
0.748356
0.789132
0.818625
0.804431
0.864868
0.802786
0.825759
0.695775
0.833065
0.84833
0.81083
0.849849
0.806419
0.852424
0.763032
0.862024
0.721609
0.802345
0.850265
0.80758
0.724284
0.693761
0.814971
0.806306
0.805462
0.813561
0.802321
0.852511
0.845209
0.805869
0.803787
0.845696
0.685121
0.848936
0.804529
0.746584
0.845665
0.712846
0.813839
0.84962
0.853071
0.837076
0.851168
0.821683
0.820049
0.80531
0.802256
0.849219
0.811129
0.84254
0.804154
0.76411
0.804651
0.851853
0.850998
0.840261
0.849156
0.850897
0.853768
0.850008
0.769043
0.807392
0.850937
0.804056
0.65997
0.743545
0.811397
0.852833
0.852294
0.785707
0.808892
0.812731
0.804637
0.80104
0.80427
0.84165
0.843299
0.853536
0.813181
0.83516
0.836966
0.681461
0.783505
0.775216
0.827185
0.76946
0.739725
0.799727
0.778135
0.851369
0.855007
0.853858
0.808254
0.657308
0.815164
0.667222
0.748196
0.850982
0.879561
0.781009
0.848951
0.868346
0.74596
0.849473
0.808901
0.814361
0.807549
0.713083
0.869967
0.751312
0.772123
0.803937
0.805469
0.801388
0.830448
0.853353
0.741972
0.837077
0.801272
0.745694
0.859345
0.800392
0.692674
0.78264
0.850975
0.839496
0.853272
0.788367
0.764386
0.801983
0.833967
0.733639
0.851433
0.84384
0.852028
0.7937
0.8502
0.748096
0.805508
0.715047
0.74302
0.822547
0.821476
0.817945
0.855035
0.851778
0.852846
0.854302
0.672489
0.803523
0.855131
0.775891
0.809836
0.851491
0.849959
0.730123
0.707655
0.774298
0.706168
0.807582
0.735991
0.852012
0.803078
0.853585
0.833923
0.7074
0.827232
0.846056
0.848601
0.778233
0.80979
0.770538
0.799964
0.841541
0.688592
0.692034
0.852839
0.806096
0.840906
0.805522
0.761414
0.805965
0.757951
0.767309
0.801791
0.854567
0.812108
0.734784
0.850538
0.839906
0.846924
0.745745
0.707207
0.738216
0.88329
0.851109
0.846225
0.685863
0.751811
0.702872
0.804863
0.802018
0.72382
0.811938
0.842091
0.786678
0.801704
0.758155
0.850773
0.736241
0.854731
0.8102
0.828088
0.804033
0.842949
0.777617
0.851857
0.854561
0.786908
0.681607
0.815829
0.845313
0.775575
0.854346
0.756203
0.804477
0.846937
0.721902
0.849878
0.803606
0.809883
0.680844
0.697284
0.772621
0.806971
0.846201
0.846
0.84945
0.814479
0.850546
0.745362
0.803079
0.845659
0.850948
0.745261
0.769055
0.85
0.835395
0.747029
0.813853
0.800949
0.718478
0.811447
0.739864
0.831412
0.716773
0.803457
0.742631
0.730377
0.844769
0.790877
0.779844
0.694946
0.856999
0.819585
0.845763
0.798133
0.854517
0.801889
0.810853
0.801971
0.802555
0.844791
0.773906
0.809495
0.801998
0.849847
0.678641
0.80325
0.844213
0.844381
0.844436
0.844204
0.766179
0.826603
0.77529
0.769972
0.848955
0.72313
0.848511
0.848185
0.803981
0.846827
0.847909
0.758464
0.774425
0.849673
0.811692
0.804406
0.847704
0.884204
0.845972
0.827836
0.85055
0.852658
0.796304
0.849863
0.844521
0.782885
0.751177
0.860419
0.798793
0.804087
0.821155
0.806516
0.849701
0.822701
0.849772
0.850384
0.881872
0.804034
0.806014
0.849739
0.803973
0.851127
0.807315
0.763593
0.850702
0.849801
0.761323
0.755288
0.850227
0.83978
0.820839
0.726196
0.850123
0.782756
0.840569
0.803675
0.76925
0.803703
0.80082
0.814925
0.8459
0.728143
0.756894
0.803866
0.791272
0.803434
0.842432
0.735355
0.854387
0.804054
0.802294
0.840963
0.852472
0.761953
0.850606
0.776449
0.803303
0.829842
0.804653
0.802119
0.79949
0.796488
0.852522
0.688891
0.855087
0.710599
0.732483
0.804702
0.849833
0.854535
0.804015
0.852812
0.831708
0.768984
0.790501
0.871539
0.803878
0.849774
0.807533
0.674389
0.768801
0.810079
0.721255
0.777775
0.675324
0.838263
0.853514
0.838092
0.803626
0.775199
0.739098
0.796804
0.759674
0.788177
0.855106
0.840955
0.849814
0.806337
0.817915
0.841236
0.804237
0.808306
0.740323
0.804572
0.786415
0.808739
0.800109
0.787375
0.843974
0.792543
0.804843
0.81884
0.856909
0.75
0.802691
0.801655
0.805669
0.683061
0.852287
0.85246
0.82066
0.715106
0.852634
0.852005
0.800703
0.804923
0.795987
0.805306
0.807191
0.82229
0.851444
0.761398
0.831877
0.88454
0.777591
0.783905
0.834893
0.788073
0.861195
0.827575
0.810026
0.842721
0.79969
0.795498
0.808105
0.851397
0.856763
0.800931
0.66758
0.848909
0.851363
0.779706
0.853878
0.856238
0.849362
0.85054
0.807424
0.853544
0.851873
0.78859
0.809455
0.847186
0.836016
0.850246
0.804519
0.824951
0.795772
0.804616
0.806119
0.770241
0.807246
0.666737
0.849447
0.851206
0.852739
0.806782
0.817357
0.850645
0.818257
0.84983
0.858667
0.855201
0.816137
0.80197
0.849991
0.849008
0.850165
0.802239
0.806744
0.877596
0.849754
0.864471
0.849674
0.802525
0.822605
0.801229
0.830547
0.847054
0.843758
0.80592
0.759271
0.804251
0.805381
0.85219
0.804011
0.82364
0.820416
0.805161
0.805139
0.785075
0.8184
0.742992
0.813902
0.810434
0.773462
0.804703
0.81288
0.817547
0.763106
0.849724
0.814532
0.824247
0.848528
0.813399
0.850955
0.843071
0.830624
0.838162
0.811543
0.803195
0.781542
0.741721
0.853962
0.819378
0.801522
0.846325
0.808246
0.845885
0.806353
0.800692
0.783487
0.80357
0.801922
0.858464
0.849912
0.811439
0.80663
0.679164
0.759403
0.802961
0.811461
0.805312
0.848332
0.806744
0.851262
0.786522
0.853578
0.805853
0.845806
0.805016
0.84899
0.80382
0.851577
0.844436
0.849538
0.845336
0.763675
0.845333
0.851924
0.6754
0.853742
0.798611
0.804347
0.872588
0.84657
0.845029
0.882735
0.850613
0.851046
0.850529
0.849559
0.846491
0.775579
0.827433
0.80315
0.804438
0.844207
0.851652
0.850687
0.852782
0.843934
0.821468
0.804695
0.84376
0.809305
0.814766
0.818708
0.85306
0.84383
0.848656
0.808711
0.710412
0.72469
0.803999
0.809077
0.804575
0.844111
0.848286
0.847153
0.80419
0.805131
0.80248
0.802552
0.848342
0.859257
0.849856
0.811567
0.848775
0.849857
0.842168
0.847936
0.819884
0.790436
0.847443
0.807064
0.803059
0.795014
0.840303
0.849164
0.852991
0.850113
0.83259
0.834117
0.851094
0.847656
0.820177
0.804682
0.804553
0.806102
0.846817
0.852485
0.803122
0.830393
0.850348
0.820913
0.802677
0.684085
0.805185
0.819185
0.816544
0.80018
0.803525
0.780134
0.860049
0.803382
0.801613
0.856233
0.853359
0.810265
0.851625
0.802303
0.849632
0.845378
0.849736
0.80471
0.849684
0.768526
0.850169
0.810943
0.802049
0.812807
0.849835
0.800419
0.805084
0.810589
0.814452
0.852658
0.852466
0.84954
0.806879
0.850455
0.851174
0.847095
0.820323
0.858033
0.806736
0.737965
0.848717
0.85556
0.849767
0.805677
0.80174
0.804696
0.843856
0.81364
0.850452
0.759521
0.778383
0.80261
0.803603
0.850514
0.847109
0.828146
0.724691
0.748397
0.808121
0.774304
0.851759
0.728451
0.803837
0.7647
0.803909
0.818906
0.803808
0.850077
0.848458
0.799785
0.808871
0.820562
0.827149
0.852276
0.803001
0.804764
0.848855
0.849082
0.784854
0.845191
0.804874
0.786553
0.852443
0.804994
0.810677
0.854854
0.852729
0.855055
0.820047
0.800748
0.852609
0.788369
0.807315
0.854573
0.801901
0.85002
0.837394
0.803818
0.859988
0.831179
0.813757
0.850195
0.803209
0.847195
0.791846
0.80403
0.851582
0.854409
0.808478
0.851316
0.851346
0.804169
0.803528
0.823858
0.80739
0.851633
0.851966
0.723084
0.851781
0.7513
0.816527
0.856645
0.849801
0.804588
0.85348
0.853478
0.764848
0.854374
0.802709
0.802817
0.802637
0.850161
0.876447
0.802895
0.802797
0.790279
0.860169
0.825467
0.848873
0.847541
0.779405
0.828829
0.80376
0.766819
0.801555
0.754084
0.845476
0.801758
0.727416
0.888794
0.74246
0.776883
0.802986
0.781065
0.808447
0.800936
0.803609
0.716411
0.798327
0.78921
0.801097
0.770116
0.849283
0.850229
0.892088
0.809351
0.829045
0.706081
0.801965
0.811221
0.782891
0.772914
0.801245
0.756349
0.803862
0.801394
0.803936
0.778143
0.696615
0.811252
0.689324
0.845466
0.840508
0.811051
0.753515
0.833448
0.824661
0.846237
0.788682
0.839078
0.798648
0.844183
0.755299
0.803116
0.763345
0.802973
0.800735
0.74589
0.804905
0.854401
0.854163
0.803923
0.790916
0.853262
0.744363
0.736717
0.80358
0.854314
0.884769
0.854636
0.851214
0.888633
0.875942
0.847412
0.732304
0.803491
0.811432
0.820149
0.824247
0.743107
0.759626
0.739572
0.802999
0.720806
0.780525
0.801209
0.710791
0.709855
0.852156
0.802137
0.7807
0.85228
0.791115
0.774914
0.699904
0.770553
0.811385
0.843283
0.879581
0.854193
0.852165
0.819212
0.801461
0.759873
0.853205
0.739488
0.798516
0.854653
0.786971
0.791857
0.825413
0.809107
0.802985
0.802398
0.846459
0.810507
0.878141
0.69142
0.670609
0.803756
0.83042
0.748949
0.810259
0.804011
0.854737
0.804381
0.803361
0.675433
0.684468
0.808269
0.847566
0.853585
0.766546
0.803979
0.834161
0.740646
0.847989
0.80379
0.854112
0.803818
0.822341
0.80325
0.854568
0.803708
0.815682
0.804462
0.874565
0.854913
0.803429
0.732967
0.733191
0.851594
0.683834
0.836933
0.810247
0.854165
0.846569
0.804295
0.810398
0.853606
0.84864
0.855233
0.802783
0.849198
0.870567
0.803909
0.727477
0.837179
0.820348
0.800506
0.804005
0.844552
0.775287
0.803798
0.845775
0.844618
0.84812
0.85214
0.794365
0.755274
0.802715
0.853456
0.804337
0.839334
0.80569
0.805048
0.806108
0.854054
0.809258
0.800888
0.806929
0.806928
0.822811
0.806804
0.806508
0.84986
0.807608
0.803829
0.85335
0.803489
0.803664
0.806168
0.808413
0.853256
0.783108
0.805837
0.803404
0.855418
0.80132
0.804756
0.806891
0.852485
0.805641
0.725936
0.802332
0.848806
0.805375
0.813772
0.776421
0.849516
0.770106
0.804626
0.803245
0.804967
0.8179
0.866701
0.805179
0.803804
0.756664
0.85148
0.854649
0.848649
0.822581
0.843089
0.764327
0.849346
0.759602
0.801938
0.850648
0.803602
0.745119
0.849985
0.840822
0.851317
0.849382
0.852834
0.782483
0.850121
0.726174
0.756657
0.854569
0.848948
0.738347
0.849796
0.713604
0.848747
0.807586
0.850797
0.803788
0.806589
0.842043
0.82934
0.822789
0.686885
0.85254
0.860609
0.787691
0.86346
0.801199
0.756533
0.858323
0.849688
0.856497
0.746144
0.739464
0.854909
0.729164
0.853631
0.854176
0.852571
0.806421
0.851762
0.791909
0.851119
0.850573
0.758857
0.878048
0.850177
0.849919
0.821551
0.791046
0.803971
0.669366
0.831319
0.849773
0.851228
0.805154
0.850901
0.855461
0.799971
0.849698
0.80381
0.734444
0.795253
0.831473
0.853423
0.764052
0.827042
0.819811
0.685373
0.85292
0.852314
0.803448
0.809764
0.770595
0.841534
0.803768
0.804428
0.797851
0.821785
0.79965
0.796567
0.803699
0.852846
0.817902
0.850668
0.665133
0.89949
0.741882
0.79933
0.779293
0.794493
0.855339
0.851906
0.852327
0.685408
0.847089
0.816088
0.805117
0.844777
0.833744
0.836177
0.787853
0.799682
0.800621
0.768426
0.788316
0.853373
0.79283
0.814369
0.849337
0.852957
0.812931
0.802648
0.805377
0.811709
0.851241
0.751046
0.810489
0.85156
0.849975
0.808271
0.809559
0.797108
0.854457
0.808509
0.804121
0.807886
0.696992
0.80714
0.805446
0.806681
0.849194
0.841568
0.805734
0.805555
0.806179
0.779315
0.849074
0.835638
0.852972
0.855431
0.845651
0.804426
0.760381
0.818428
0.853433
0.76626
0.80284
0.851142
0.769933
0.853089
0.662063
0.807266
0.731437
0.803078
0.830851
0.847753
0.850414
0.805198
0.841863
0.848525
0.802856
0.805584
0.840751
0.850785
0.798087
0.84676
0.803646
0.80329
0.802028
0.803052
0.834223
0.853825
0.80336
0.801924
0.849452
0.832549
0.808811
0.855366
0.672556
0.804095
0.812921
0.853034
0.815875
0.784532
0.73145
0.852686
0.855172
0.850575
0.818535
0.683204
0.798955
0.719012
0.850702
0.753884
0.85265
0.828125
0.749269
0.801573
0.854676
0.786722
0.801561
0.804052
0.850039
0.823656
0.742282
0.802446
0.673356
0.803513
0.803848
0.803043
0.685024
0.803911
0.804547
0.804024
0.764025
0.772572
0.804309
0.803198
0.852193
0.760686
0.748788
0.853018
0.802256
0.784473
0.866611
0.853544
0.852437
0.723641
0.803594
0.802157
0.802204
0.80353
0.720471
0.804489
0.852853
0.713474
0.734522
0.806179
0.814508
0.853783
0.841186
0.850735
0.851259
0.850189
0.804488
0.853403
0.850337
0.833058
0.827111
0.804112
0.803387
0.810564
0.768051
0.809428
0.850221
0.873971
0.831954
0.704028
0.805852
0.803605
0.783499
0.850445
0.846667
0.847115
0.813806
0.875819
0.803683
0.850522
0.681956
0.815176
0.850768
0.803799
0.854137
0.696792
0.847567
0.803404
0.85043
0.803355
0.849667
0.850831
0.762669
0.804219
0.803777
0.85248
0.874132
0.818524
0.851433
0.739154
0.780846
0.803681
0.804308
0.812035
0.849135
0.801354
0.804148
0.848412
0.835222
0.807838
0.750899
0.803847
0.847505
0.84314
0.780394
0.767895
0.842474
0.798243
0.870707
0.757181
0.852785
0.842539
0.727836
0.800931
0.850416
0.790595
0.802144
0.801038
0.851813
0.805612
0.779618
0.851662
0.717285
0.800539
0.796376
0.852383
0.850365
0.803577
0.813872
0.77621
0.78626
0.800227
0.853241
0.849635
0.834694
0.707228
0.82646
0.820757
0.783398
0.809555
0.85069
0.80083
0.804655
0.71786
0.805341
0.805829
0.867585
0.804715
0.809475
0.852535
0.806381
0.842992
0.867391
0.702144
0.804936
0.851308
0.805835
0.805567
0.806038
0.805291
0.805361
0.805042
0.806082
0.807221
0.766347
0.80597
0.807775
0.83095
0.848281
0.808714
0.843116
0.803877
0.80433
0.849758
0.849009
0.844336
0.803784
0.815124
0.813023
0.834298
0.850127
0.756019
0.851024
0.851892
0.852692
0.869734
0.780931
0.83793
0.854771
0.802752
0.699048
0.804257
0.798989
0.850129
0.688433
0.852071
0.851094
0.853481
0.836998
0.803506
0.825362
0.839534
0.804881
0.793086
0.849931
0.769735
0.665111
0.85475
0.709603
0.747598
0.818726
0.85038
0.851603
0.850218
0.864173
0.692165
0.870287
0.805589
0.849773
0.849209
0.847583
0.740021
0.854196
0.848761
0.850721
0.802917
0.778246
0.820368
0.672283
0.839121
0.861255
0.804048
0.858953
0.848526
0.803666
0.734173
0.839837
0.848427
0.856959
0.802721
0.840792
0.803783
0.85541
0.804107
0.841824
0.854024
0.85286
0.82019
0.850875
0.828508
0.748434
0.731706
0.686206
0.851955
0.8513
0.779176
0.773384
0.836866
0.850719
0.842631
0.689585
0.850249
0.849935
0.849755
0.849628
0.804531
0.819145
0.729964
0.767861
0.849668
0.799783
0.864153
0.897632
0.78458
0.832772
0.719621
0.832645
0.762985
0.759616
0.817748
0.802695
0.789096
0.731405
0.80334
0.853268
0.792775
0.758541
0.828795
0.816047
0.799804
0.735626
0.840961
0.795675
0.851714
0.854573
0.814345
0.823864
0.851063
0.851373
0.790261
0.805189
0.759886
0.837167
0.795742
0.841964
0.788072
0.805495
0.740553
0.80223
0.812942
0.811768
0.810789
0.809539
0.808617
0.808006
0.806705
0.805831
0.807345
0.765816
0.806262
0.802699
0.797822
0.804501
0.840562
0.763373
0.804237
0.783027
0.891446
0.849942
0.799451
0.768882
0.804767
0.799253
0.748488
0.804499
0.803457
0.775945
0.804177
0.818378
0.799685
0.802917
0.757032
0.809125
0.830909
0.784597
0.774505
0.800977
0.803186
0.850888
0.808748
0.792823
0.765674
0.800679
0.853199
0.804318
0.815734
0.802518
0.929137
0.871796
0.846478
0.855311
0.735102
0.861086
0.779113
0.82434
0.835183
0.903755
0.854761
0.799424
0.674464
0.85445
0.799572
0.854132
0.799978
0.859377
0.665948
0.853785
0.802468
0.806548
0.805362
0.805097
0.851207
0.802872
0.849584
0.742061
0.674076
0.714851
0.853828
0.653924
0.799905
0.765878
0.856091
0.814383
0.650768
0.823546
0.853213
0.853651
0.756675
0.803458
0.645457
0.799653
0.853227
0.799781
0.804033
0.800006
0.852631
0.849752
0.803667
0.800644
0.851811
0.800876
0.851554
0.813816
0.801123
0.851308
0.850916
0.851079
0.801195
0.850866
0.725545
0.801353
0.850673
0.80403
0.801498
0.850489
0.750767
0.854002
0.800247
0.855153
0.799838
0.842245
0.835381
0.875019
0.802521
0.802366
0.850065
0.814841
0.802082
0.801781
0.858207
0.833038
0.850203
0.842756
0.864268
0.852765
0.84925
0.824085
0.864038
0.854224
0.803249
0.849834
0.831266
0.803592
0.85346
0.8021
0.827739