# vtk DataFile Version 1.0
unstructured grid
ascii
DATASET UNSTRUCTURED_GRID
points 3920 float
-1 0 0
-1 1 0
2 0 0
2 1 0
0 0 0
1 0 0
-1 1 0.1
-1 0 0.1
0 0 0.1
1 0 0.1
2 0 0.1
2 1 0.1
-0.98 0 0
-0.96 0 0
-0.94 0 0
-0.92 0 0
-0.9 0 0
-0.88 0 0
-0.86 0 0
-0.84 0 0
-0.82 0 0
-0.8 0 0
-0.78 0 0
-0.76 0 0
-0.74 0 0
-0.72 0 0
-0.7 0 0
-0.68 0 0
-0.66 0 0
-0.64 0 0
-0.62 0 0
-0.6 0 0
-0.58 0 0
-0.56 0 0
-0.54 0 0
-0.52 0 0
-0.5 0 0
-0.48 0 0
-0.46 0 0
-0.44 0 0
-0.42 0 0
-0.4 0 0
-0.38 0 0
-0.36 0 0
-0.34 0 0
-0.32 0 0
-0.3 0 0
-0.28 0 0
-0.26 0 0
-0.24 0 0
-0.22 0 0
-0.2 0 0
-0.18 0 0
-0.16 0 0
-0.14 0 0
-0.12 0 0
-0.1 0 0
-0.08 0 0
-0.06 0 0
-0.04 0 0
-0.02 0 0
1.02 0 0
1.04 0 0
1.06 0 0
1.08 0 0
1.1 0 0
1.12 0 0
1.14 0 0
1.16 0 0
1.18 0 0
1.2 0 0
1.22 0 0
1.24 0 0
1.26 0 0
1.28 0 0
1.3 0 0
1.32 0 0
1.34 0 0
1.36 0 0
1.38 0 0
1.4 0 0
1.42 0 0
1.44 0 0
1.46 0 0
1.48 0 0
1.5 0 0
1.52 0 0
1.54 0 0
1.56 0 0
1.58 0 0
1.6 0 0
1.62 0 0
1.64 0 0
1.66 0 0
1.68 0 0
1.7 0 0
1.72 0 0
1.74 0 0
1.76 0 0
1.78 0 0
1.8 0 0
1.82 0 0
1.84 0 0
1.86 0 0
1.88 0 0
1.9 0 0
1.92 0 0
1.94 0 0
1.96 0 0
1.98 0 0
2 0.0199133 0
2 0.0414128 0
2 0.0646247 0
2 0.0896856 0
2 0.116743 0
2 0.145955 0
2 0.177494 0
2 0.211545 0
2 0.248309 0
2 0.288001 0
2 0.330854 0
2 0.377121 0
2 0.427073 0
2 0.481004 0
2 0.539231 0
2 0.602096 0
2 0.669968 0
2 0.743247 0
2 0.822362 0
2 0.907779 0
1.9 1 0
1.8 1 0
1.7 1 0
1.6 1 0
1.5 1 0
1.4 1 0
1.3 1 0
1.2 1 0
1.1 1 0
1 1 0
0.9 1 0
0.8 1 0
0.7 1 0
0.6 1 0
0.5 1 0
0.4 1 0
0.3 1 0
0.2 1 0
0.1 1 0
3.69793e-12 1 0
-0.1 1 0
-0.2 1 0
-0.3 1 0
-0.4 1 0
-0.5 1 0
-0.6 1 0
-0.7 1 0
-0.8 1 0
-0.9 1 0
-1 0.907779 0
-1 0.822362 0
-1 0.743247 0
-1 0.669968 0
-1 0.602096 0
-1 0.539231 0
-1 0.481004 0
-1 0.427073 0
-1 0.377121 0
-1 0.330854 0
-1 0.288001 0
-1 0.248309 0
-1 0.211545 0
-1 0.177494 0
-1 0.145955 0
-1 0.116743 0
-1 0.0896856 0
-1 0.0646247 0
-1 0.0414128 0
-1 0.0199133 0
0.0182781 0.00745351 0
0.0366672 0.0146286 0
0.0551632 0.0215237 0
0.0737617 0.0281372 0
0.0924585 0.0344675 0
0.111249 0.0405131 0
0.13013 0.0462728 0
0.149095 0.0517451 0
0.168142 0.0569289 0
0.187265 0.0618228 0
0.20646 0.0664258 0
0.225723 0.0707368 0
0.245049 0.0747549 0
0.264434 0.078479 0
0.283873 0.0819084 0
0.303362 0.0850422 0
0.322896 0.0878798 0
0.342472 0.0904204 0
0.362083 0.0926635 0
0.381726 0.0946086 0
0.401397 0.0962552 0
0.42109 0.0976029 0
0.440802 0.0986514 0
0.460527 0.0994006 0
0.480261 0.0998501 0
0.5 0.1 0
0.519739 0.0998501 0
0.539473 0.0994006 0
0.559198 0.0986514 0
0.57891 0.0976029 0
0.598603 0.0962552 0
0.618274 0.0946086 0
0.637917 0.0926635 0
0.657528 0.0904204 0
0.677104 0.0878798 0
0.696638 0.0850422 0
0.716127 0.0819084 0
0.735566 0.078479 0
0.754951 0.0747549 0
0.774277 0.0707368 0
0.79354 0.0664258 0
0.812735 0.0618228 0
0.831858 0.0569289 0
0.850905 0.0517451 0
0.86987 0.0462728 0
0.888751 0.0405131 0
0.907542 0.0344675 0
0.926238 0.0281372 0
0.944837 0.0215237 0
0.963333 0.0146286 0
0.981722 0.00745351 0
-1 0.907779 0.1
-1 0.822362 0.1
-1 0.743247 0.1
-1 0.669968 0.1
-1 0.602096 0.1
-1 0.539231 0.1
-1 0.481004 0.1
-1 0.427073 0.1
-1 0.377121 0.1
-1 0.330854 0.1
-1 0.288001 0.1
-1 0.248309 0.1
-1 0.211545 0.1
-1 0.177494 0.1
-1 0.145955 0.1
-1 0.116743 0.1
-1 0.0896856 0.1
-1 0.0646247 0.1
-1 0.0414128 0.1
-1 0.0199133 0.1
-0.98 0 0.1
-0.96 0 0.1
-0.94 0 0.1
-0.92 0 0.1
-0.9 0 0.1
-0.88 0 0.1
-0.86 0 0.1
-0.84 0 0.1
-0.82 0 0.1
-0.8 0 0.1
-0.78 0 0.1
-0.76 0 0.1
-0.74 0 0.1
-0.72 0 0.1
-0.7 0 0.1
-0.68 0 0.1
-0.66 0 0.1
-0.64 0 0.1
-0.62 0 0.1
-0.6 0 0.1
-0.58 0 0.1
-0.56 0 0.1
-0.54 0 0.1
-0.52 0 0.1
-0.5 0 0.1
-0.48 0 0.1
-0.46 0 0.1
-0.44 0 0.1
-0.42 0 0.1
-0.4 0 0.1
-0.38 0 0.1
-0.36 0 0.1
-0.34 0 0.1
-0.32 0 0.1
-0.3 0 0.1
-0.28 0 0.1
-0.26 0 0.1
-0.24 0 0.1
-0.22 0 0.1
-0.2 0 0.1
-0.18 0 0.1
-0.16 0 0.1
-0.14 0 0.1
-0.12 0 0.1
-0.1 0 0.1
-0.08 0 0.1
-0.06 0 0.1
-0.04 0 0.1
-0.02 0 0.1
0.0182781 0.00745351 0.1
0.0366672 0.0146286 0.1
0.0551632 0.0215237 0.1
0.0737617 0.0281372 0.1
0.0924585 0.0344675 0.1
0.111249 0.0405131 0.1
0.13013 0.0462728 0.1
0.149095 0.0517451 0.1
0.168142 0.0569289 0.1
0.187265 0.0618228 0.1
0.20646 0.0664258 0.1
0.225723 0.0707368 0.1
0.245049 0.0747549 0.1
0.264434 0.078479 0.1
0.283873 0.0819084 0.1
0.303362 0.0850422 0.1
0.322896 0.0878798 0.1
0.342472 0.0904204 0.1
0.362083 0.0926635 0.1
0.381726 0.0946086 0.1
0.401397 0.0962552 0.1
0.42109 0.0976029 0.1
0.440802 0.0986514 0.1
0.460527 0.0994006 0.1
0.480261 0.0998501 0.1
0.5 0.1 0.1
0.519739 0.0998501 0.1
0.539473 0.0994006 0.1
0.559198 0.0986514 0.1
0.57891 0.0976029 0.1
0.598603 0.0962552 0.1
0.618274 0.0946086 0.1
0.637917 0.0926635 0.1
0.657528 0.0904204 0.1
0.677104 0.0878798 0.1
0.696638 0.0850422 0.1
0.716127 0.0819084 0.1
0.735566 0.078479 0.1
0.754951 0.0747549 0.1
0.774277 0.0707368 0.1
0.79354 0.0664258 0.1
0.812735 0.0618228 0.1
0.831858 0.0569289 0.1
0.850905 0.0517451 0.1
0.86987 0.0462728 0.1
0.888751 0.0405131 0.1
0.907542 0.0344675 0.1
0.926238 0.0281372 0.1
0.944837 0.0215237 0.1
0.963333 0.0146286 0.1
0.981722 0.00745351 0.1
1.02 0 0.1
1.04 0 0.1
1.06 0 0.1
1.08 0 0.1
1.1 0 0.1
1.12 0 0.1
1.14 0 0.1
1.16 0 0.1
1.18 0 0.1
1.2 0 0.1
1.22 0 0.1
1.24 0 0.1
1.26 0 0.1
1.28 0 0.1
1.3 0 0.1
1.32 0 0.1
1.34 0 0.1
1.36 0 0.1
1.38 0 0.1
1.4 0 0.1
1.42 0 0.1
1.44 0 0.1
1.46 0 0.1
1.48 0 0.1
1.5 0 0.1
1.52 0 0.1
1.54 0 0.1
1.56 0 0.1
1.58 0 0.1
1.6 0 0.1
1.62 0 0.1
1.64 0 0.1
1.66 0 0.1
1.68 0 0.1
1.7 0 0.1
1.72 0 0.1
1.74 0 0.1
1.76 0 0.1
1.78 0 0.1
1.8 0 0.1
1.82 0 0.1
1.84 0 0.1
1.86 0 0.1
1.88 0 0.1
1.9 0 0.1
1.92 0 0.1
1.94 0 0.1
1.96 0 0.1
1.98 0 0.1
2 0.0199133 0.1
2 0.0414128 0.1
2 0.0646247 0.1
2 0.0896856 0.1
2 0.116743 0.1
2 0.145955 0.1
2 0.177494 0.1
2 0.211545 0.1
2 0.248309 0.1
2 0.288001 0.1
2 0.330854 0.1
2 0.377121 0.1
2 0.427073 0.1
2 0.481004 0.1
2 0.539231 0.1
2 0.602096 0.1
2 0.669968 0.1
2 0.743247 0.1
2 0.822362 0.1
2 0.907779 0.1
1.9 1 0.1
1.8 1 0.1
1.7 1 0.1
1.6 1 0.1
1.5 1 0.1
1.4 1 0.1
1.3 1 0.1
1.2 1 0.1
1.1 1 0.1
1 1 0.1
0.9 1 0.1
0.8 1 0.1
0.7 1 0.1
0.6 1 0.1
0.5 1 0.1
0.4 1 0.1
0.3 1 0.1
0.2 1 0.1
0.1 1 0.1
3.69793e-12 1 0.1
-0.1 1 0.1
-0.2 1 0.1
-0.3 1 0.1
-0.4 1 0.1
-0.5 1 0.1
-0.6 1 0.1
-0.7 1 0.1
-0.8 1 0.1
-0.9 1 0.1
1.08758 0.0158154 0
-0.0898513 0.0203294 0
0.0966181 0.0537636 0
0.90205 0.0548881 0
1.21055 0.0202058 0
-0.209811 0.0159577 0
1.3305 0.0176902 0
-0.33 0.0173205 0
1.45324 0.0148141 0
-0.448654 0.0159854 0
1.56842 0.0191785 0
-0.569936 0.0166364 0
0.193292 0.0805369 0
0.805051 0.0813623 0
0.709096 0.100353 0
0.288591 0.0996656 0
0.390184 0.111848 0
0.61033 0.111742 0
0.488809 0.116278 0
1.67175 0.0169692 0
-0.67 0.0169809 0
-0.955017 0.454039 0
1.95131 0.44569 0
1.74981 0.0168753 0
-0.75 0.0173205 0
-0.968032 0.266538 0
1.96871 0.266267 0
0.978232 0.0305687 0
0.0208675 0.026451 0
-0.150454 0.91842 0
1.13854 0.907437 0
1.45012 0.904365 0
-0.445923 0.908903 0
-0.853423 0.0157019 0
1.84881 0.016319 0
0.853689 0.915652 0
0.153944 0.912184 0
0.545151 0.914125 0
0.549913 0.115152 0
1.51 0.0173205 0
-0.506989 0.01651 0
1.27 0.0173205 0
1.14976 0.0173333 0
-0.268171 0.0206442 0
-0.150501 0.0153244 0
-0.391384 0.0153993 0
1.38886 0.0171544 0
-0.973694 0.161724 0
1.97441 0.162392 0
-0.945221 0.633523 0
1.94544 0.63312 0
1.91008 0.0186068 0
-0.91 0.0169616 0
-0.030664 0.0194327 0
1.03074 0.0165456 0
-0.966065 0.353575 0
1.96128 0.359765 0
1.93879 0.781254 0
-0.937057 0.781882 0
-0.980746 0.080709 0
1.9772 0.0760699 0
0.058735 0.0409372 0
0.355202 0.913001 0
0.86356 0.0661005 0
0.134223 0.0651111 0
0.941972 0.0397386 0
-0.653034 0.915003 0
1.65328 0.904589 0
0.770126 0.0881325 0
0.232946 0.0902008 0
0.330582 0.105648 0
0.670612 0.108365 0
0.428707 0.116145 0
1.80993 0.016629 0
-0.810168 0.0172178 0
-0.71 0.0173205 0
1.63047 0.0175504 0
1.70842 0.0169661 0
-0.628824 0.0181787 0
-0.949815 0.0133898 0
1.95 0.0173205 0
1.85542 0.907891 0
-0.85 0.913397 0
1.9833 0.0307692 0
-0.983315 0.0309709 0
-0.750025 0.916468 0
-0.701107 0.836904 0
-0.607741 0.836428 0
-0.656448 0.759827 0
-0.572936 0.758144 0
-0.61411 0.691195 0
-0.539534 0.689068 0
-0.578542 0.626111 0
-0.507461 0.624216 0
-0.544001 0.566638 0
-0.477696 0.564279 0
-0.511582 0.51001 0
-0.451689 0.507147 0
-0.481834 0.457732 0
-0.426137 0.454624 0
-0.453236 0.407539 0
-0.398845 0.406233 0
-0.507958 0.409496 0
-0.368427 0.460177 0
-0.344602 0.405209 0
-0.315696 0.447824 0
-0.294128 0.402169 0
-0.262844 0.444518 0
-0.241968 0.388746 0
-0.209878 0.439557 0
-0.185184 0.391135 0
-0.156687 0.437338 0
-0.133719 0.390776 0
-0.104405 0.434306 0
-0.0818745 0.388334 0
-0.0528785 0.431165 0
-0.0305984 0.385639 0
-0.00180552 0.427863 0
0.0194564 0.382608 0
0.0485809 0.42449 0
0.0701962 0.37973 0
0.0985483 0.421145 0
0.119893 0.377339 0
0.147837 0.417911 0
0.172552 0.36751 0
0.197018 0.412597 0
0.221203 0.37141 0
0.24512 0.409646 0
-0.48178 0.364657 0
-0.531053 0.364782 0
-0.0599102 0.344151 0
-0.324909 0.359566 0
0.266181 0.368462 0
0.292132 0.407649 0
0.311992 0.365779 0
0.338918 0.404821 0
0.357567 0.355909 0
0.384723 0.40053 0
0.404675 0.359681 0
0.430617 0.398558 0
0.450457 0.35827 0
0.474237 0.395182 0
0.496746 0.34898 0
0.520548 0.397931 0
0.542071 0.353121 0
0.566011 0.389914 0
0.585061 0.350856 0
0.609352 0.38696 0
0.629069 0.348168 0
0.655979 0.391217 0
0.67472 0.346182 0
0.699346 0.381414 0
0.719333 0.341965 0
0.743718 0.377547 0
0.764028 0.339036 0
0.788201 0.373582 0
0.807659 0.336101 0
0.832821 0.372249 0
0.852309 0.334017 0
0.877785 0.370339 0
0.897875 0.331141 0
0.922904 0.366281 0
0.943173 0.327335 0
0.968282 0.363358 0
0.989029 0.324222 0
1.01391 0.361511 0
1.03465 0.321428 0
1.05949 0.358447 0
1.08389 0.312052 0
1.10575 0.355104 0
1.12889 0.31562 0
1.15067 0.353235 0
1.17157 0.312819 0
1.19626 0.349369 0
1.21618 0.309863 0
1.2416 0.346914 0
1.26131 0.30715 0
1.28691 0.344312 0
1.30571 0.303752 0
1.33144 0.341222 0
1.35018 0.300911 0
1.3758 0.338308 0
1.39501 0.298931 0
1.42015 0.335235 0
1.43904 0.296349 0
1.46355 0.330194 0
1.48256 0.293347 0
1.50685 0.326967 0
1.52589 0.29055 0
1.54996 0.325305 0
1.56909 0.287929 0
[...]
CELL_DATA 3694
SCALARS rho float
LOOKUP_TABLE default
0.737887
0.675515
0.80414
0.81538
0.828011
0.805514
0.79235
0.800574
0.812117
0.803076
0.819377
0.81937
0.841312
0.790196
0.801339
0.75461
0.803501
0.803323
0.763648
0.851022
0.818938
0.824816
0.705769
0.803752
0.702465
0.840253
0.721673
0.807024
0.837867
0.798995
0.799171
0.719674
0.80383
0.825483
0.803319
0.799533
0.838306
0.824588
0.82634
0.778839
0.805042
0.818026
0.835205
0.826067
0.80583
0.81528
0.801506
0.68182
0.683045
0.727636
0.802446
0.803072
0.847831
0.802639
0.646187
0.839211
0.803144
0.82074
0.833324
0.756418
0.796993
0.81757
0.843326
0.800173
0.843917
0.832344
0.808311
0.815992
0.737046
0.859328
0.803278
0.808084
0.824838
0.80347
0.826155
0.803058
0.814808
0.800063
0.816039
0.803106
0.720583
0.819161
0.802502
0.777516
0.81186
0.800034
0.820096
0.72141
0.736348
0.826495
0.801124
0.80277
0.821288
0.817166
0.678494
0.806987
0.725783
0.819822
0.814579
0.841218
0.816924
0.765938
0.718108
0.811887
0.811301
0.817565
0.819806
0.80749
0.718953
0.816424
0.799851
0.729233
0.720628
0.824901
0.868798
0.802575
0.801707
0.814384
0.803264
0.802465
0.76675
0.823244
0.821496
0.772205
0.703572
0.760804
0.819432
0.779649
0.844622
0.707638
0.768301
0.801114
0.808444
0.779071
0.801621
0.797461
0.805874
0.802608
0.798403
0.816843
0.815891
0.715458
0.81901
0.816028
0.759894
0.683718
0.680655
0.798571
0.818246
0.813652
0.748747
0.802926
0.570668
0.780704
0.696328
0.766795
0.716428
0.785819
0.613003
0.793892
0.838202
0.649434
0.783287
0.739724
0.845413
0.568373
0.817921
0.800953
0.803594
0.677091
0.801776
0.668069
0.858864
0.572974
0.800475
0.650535
0.873512
0.834844
0.822436
0.745738
0.816185
0.72166
0.828621
0.738086
0.653036
0.803314
0.676022
0.825178
0.802071
0.852125
0.792615
0.702036
0.81732
0.798834
0.745859
0.853845
0.811975
0.849845
0.73922
0.747449
0.77263
0.795717
0.833279
0.834917
0.817451
0.816491
0.675119
0.805
0.731562
0.803393
0.716974
0.799076
0.796195
0.80209
0.827452
0.766964
0.832022
0.751885
0.827395
0.82162
0.818209
0.854065
0.830138
0.711723
0.828764
0.680114
0.788818
0.811944
0.852294
0.831738
0.810433
0.795296
0.749632
0.819713
0.8381
0.81954
0.720048
0.801846
0.702695
0.794405
0.796055
0.812026
0.647664
0.808196
0.760868
0.798616
0.80323
0.761868
0.817625
0.866793
0.784878
0.689806
0.805109
0.802332
0.651823
0.794638
0.779395
0.802513
0.840129
0.817309
0.61479
0.817606
0.810877
0.799086
0.817822
0.802887
0.815969
0.816213
0.836311
0.758841
0.802084
0.836368
0.811271
0.803271
0.796833
0.817503
0.72877
0.594488
0.81897
0.830323
0.822347
0.805191
0.692279
0.817819
0.817596
0.818595
0.720826
0.798966
0.817584
0.579697
0.802993
0.869956
0.678671
0.76025
0.840062
0.828448
0.81736
0.705097
0.809991
0.817584
0.804169
0.802191
0.812783
0.837828
0.818183
0.768998
0.807561
0.803258
0.651076
0.82295
0.829572
0.677699
0.793249
0.820909
0.821567
0.683805
0.666597
0.82335
0.825873
0.810074
0.733707
0.711065
0.71773
0.738604
0.822264
0.779482
0.804541
0.738513
0.742567
0.824361
0.812296
0.820024
0.772293
0.817623
0.816256
0.819493
0.818132
0.803019
0.808181
0.804608
0.688909
0.802885
0.813496
0.704926
0.807989
0.805543
0.82146
0.786869
0.806609
0.792733
0.817475
0.822941
0.822169
0.798754
0.693295
0.719089
0.799999
0.811456
0.634022
0.804238
0.808321
0.81788
0.74707
0.804766
0.818489
0.813928
0.819931
0.805453
0.797979
0.767316
0.805116
0.844895
0.820924
0.705234
0.804245
0.709784
0.703906
0.803416
0.61988
0.772347
0.785904
0.808703
0.816035
0.826925
0.819225
0.81442
0.822178
0.829931
0.80302
0.767432
0.810387
0.665356
0.82125
0.759886
0.732619
0.698526
0.816393
0.855022
0.821275
0.809614
0.823019
0.817739
0.787948
0.761538
0.811827
0.696552
0.791975
0.844774
0.827224
0.80125
0.865071
0.813958
0.818507
0.819701
0.831643
0.63965
0.800816
0.73749
0.798456
0.735593
0.820715
0.809231
0.789348
0.676327
0.817335
0.830736
0.8143
0.803281
0.804173
0.826179
0.804205
0.718782
0.791177
0.803231
0.81727
0.81611
0.814826
0.872528
0.829545
0.809914
0.833728
0.687198
0.825288
0.839121
0.818453
0.63285
0.817726
0.809823
0.846839
0.823319
0.803172
0.599271
0.810739
0.703428
0.806583
0.803047
0.813066
0.816152
0.825824
0.805493
0.811872
0.818228
0.731117
0.863986
0.802215
0.851443
0.818563
0.586547
0.804248
0.797468
0.813937
0.81981
0.668608
0.803033
0.810178
0.813635
0.807615
0.794541
0.817974
0.819443
0.798445
0.804739
0.823372
0.838147
0.736738
0.806776
0.810552
0.815359
0.686353
0.805807
0.818012
0.799803
0.804643
0.566387
0.834552
0.767157
0.81727
0.819876
0.832505
0.84746
0.818275
0.814054
0.722981
0.799508
0.853429
0.810686
0.713084
0.800675
0.802772
0.873115
0.846654
0.821133
0.802279
0.810304
0.757933
0.817759
0.814645
0.592667
0.803095
0.735954
0.751571
0.803645
0.813783
0.782005
0.82232
0.817664
0.839062
0.818033
0.801021
0.810986
0.738778
0.740183
0.804551
0.810224
0.822914
0.802811
0.753171
0.696152
0.816132
0.815949
0.814651
0.602122
0.816176
0.818433
0.826575
0.803416
0.810664
0.821592
0.812452
0.84093
0.80326
0.813272
0.825444
0.817971
0.819432
0.823133
0.697808
0.785301
0.796811
0.803482
0.848952
0.802285
0.804608
0.640267
0.812633
0.815834
0.81149
0.821134
0.806255
0.815676
0.729941
0.845027
0.706342
0.800977
0.819529
0.807768
0.671913
0.674556
0.816328
0.806164
0.80489
0.787897
0.801794
0.830963
0.815671
0.805427
0.802659
0.81453
0.624851
0.814777
0.80366
0.708376
0.817622
0.637903
0.786674
0.817777
0.839046
0.808139
0.815019
0.794878
0.79758
0.804701
0.801718
0.814459
0.811852
0.811266
0.803476
0.757972
0.804517
0.815103
0.814534
0.818037
0.813992
0.818227
0.817447
0.83555
0.743675
0.807325
0.817972
0.803041
0.553552
0.692316
0.812161
0.815853
0.817631
0.781367
0.80925
0.813692
0.803808
0.800481
0.803285
0.821612
0.822478
0.817505
0.787362
0.810181
0.807903
0.638859
0.775739
0.760553
0.808142
0.738291
0.687513
0.798219
0.769381
0.829456
0.817539
0.817248
0.809016
0.551137
0.816546
0.59119
0.706298
0.826537
0.870599
0.746609
0.818759
0.854112
0.699937
0.817653
0.80971
0.81564
0.808116
0.661127
0.855792
0.738109
0.736478
0.8039
0.805026
0.800051
0.834151
0.817674
0.695888
0.817198
0.800638
0.702447
0.84103
0.798811
0.628361
0.774733
0.818013
0.810118
0.817331
0.785235
0.732068
0.773342
0.837999
0.692237
0.818287
0.819241
0.82874
0.767566
0.824033
0.699023
0.805045
0.665197
0.704129
0.802278
0.823705
0.791032
0.81722
0.817772
0.817669
0.816623
0.586824
0.802742
0.81759
0.745933
0.810676
0.817791
0.814304
0.714186
0.687702
0.743926
0.631507
0.808142
0.686932
0.818033
0.802167
0.817517
0.83791
0.685721
0.806353
0.821686
0.833791
0.743375
0.78431
0.765602
0.775207
0.814415
0.61328
0.672514
0.817751
0.805828
0.814362
0.805013
0.718841
0.782362
0.730722
0.761303
0.800358
0.833602
0.813003
0.694716
0.825319
0.81956
0.813321
0.695674
0.688438
0.687579
0.873099
0.818208
0.818679
0.616249
0.714682
0.646536
0.8041
0.800806
0.676199
0.812792
0.825916
0.753744
0.800315
0.734895
0.816561
0.695961
0.817352
0.811226
0.803622
0.803288
0.826975
0.747007
0.818119
0.81756
0.781736
0.577294
0.817307
0.813246
0.76106
0.816518
0.747914
0.803649
0.828029
0.677206
0.820295
0.80289
0.810723
0.594148
0.666251
0.73858
0.80692
0.814388
0.813181
0.823058
0.815764
0.818268
0.707719
0.80219
0.815363
0.828045
0.706882
0.733039
0.814737
0.81372
0.701377
0.815239
0.776584
0.699211
0.812542
0.699538
0.806357
0.667038
0.80303
0.730081
0.674082
0.813451
0.787337
0.747453
0.636348
0.841457
0.821877
0.817043
0.772623
0.816831
0.800601
0.788139
0.800554
0.80223
0.817232
0.737824
0.810368
0.800624
0.820903
0.605818
0.802095
0.815097
0.816015
0.813836
0.814354
0.749584
0.804946
0.765913
0.754076
0.820707
0.658109
0.820626
0.819779
0.803291
0.817733
0.818951
0.727699
0.769199
0.824063
0.787614
0.804244
0.818189
0.875924
0.82
0.80063
0.819074
0.817772
0.794692
0.820631
0.818877
0.775103
0.707865
0.842696
0.797809
0.803382
0.82344
0.783205
0.820017
0.825505
0.820791
0.819135
0.871521
0.803318
0.80559
0.820413
0.803306
0.817781
0.807534
0.740784
0.817685
0.821791
0.754487
0.717101
0.81755
0.844294
0.823142
0.669906
0.823754
0.77542
0.810581
0.802587
0.733393
0.803263
0.799336
0.816277
0.818946
0.700839
0.712635
0.802758
0.788498
0.802427
0.826288
0.721474
0.817545
0.803018
0.80098
0.82485
0.817855
0.719622
0.817982
0.765497
0.802946
0.833472
0.803782
0.775896
0.798655
0.795341
0.817529
0.649174
0.817556
0.690546
0.691469
0.803884
0.821629
0.817565
0.802964
0.817573
0.810314
0.729621
0.788621
0.858321
0.803225
0.834854
0.808082
0.562073
0.762859
0.782699
0.656681
0.742194
0.588373
0.821606
0.815898
0.815823
0.802714
0.767967
0.690133
0.767626
0.752974
0.783411
0.81753
0.845863
0.821475
0.806381
0.820015
0.825183
0.803272
0.808519
0.712126
0.803656
0.758705
0.809272
0.798542
0.755351
0.824024
0.789518
0.803997
0.792322
0.842212
0.730971
0.801409
0.800192
0.805394
0.622577
0.81788
0.817778
0.822791
0.643919
0.817676
0.81764
0.799197
0.804274
0.794117
0.778087
0.807234
0.796928
0.818293
0.753729
0.805983
0.876136
0.765403
0.751506
0.809114
0.784835
0.844039
0.802133
0.782441
0.817413
0.798847
0.793503
0.808667
0.827416
0.837315
0.800294
0.582695
0.822427
0.829953
0.773348
0.832448
0.839631
0.824751
0.828044
0.807897
0.834493
0.828637
0.784791
0.809875
0.813728
0.808508
0.824632
0.803738
0.828037
0.793822
0.804127
0.806469
0.731368
0.807781
0.570953
0.820089
0.827156
0.830365
0.806662
0.81905
0.825791
0.820151
0.822811
0.840299
0.834741
0.790379
0.800778
0.823667
0.817607
0.819159
0.800853
0.80695
0.866587
0.82207
0.848708
0.817372
0.801194
0.825275
0.800546
0.83428
0.815676
0.817337
0.80579
0.732297
0.80327
0.804975
0.81747
0.803767
0.803813
0.822745
0.805457
0.804601
0.779353
0.820397
0.721211
0.815049
0.783095
0.761303
0.803944
0.81395
0.819637
0.721049
0.821384
0.815882
0.82721
0.819198
0.791595
0.81856
0.848248
0.834046
0.816701
0.812373
0.801995
0.74766
0.687172
0.817595
0.821485
0.773735
0.816526
0.808408
0.814045
0.806025
0.799148
0.777526
0.802649
0.800565
0.842778
0.819548
0.812201
0.807041
0.609577
0.736078
0.802672
0.785839
0.804684
0.81786
0.806543
0.818363
0.78119
0.817634
0.805376
0.812987
0.80428
0.819928
0.803287
0.818179
0.813111
0.81805
0.814988
0.722478
0.816554
0.818021
0.603778
0.817425
0.797504
0.80347
0.859896
0.820276
0.81296
0.873388
0.817585
0.817687
0.819045
0.820889
0.817357
0.766062
0.83093
0.801967
0.8035
0.816563
0.8176
0.81894
0.817536
0.815492
0.823718
0.804309
0.814608
0.809691
0.816068
0.820681
0.817573
0.813927
0.821254
0.809507
0.691574
0.666337
0.802953
0.80943
0.803669
0.813468
0.820386
0.819129
0.803195
0.804667
0.801129
0.801264
0.818984
0.845568
0.82062
0.812351
0.820511
0.820262
0.847017
0.819512
0.821939
0.786747
0.817905
0.80728
0.802068
0.792898
0.812825
0.820542
0.81741
0.817429
0.836692
0.808154
0.815155
0.818681
0.822311
0.803832
0.803616
0.80595
0.813218
0.817484
0.801925
0.805114
0.819082
0.823199
0.801366
0.657204
0.80461
0.798621
0.818123
0.799352
0.803083
0.750734
0.842271
0.803218
0.800234
0.836358
0.831414
0.810838
0.827987
0.800956
0.819944
0.819342
0.820754
0.803916
0.820357
0.734639
0.824203
0.812091
0.800642
0.813807
0.822483
0.799767
0.804346
0.784819
0.815763
0.817758
0.817848
0.820545
0.80688
0.819226
0.818039
0.827575
0.822611
0.839164
0.8065
0.698467
0.819968
0.841803
0.821756
0.805147
0.800451
0.803851
0.818142
0.814797
0.818191
0.745573
0.743501
0.801282
0.803385
0.817887
0.81858
0.800952
0.661984
0.71138
0.808516
0.769622
0.81812
0.705861
0.803198
0.730941
0.803294
0.820819
0.803238
0.819424
0.815045
0.798959
0.809175
0.795684
0.830552
0.817864
0.801748
0.803903
0.817979
0.823504
0.752682
0.824289
0.804059
0.783898
0.817757
0.80419
0.811319
0.817158
0.817382
0.83676
0.794958
0.799425
0.817652
0.761185
0.807227
0.817262
0.801428
0.818112
0.842018
0.802733
0.844513
0.810418
0.792163
0.81423
0.80275
0.85288
0.789246
0.803355
0.818241
0.833224
0.808858
0.816053
0.817944
0.803148
0.802928
0.826613
0.784568
0.816594
0.817593
0.658303
0.817772
0.715547
0.81821
0.839615
0.82622
0.804767
0.81696
0.81756
0.728967
0.8172
0.801509
0.801805
0.801318
0.817884
0.86488
0.801634
0.801509
0.786442
0.842078
0.828563
0.821492
0.815378
0.749303
0.805404
0.80339
0.733552
0.800121
0.717438
0.812652
0.801178
0.680497
0.88104
0.705376
0.7729
0.80209
0.747096
0.80886
0.799446
0.803145
0.664935
0.797223
0.785199
0.799564
0.735232
0.82065
0.824275
0.885302
0.809944
0.832229
0.650049
0.800557
0.788739
0.749209
0.75505
0.7722
0.711932
0.803424
0.799894
0.803501
0.766181
0.633072
0.812013
0.619844
0.822777
0.82416
0.812017
0.738291
0.813656
0.797656
0.820894
0.783954
0.809268
0.797586
0.81212
0.71961
0.801873
0.725979
0.801714
0.799264
0.694579
0.804124
0.817531
0.817572
0.803262
0.7635
0.817292
0.731958
0.694341
0.802552
0.81758
0.875339
0.817511
0.816695
0.881355
0.866373
0.832163
0.716562
0.802324
0.812415
0.822201
0.800014
0.689421
0.725467
0.686256
0.802515
0.701679
0.770603
0.799833
0.632023
0.687976
0.837334
0.775971
0.748457
0.832006
0.761938
0.769754
0.668253
0.734939
0.787252
0.821301
0.870406
0.839048
0.817752
0.796558
0.800095
0.719967
0.817682
0.697676
0.79761
0.817585
0.784084
0.764816
0.803491
0.784926
0.80262
0.801118
0.813818
0.81169
0.868093
0.61804
0.557588
0.802686
0.808737
0.703328
0.810823
0.803043
0.838821
0.803762
0.802527
0.578411
0.581268
0.808986
0.814501
0.817628
0.733209
0.803275
0.812226
0.690401
0.813606
0.802885
0.816286
0.803253
0.802198
0.802407
0.816734
0.803046
0.817586
0.803545
0.863113
0.81709
0.802638
0.721213
0.677347
0.817531
0.596289
0.814423
0.810788
0.837228
0.815849
0.803338
0.811282
0.815781
0.815231
0.817404
0.80183
0.854928
0.857598
0.802925
0.664866
0.810362
0.822956
0.799773
0.80333
0.821639
0.739953
0.803311
0.826677
0.822911
0.817621
0.817412
0.76876
0.745734
0.801487
0.835404
0.803582
0.816009
0.805237
0.804447
0.80578
0.816398
0.809605
0.799336
0.807383
0.806773
0.82529
0.807167
0.806732
0.819484
0.807606
0.803427
0.815509
0.803061
0.802946
0.806238
0.808589
0.815632
0.775381
0.805737
0.80287
0.817567
0.800094
0.804043
0.8074
0.833291
0.805413
0.661677
0.801127
0.817372
0.805011
0.815323
0.76533
0.817194
0.753976
0.803921
0.802376
0.804366
0.819692
0.852237
0.804694
0.803328
0.74726
0.831093
0.817497
0.822153
0.825489
0.816588
0.741554
0.819979
0.729053
0.801582
0.829141
0.802624
0.709274
0.827434
0.81647
0.818403
0.825752
0.817757
0.774999
0.819105
0.662862
0.718921
0.817579
0.82429
0.688483
0.821142
0.66318
0.823148
0.807641
0.818666
0.803267
0.806416
0.816654
0.832585
0.825661
0.668627
0.815563
0.843389
0.782768
0.847571
0.800563
0.714399
0.839928
0.82135
0.837025
0.698747
0.695537
0.834408
0.673308
0.832169
0.817564
0.830191
0.806886
0.828522
0.788725
0.827063
0.825715
0.715384
0.866676
0.824562
0.823591
0.824179
0.762019
0.803048
0.54816
0.805215
0.822749
0.815926
0.805401
0.827577
0.817605
0.798545
0.822013
0.803161
0.693321
0.793248
0.835074
0.816886
0.722438
0.801396
0.822132
0.588897
0.817182
0.817917
0.803345
0.810482
0.731661
0.819574
0.803158
0.803723
0.796648
0.796227
0.798694
0.795453
0.803337
0.815006
0.819905
0.816424
0.581348
0.893653
0.713392
0.798465
0.744115
0.792321
0.817575
0.817997
0.817914
0.612211
0.820864
0.817784
0.804362
0.819799
0.837587
0.84039
0.783894
0.798852
0.799982
0.732041
0.756476
0.817672
0.766304
0.815762
0.821036
0.817241
0.814063
0.802136
0.778134
0.812614
0.818351
0.73174
0.811159
0.818163
0.820177
0.808401
0.810028
0.767927
0.817147
0.808746
0.803382
0.807966
0.624605
0.807031
0.804799
0.80643
0.823187
0.846464
0.805194
0.777334
0.805778
0.772788
0.82219
0.807948
0.815349
0.81759
0.851105
0.803665
0.746366
0.820403
0.817674
0.730619
0.801647
0.818479
0.75998
0.815241
0.578105
0.80719
0.689423
0.801974
0.812666
0.814754
0.819371
0.804597
0.81758
0.819753
0.801565
0.805218
0.845383
0.81838
0.796908
0.818221
0.802831
0.802395
0.800737
0.801799
0.809115
0.817124
0.802165
0.773229
0.820462
0.81447
0.809438
0.817595
0.594967
0.804091
0.814278
0.817694
0.789975
0.751953
0.718523
0.815085
0.817437
0.827657
0.791866
0.610629
0.773758
0.650923
0.818927
0.745525
0.814823
0.831195
0.705136
0.800204
0.835366
0.754068
0.801026
0.803344
0.817774
0.803976
0.702454
0.801157
0.563672
0.802375
0.802782
0.802547
0.644294
0.803093
0.803735
0.80349
0.731388
0.740369
0.803719
0.77862
0.817965
0.725379
0.710222
0.817457
0.801805
0.755244
0.85517
0.816386
0.814864
0.674141
0.80319
0.800945
0.800919
0.802665
0.663149
0.803592
0.817689
0.659596
0.689679
0.806577
0.792388
0.817595
0.824583
0.817295
0.817517
0.818614
0.803983
0.817636
0.817214
0.814949
0.83016
0.803172
0.802212
0.811172
0.733833
0.810126
0.817071
0.863724
0.81263
0.643973
0.777713
0.80252
0.777533
0.818869
0.814071
0.831349
0.81493
0.865523
0.802733
0.816878
0.602592
0.816548
0.835153
0.803058
0.816815
0.63172
0.817485
0.80287
0.818827
0.80245
0.819609
0.818186
0.755094
0.803976
0.803226
0.836435
0.8629
0.820413
0.818348
0.724589
0.746648
0.802751
0.80336
0.812912
0.820099
0.800039
0.80317
0.821422
0.808582
0.808066
0.739577
0.802934
0.819491
0.815916
0.770515
0.761028
0.8138
0.797199
0.858093
0.721871
0.835947
0.813099
0.709962
0.800388
0.816735
0.788141
0.801057
0.800398
0.81739
0.779817
0.775118
0.815824
0.695585
0.799193
0.768316
0.817296
0.819405
0.80242
0.78982
0.742066
0.755447
0.77604
0.817088
0.820962
0.807853
0.678353
0.804083
0.797828
0.778763
0.810402
0.815355
0.800222
0.803968
0.64715
0.804806
0.80543
0.852557
0.804038
0.809878
0.83474
0.806117
0.812296
0.853407
0.623996
0.804387
0.818398
0.805894
0.805481
0.806227
0.80498
0.805121
0.804576
0.806346
0.80713
0.728681
0.80627
0.807834
0.808642
0.81726
0.808957
0.820278
0.803227
0.80384
0.816954
0.817078
0.812268
0.803416
0.816872
0.81404
0.811646
0.818224
0.713287
0.816291
0.833012
0.81733
0.855479
0.752181
0.810157
0.817532
0.801672
0.645049
0.803505
0.774439
0.823791
0.632271
0.817901
0.831094
0.81714
0.813713
0.802421
0.828075
0.820751
0.804062
0.767005
0.819208
0.759953
0.559014
0.816925
0.691549
0.700744
0.821029
0.829279
0.829165
0.818844
0.848815
0.604782
0.877904
0.805861
0.827636
0.826025
0.815213
0.688595
0.81737
0.824542
0.818598
0.801881
0.774434
0.822896
0.576609
0.815
0.844551
0.803459
0.841065
0.823354
0.803334
0.677617
0.844342
0.822344
0.837946
0.801409
0.815742
0.803165
0.835372
0.803123
0.815716
0.833003
0.83091
0.822646
0.826127
0.831734
0.739307
0.671955
0.583852
0.829114
0.827633
0.76945
0.759441
0.808536
0.826246
0.847748
0.602932
0.825004
0.823951
0.823075
0.821614
0.804615
0.821394
0.670365
0.748438
0.822308
0.798109
0.871232
0.89083
0.778
0.806069
0.673597
0.836414
0.736445
0.726219
0.819749
0.802384
0.784688
0.675414
0.80241
0.817509
0.789859
0.720018
0.802679
0.817762
0.798794
0.690175
0.824864
0.793686
0.818051
0.834837
0.81576
0.79798
0.818433
0.818224
0.786835
0.804473
0.718702
0.841513
0.793862
0.81321
0.783211
0.804886
0.706168
0.801144
0.814091
0.812707
0.811531
0.810015
0.808907
0.808137
0.806489
0.805341
0.807304
0.732148
0.805907
0.801707
0.796569
0.803627
0.845378
0.722272
0.803429
0.777322
0.884679
0.855482
0.798566
0.729534
0.803999
0.798412
0.724414
0.803649
0.802298
0.739322
0.804226
0.792366
0.798012
0.801635
0.740163
0.782395
0.80651
0.751412
0.765832
0.772491
0.801964
0.817007
0.809142
0.762183
0.753204
0.8
0.816256
0.80355
0.794725
0.801422
0.928891
0.861517
0.819695
0.817472
0.723532
0.845637
0.75007
0.826965
0.817994
0.898727
0.817587
0.797815
0.59668
0.817594
0.797941
0.817604
0.798356
0.846691
0.544908
0.834381
0.801929
0.806273
0.805585
0.804413
0.856953
0.801666
0.819514
0.704756
0.65797
0.670479
0.817624
0.523234
0.798332
0.726518
0.842974
0.815707
0.567116
0.803773
0.817033
0.81676
0.722005
0.802278
0.534909
0.797939
0.817711
0.798072
0.803025
0.798319
0.817833
0.835209
0.803325
0.799045
0.818153
0.799319
0.818281
0.815004
0.799612
0.818428
0.816149
0.818604
0.799755
0.818804
0.683202
0.799962
0.81903
0.803245
0.800167
0.81926
0.704098
0.817555
0.798811
0.817586
0.799316
0.812201
0.839351
0.862408
0.801323
0.801279
0.820128
0.81616
0.800912
0.800528
0.864612
0.813902
0.819824
0.812653
0.851053
0.830257
0.818802
0.826676
0.847583
0.817514
0.802444
0.82129
0.813203
0.80288
0.81736
0.800719
0.809111
0.783985
0.807742
0.817407