# vtk DataFile Version 1.0
unstructured grid
ascii
DATASET UNSTRUCTURED_GRID
points 3920 float
-1 0 0
-1 1 0
2 0 0
2 1 0
0 0 0
1 0 0
-1 1 0.1
-1 0 0.1
0 0 0.1
1 0 0.1
2 0 0.1
2 1 0.1
-0.98 0 0
-0.96 0 0
-0.94 0 0
-0.92 0 0
-0.9 0 0
-0.88 0 0
-0.86 0 0
-0.84 0 0
-0.82 0 0
-0.8 0 0
-0.78 0 0
-0.76 0 0
-0.74 0 0
-0.72 0 0
-0.7 0 0
-0.68 0 0
-0.66 0 0
-0.64 0 0
-0.62 0 0
-0.6 0 0
-0.58 0 0
-0.56 0 0
-0.54 0 0
-0.52 0 0
-0.5 0 0
-0.48 0 0
-0.46 0 0
-0.44 0 0
-0.42 0 0
-0.4 0 0
-0.38 0 0
-0.36 0 0
-0.34 0 0
-0.32 0 0
-0.3 0 0
-0.28 0 0
-0.26 0 0
-0.24 0 0
-0.22 0 0
-0.2 0 0
-0.18 0 0
-0.16 0 0
-0.14 0 0
-0.12 0 0
-0.1 0 0
-0.08 0 0
-0.06 0 0
-0.04 0 0
-0.02 0 0
1.02 0 0
1.04 0 0
1.06 0 0
1.08 0 0
1.1 0 0
1.12 0 0
1.14 0 0
1.16 0 0
1.18 0 0
1.2 0 0
1.22 0 0
1.24 0 0
1.26 0 0
1.28 0 0
1.3 0 0
1.32 0 0
1.34 0 0
1.36 0 0
1.38 0 0
1.4 0 0
1.42 0 0
1.44 0 0
1.46 0 0
1.48 0 0
1.5 0 0
1.52 0 0
1.54 0 0
1.56 0 0
1.58 0 0
1.6 0 0
1.62 0 0
1.64 0 0
1.66 0 0
1.68 0 0
1.7 0 0
1.72 0 0
1.74 0 0
1.76 0 0
1.78 0 0
1.8 0 0
1.82 0 0
1.84 0 0
1.86 0 0
1.88 0 0
1.9 0 0
1.92 0 0
1.94 0 0
1.96 0 0
1.98 0 0
2 0.0199133 0
2 0.0414128 0
2 0.0646247 0
2 0.0896856 0
2 0.116743 0
2 0.145955 0
2 0.177494 0
2 0.211545 0
2 0.248309 0
2 0.288001 0
2 0.330854 0
2 0.377121 0
2 0.427073 0
2 0.481004 0
2 0.539231 0
2 0.602096 0
2 0.669968 0
2 0.743247 0
2 0.822362 0
2 0.907779 0
1.9 1 0
1.8 1 0
1.7 1 0
1.6 1 0
1.5 1 0
1.4 1 0
1.3 1 0
1.2 1 0
1.1 1 0
1 1 0
0.9 1 0
0.8 1 0
0.7 1 0
0.6 1 0
0.5 1 0
0.4 1 0
0.3 1 0
0.2 1 0
0.1 1 0
3.69793e-12 1 0
-0.1 1 0
-0.2 1 0
-0.3 1 0
-0.4 1 0
-0.5 1 0
-0.6 1 0
-0.7 1 0
-0.8 1 0
-0.9 1 0
-1 0.907779 0
-1 0.822362 0
-1 0.743247 0
-1 0.669968 0
-1 0.602096 0
-1 0.539231 0
-1 0.481004 0
-1 0.427073 0
-1 0.377121 0
-1 0.330854 0
-1 0.288001 0
-1 0.248309 0
-1 0.211545 0
-1 0.177494 0
-1 0.145955 0
-1 0.116743 0
-1 0.0896856 0
-1 0.0646247 0
-1 0.0414128 0
-1 0.0199133 0
0.0182781 0.00745351 0
0.0366672 0.0146286 0
0.0551632 0.0215237 0
0.0737617 0.0281372 0
0.0924585 0.0344675 0
0.111249 0.0405131 0
0.13013 0.0462728 0
0.149095 0.0517451 0
0.168142 0.0569289 0
0.187265 0.0618228 0
0.20646 0.0664258 0
0.225723 0.0707368 0
0.245049 0.0747549 0
0.264434 0.078479 0
0.283873 0.0819084 0
0.303362 0.0850422 0
0.322896 0.0878798 0
0.342472 0.0904204 0
0.362083 0.0926635 0
0.381726 0.0946086 0
0.401397 0.0962552 0
0.42109 0.0976029 0
0.440802 0.0986514 0
0.460527 0.0994006 0
0.480261 0.0998501 0
0.5 0.1 0
0.519739 0.0998501 0
0.539473 0.0994006 0
0.559198 0.0986514 0
0.57891 0.0976029 0
0.598603 0.0962552 0
0.618274 0.0946086 0
0.637917 0.0926635 0
0.657528 0.0904204 0
0.677104 0.0878798 0
0.696638 0.0850422 0
0.716127 0.0819084 0
0.735566 0.078479 0
0.754951 0.0747549 0
0.774277 0.0707368 0
0.79354 0.0664258 0
0.812735 0.0618228 0
0.831858 0.0569289 0
0.850905 0.0517451 0
0.86987 0.0462728 0
0.888751 0.0405131 0
0.907542 0.0344675 0
0.926238 0.0281372 0
0.944837 0.0215237 0
0.963333 0.0146286 0
0.981722 0.00745351 0
-1 0.907779 0.1
-1 0.822362 0.1
-1 0.743247 0.1
-1 0.669968 0.1
-1 0.602096 0.1
-1 0.539231 0.1
-1 0.481004 0.1
-1 0.427073 0.1
-1 0.377121 0.1
-1 0.330854 0.1
-1 0.288001 0.1
-1 0.248309 0.1
-1 0.211545 0.1
-1 0.177494 0.1
-1 0.145955 0.1
-1 0.116743 0.1
-1 0.0896856 0.1
-1 0.0646247 0.1
-1 0.0414128 0.1
-1 0.0199133 0.1
-0.98 0 0.1
-0.96 0 0.1
-0.94 0 0.1
-0.92 0 0.1
-0.9 0 0.1
-0.88 0 0.1
-0.86 0 0.1
-0.84 0 0.1
-0.82 0 0.1
-0.8 0 0.1
-0.78 0 0.1
-0.76 0 0.1
-0.74 0 0.1
-0.72 0 0.1
-0.7 0 0.1
-0.68 0 0.1
-0.66 0 0.1
-0.64 0 0.1
-0.62 0 0.1
-0.6 0 0.1
-0.58 0 0.1
-0.56 0 0.1
-0.54 0 0.1
-0.52 0 0.1
-0.5 0 0.1
-0.48 0 0.1
-0.46 0 0.1
-0.44 0 0.1
-0.42 0 0.1
-0.4 0 0.1
-0.38 0 0.1
-0.36 0 0.1
-0.34 0 0.1
-0.32 0 0.1
-0.3 0 0.1
-0.28 0 0.1
-0.26 0 0.1
-0.24 0 0.1
-0.22 0 0.1
-0.2 0 0.1
-0.18 0 0.1
-0.16 0 0.1
-0.14 0 0.1
-0.12 0 0.1
-0.1 0 0.1
-0.08 0 0.1
-0.06 0 0.1
-0.04 0 0.1
-0.02 0 0.1
0.0182781 0.00745351 0.1
0.0366672 0.0146286 0.1
0.0551632 0.0215237 0.1
0.0737617 0.0281372 0.1
0.0924585 0.0344675 0.1
0.111249 0.0405131 0.1
0.13013 0.0462728 0.1
0.149095 0.0517451 0.1
0.168142 0.0569289 0.1
0.187265 0.0618228 0.1
0.20646 0.0664258 0.1
0.225723 0.0707368 0.1
0.245049 0.0747549 0.1
0.264434 0.078479 0.1
0.283873 0.0819084 0.1
0.303362 0.0850422 0.1
0.322896 0.0878798 0.1
0.342472 0.0904204 0.1
0.362083 0.0926635 0.1
0.381726 0.0946086 0.1
0.401397 0.0962552 0.1
0.42109 0.0976029 0.1
0.440802 0.0986514 0.1
0.460527 0.0994006 0.1
0.480261 0.0998501 0.1
0.5 0.1 0.1
0.519739 0.0998501 0.1
0.539473 0.0994006 0.1
0.559198 0.0986514 0.1
0.57891 0.0976029 0.1
0.598603 0.0962552 0.1
0.618274 0.0946086 0.1
0.637917 0.0926635 0.1
0.657528 0.0904204 0.1
0.677104 0.0878798 0.1
0.696638 0.0850422 0.1
0.716127 0.0819084 0.1
0.735566 0.078479 0.1
0.754951 0.0747549 0.1
0.774277 0.0707368 0.1
0.79354 0.0664258 0.1
0.812735 0.0618228 0.1
0.831858 0.0569289 0.1
0.850905 0.0517451 0.1
0.86987 0.0462728 0.1
0.888751 0.0405131 0.1
0.907542 0.0344675 0.1
0.926238 0.0281372 0.1
0.944837 0.0215237 0.1
0.963333 0.0146286 0.1
0.981722 0.00745351 0.1
1.02 0 0.1
1.04 0 0.1
1.06 0 0.1
1.08 0 0.1
1.1 0 0.1
1.12 0 0.1
1.14 0 0.1
1.16 0 0.1
1.18 0 0.1
1.2 0 0.1
1.22 0 0.1
1.24 0 0.1
1.26 0 0.1
1.28 0 0.1
1.3 0 0.1
1.32 0 0.1
1.34 0 0.1
1.36 0 0.1
1.38 0 0.1
1.4 0 0.1
1.42 0 0.1
1.44 0 0.1
1.46 0 0.1
1.48 0 0.1
1.5 0 0.1
1.52 0 0.1
1.54 0 0.1
1.56 0 0.1
1.58 0 0.1
1.6 0 0.1
1.62 0 0.1
1.64 0 0.1
1.66 0 0.1
1.68 0 0.1
1.7 0 0.1
1.72 0 0.1
1.74 0 0.1
1.76 0 0.1
1.78 0 0.1
1.8 0 0.1
1.82 0 0.1
1.84 0 0.1
1.86 0 0.1
1.88 0 0.1
1.9 0 0.1
1.92 0 0.1
1.94 0 0.1
1.96 0 0.1
1.98 0 0.1
2 0.0199133 0.1
2 0.0414128 0.1
2 0.0646247 0.1
2 0.0896856 0.1
2 0.116743 0.1
2 0.145955 0.1
2 0.177494 0.1
2 0.211545 0.1
2 0.248309 0.1
2 0.288001 0.1
2 0.330854 0.1
2 0.377121 0.1
2 0.427073 0.1
2 0.481004 0.1
2 0.539231 0.1
2 0.602096 0.1
2 0.669968 0.1
2 0.743247 0.1
2 0.822362 0.1
2 0.907779 0.1
1.9 1 0.1
1.8 1 0.1
1.7 1 0.1
1.6 1 0.1
1.5 1 0.1
1.4 1 0.1
1.3 1 0.1
1.2 1 0.1
1.1 1 0.1
1 1 0.1
0.9 1 0.1
0.8 1 0.1
0.7 1 0.1
0.6 1 0.1
0.5 1 0.1
0.4 1 0.1
0.3 1 0.1
0.2 1 0.1
0.1 1 0.1
3.69793e-12 1 0.1
-0.1 1 0.1
-0.2 1 0.1
-0.3 1 0.1
-0.4 1 0.1
-0.5 1 0.1
-0.6 1 0.1
-0.7 1 0.1
-0.8 1 0.1
-0.9 1 0.1
1.08758 0.0158154 0
-0.0898513 0.0203294 0
0.0966181 0.0537636 0
0.90205 0.0548881 0
1.21055 0.0202058 0
-0.209811 0.0159577 0
1.3305 0.0176902 0
-0.33 0.0173205 0
1.45324 0.0148141 0
-0.448654 0.0159854 0
1.56842 0.0191785 0
-0.569936 0.0166364 0
0.193292 0.0805369 0
0.805051 0.0813623 0
0.709096 0.100353 0
0.288591 0.0996656 0
0.390184 0.111848 0
0.61033 0.111742 0
0.488809 0.116278 0
1.67175 0.0169692 0
-0.67 0.0169809 0
-0.955017 0.454039 0
1.95131 0.44569 0
1.74981 0.0168753 0
-0.75 0.0173205 0
-0.968032 0.266538 0
1.96871 0.266267 0
0.978232 0.0305687 0
0.0208675 0.026451 0
-0.150454 0.91842 0
1.13854 0.907437 0
1.45012 0.904365 0
-0.445923 0.908903 0
-0.853423 0.0157019 0
1.84881 0.016319 0
0.853689 0.915652 0
0.153944 0.912184 0
0.545151 0.914125 0
0.549913 0.115152 0
1.51 0.0173205 0
-0.506989 0.01651 0
1.27 0.0173205 0
1.14976 0.0173333 0
-0.268171 0.0206442 0
-0.150501 0.0153244 0
-0.391384 0.0153993 0
1.38886 0.0171544 0
-0.973694 0.161724 0
1.97441 0.162392 0
-0.945221 0.633523 0
1.94544 0.63312 0
1.91008 0.0186068 0
-0.91 0.0169616 0
-0.030664 0.0194327 0
1.03074 0.0165456 0
-0.966065 0.353575 0
1.96128 0.359765 0
1.93879 0.781254 0
-0.937057 0.781882 0
-0.980746 0.080709 0
1.9772 0.0760699 0
0.058735 0.0409372 0
0.355202 0.913001 0
0.86356 0.0661005 0
0.134223 0.0651111 0
0.941972 0.0397386 0
-0.653034 0.915003 0
1.65328 0.904589 0
0.770126 0.0881325 0
0.232946 0.0902008 0
0.330582 0.105648 0
0.670612 0.108365 0
0.428707 0.116145 0
1.80993 0.016629 0
-0.810168 0.0172178 0
-0.71 0.0173205 0
1.63047 0.0175504 0
1.70842 0.0169661 0
-0.628824 0.0181787 0
-0.949815 0.0133898 0
1.95 0.0173205 0
1.85542 0.907891 0
-0.85 0.913397 0
1.9833 0.0307692 0
-0.983315 0.0309709 0
-0.750025 0.916468 0
-0.701107 0.836904 0
-0.607741 0.836428 0
-0.656448 0.759827 0
-0.572936 0.758144 0
-0.61411 0.691195 0
-0.539534 0.689068 0
-0.578542 0.626111 0
-0.507461 0.624216 0
-0.544001 0.566638 0
-0.477696 0.564279 0
-0.511582 0.51001 0
-0.451689 0.507147 0
-0.481834 0.457732 0
-0.426137 0.454624 0
-0.453236 0.407539 0
-0.398845 0.406233 0
-0.507958 0.409496 0
-0.368427 0.460177 0
-0.344602 0.405209 0
-0.315696 0.447824 0
-0.294128 0.402169 0
-0.262844 0.444518 0
-0.241968 0.388746 0
-0.209878 0.439557 0
-0.185184 0.391135 0
-0.156687 0.437338 0
-0.133719 0.390776 0
-0.104405 0.434306 0
-0.0818745 0.388334 0
-0.0528785 0.431165 0
-0.0305984 0.385639 0
-0.00180552 0.427863 0
0.0194564 0.382608 0
0.0485809 0.42449 0
0.0701962 0.37973 0
0.0985483 0.421145 0
0.119893 0.377339 0
0.147837 0.417911 0
0.172552 0.36751 0
0.197018 0.412597 0
0.221203 0.37141 0
0.24512 0.409646 0
-0.48178 0.364657 0
-0.531053 0.364782 0
-0.0599102 0.344151 0
-0.324909 0.359566 0
0.266181 0.368462 0
0.292132 0.407649 0
0.311992 0.365779 0
0.338918 0.404821 0
0.357567 0.355909 0
0.384723 0.40053 0
0.404675 0.359681 0
0.430617 0.398558 0
0.450457 0.35827 0
0.474237 0.395182 0
0.496746 0.34898 0
0.520548 0.397931 0
0.542071 0.353121 0
0.566011 0.389914 0
0.585061 0.350856 0
0.609352 0.38696 0
0.629069 0.348168 0
0.655979 0.391217 0
0.67472 0.346182 0
0.699346 0.381414 0
0.719333 0.341965 0
0.743718 0.377547 0
0.764028 0.339036 0
0.788201 0.373582 0
0.807659 0.336101 0
0.832821 0.372249 0
0.852309 0.334017 0
0.877785 0.370339 0
0.897875 0.331141 0
0.922904 0.366281 0
0.943173 0.327335 0
0.968282 0.363358 0
0.989029 0.324222 0
1.01391 0.361511 0
1.03465 0.321428 0
1.05949 0.358447 0
1.08389 0.312052 0
1.10575 0.355104 0
1.12889 0.31562 0
1.15067 0.353235 0
1.17157 0.312819 0
1.19626 0.349369 0
1.21618 0.309863 0
1.2416 0.346914 0
1.26131 0.30715 0
1.28691 0.344312 0
1.30571 0.303752 0
1.33144 0.341222 0
1.35018 0.300911 0
1.3758 0.338308 0
1.39501 0.298931 0
1.42015 0.335235 0
1.43904 0.296349 0
1.46355 0.330194 0
1.48256 0.293347 0
1.50685 0.326967 0
1.52589 0.29055 0
1.54996 0.325305 0
1.56909 0.287929 0
[...]
CELL_DATA 3694
SCALARS rho float
LOOKUP_TABLE default
0.752518
0.703535
0.807266
0.830702
0.83575
0.808722
0.798213
0.803453
0.824596
0.805352
0.831805
0.831789
0.843978
0.796665
0.80415
0.77367
0.805403
0.805779
0.780133
0.85585
0.827966
0.834768
0.740175
0.807054
0.737549
0.842974
0.738687
0.811083
0.840673
0.800229
0.800361
0.736373
0.806213
0.829058
0.80622
0.810557
0.843791
0.834345
0.834345
0.786552
0.808062
0.8219
0.838165
0.829615
0.811108
0.830729
0.805026
0.710827
0.704923
0.75577
0.805979
0.80436
0.852903
0.807488
0.703219
0.84472
0.806004
0.829989
0.8363
0.769145
0.80282
0.834092
0.849547
0.802894
0.850553
0.840279
0.812267
0.832006
0.748173
0.864196
0.80428
0.812129
0.834788
0.805452
0.835449
0.804421
0.819164
0.801767
0.828984
0.806445
0.746347
0.823046
0.803526
0.785238
0.823216
0.80184
0.829411
0.746346
0.748197
0.83367
0.810963
0.805012
0.825096
0.826241
0.699654
0.810621
0.740857
0.831886
0.828543
0.847645
0.831448
0.782119
0.731838
0.824042
0.82264
0.834078
0.831926
0.811158
0.737922
0.828743
0.804831
0.75697
0.733919
0.832062
0.872837
0.804706
0.81167
0.828386
0.804224
0.804532
0.77692
0.827084
0.831342
0.784444
0.718004
0.774569
0.831171
0.792851
0.849777
0.73947
0.778466
0.806969
0.812483
0.788652
0.805177
0.806979
0.809144
0.803685
0.799599
0.831241
0.828572
0.741062
0.831224
0.831586
0.773692
0.71316
0.701629
0.800101
0.831995
0.817659
0.768867
0.8044
0.65926
0.791748
0.72481
0.782769
0.732522
0.796541
0.653121
0.800306
0.840809
0.677771
0.791675
0.754282
0.851857
0.656509
0.821762
0.803615
0.807373
0.699312
0.804036
0.699445
0.863803
0.663496
0.80542
0.706186
0.874021
0.842732
0.832067
0.755933
0.828396
0.737186
0.837646
0.751761
0.680028
0.805172
0.689627
0.834819
0.805594
0.857714
0.799524
0.717387
0.834158
0.800399
0.764225
0.855617
0.816219
0.854555
0.753647
0.767984
0.783591
0.805375
0.841415
0.837786
0.821483
0.831296
0.70804
0.807939
0.754211
0.804946
0.746934
0.807816
0.800916
0.80696
0.836725
0.782621
0.840387
0.764837
0.836697
0.830866
0.832045
0.855777
0.833348
0.744398
0.837753
0.695164
0.796304
0.822085
0.857886
0.839699
0.822489
0.80134
0.769504
0.831917
0.845042
0.831854
0.744836
0.812058
0.726145
0.805066
0.800804
0.822935
0.69626
0.811962
0.776485
0.804716
0.804161
0.775693
0.8332
0.867746
0.792139
0.705573
0.81041
0.805791
0.68012
0.806064
0.788938
0.804165
0.845549
0.833669
0.655096
0.832823
0.815736
0.810138
0.832491
0.804288
0.820134
0.824484
0.839093
0.772666
0.803002
0.844002
0.815369
0.804265
0.802489
0.834126
0.74049
0.637272
0.831103
0.833552
0.832855
0.810462
0.731099
0.832488
0.832695
0.827884
0.748365
0.807686
0.834009
0.667351
0.804034
0.873256
0.69299
0.777948
0.846773
0.835493
0.834119
0.720471
0.814301
0.834054
0.80675
0.8046
0.817324
0.843325
0.822102
0.780567
0.811753
0.804749
0.678025
0.833515
0.838378
0.710603
0.804073
0.832367
0.82551
0.710847
0.679433
0.833763
0.835177
0.813942
0.745666
0.733514
0.739493
0.762967
0.832867
0.792706
0.807351
0.763148
0.753138
0.834107
0.823463
0.823897
0.784557
0.833191
0.831412
0.831769
0.830485
0.805363
0.811917
0.80831
0.704577
0.803814
0.817459
0.737694
0.81208
0.808875
0.832647
0.794287
0.811732
0.799433
0.833974
0.833512
0.833034
0.800536
0.731988
0.748682
0.804795
0.815714
0.689414
0.806916
0.812421
0.821744
0.765384
0.809021
0.830383
0.828092
0.831874
0.808652
0.803285
0.781528
0.809057
0.851364
0.82472
0.720114
0.807428
0.741429
0.718319
0.805721
0.652031
0.783408
0.793973
0.813702
0.832852
0.835051
0.830983
0.822832
0.833042
0.838371
0.804669
0.781545
0.815076
0.700455
0.832174
0.77361
0.755392
0.727293
0.831515
0.859372
0.832185
0.813729
0.826831
0.832695
0.795539
0.777192
0.824288
0.715032
0.797878
0.850293
0.83065
0.805036
0.869458
0.817999
0.828959
0.831909
0.834723
0.689559
0.81118
0.762396
0.799717
0.74929
0.828999
0.813566
0.799586
0.690602
0.833433
0.833888
0.828854
0.80537
0.807575
0.835544
0.806772
0.74665
0.798234
0.804157
0.833185
0.827754
0.827252
0.876
0.838347
0.813842
0.841764
0.714341
0.835089
0.846324
0.831444
0.664631
0.832778
0.813727
0.85305
0.83373
0.805151
0.641219
0.814647
0.735848
0.810305
0.80438
0.81714
0.832835
0.829311
0.808813
0.816463
0.830674
0.757919
0.868412
0.803235
0.857137
0.830619
0.661403
0.806906
0.803275
0.827602
0.831884
0.712807
0.804743
0.814107
0.817584
0.811399
0.799755
0.832221
0.831293
0.809392
0.808655
0.833506
0.843718
0.762163
0.81051
0.814653
0.827993
0.707992
0.809224
0.828489
0.801473
0.807796
0.660894
0.84248
0.782876
0.834014
0.831824
0.840486
0.852816
0.830177
0.828807
0.748421
0.801229
0.8578
0.822752
0.729623
0.802272
0.804186
0.87657
0.852883
0.832449
0.803149
0.814875
0.770532
0.831705
0.818577
0.639343
0.8055
0.761464
0.764411
0.806504
0.82796
0.79028
0.826337
0.832231
0.841794
0.829038
0.805404
0.821207
0.750509
0.757116
0.807339
0.821426
0.831993
0.80555
0.765946
0.729306
0.832342
0.819861
0.818991
0.646485
0.831699
0.82681
0.836046
0.805594
0.820336
0.831602
0.816845
0.847928
0.805446
0.817386
0.833857
0.832205
0.827247
0.830708
0.733756
0.793355
0.806223
0.805538
0.854965
0.804219
0.813493
0.669355
0.820965
0.829022
0.815418
0.832481
0.809719
0.831644
0.744877
0.851474
0.720735
0.803003
0.831861
0.811564
0.715386
0.688819
0.82036
0.809716
0.808222
0.799457
0.804062
0.839259
0.827338
0.808531
0.805038
0.826972
0.657192
0.82891
0.806636
0.740214
0.828625
0.699694
0.798976
0.830659
0.844565
0.819545
0.830505
0.806278
0.807253
0.807995
0.804135
0.828979
0.815813
0.823694
0.805243
0.767253
0.808102
0.831057
0.830262
0.82677
0.828753
0.831588
0.833137
0.84124
0.766168
0.811004
0.831494
0.805819
0.633512
0.730411
0.816243
0.831992
0.832191
0.789735
0.813349
0.817756
0.806845
0.804886
0.805988
0.829519
0.830628
0.83299
0.799035
0.820104
0.819359
0.671756
0.786385
0.776184
0.815988
0.752198
0.728051
0.799349
0.780824
0.8379
0.834102
0.833147
0.813662
0.630923
0.820545
0.637676
0.740417
0.83601
0.873846
0.768095
0.830796
0.859438
0.725621
0.830519
0.814454
0.819568
0.813156
0.688476
0.861094
0.751797
0.761905
0.808335
0.808125
0.801191
0.837067
0.832918
0.721334
0.825171
0.803613
0.737614
0.848013
0.80045
0.665171
0.785536
0.831536
0.821682
0.832747
0.792747
0.758658
0.787805
0.840767
0.712206
0.831927
0.828819
0.837735
0.779051
0.834238
0.731755
0.808163
0.690695
0.722553
0.810811
0.827368
0.802805
0.834054
0.831918
0.832569
0.833344
0.645867
0.803454
0.834211
0.759297
0.814848
0.83175
0.829412
0.72901
0.703675
0.757457
0.6864
0.813177
0.715085
0.832173
0.802921
0.833027
0.840719
0.702231
0.815094
0.83115
0.839676
0.766087
0.796004
0.774128
0.785898
0.825038
0.677579
0.685485
0.832594
0.809209
0.824748
0.808014
0.745678
0.792529
0.754799
0.770466
0.802722
0.841651
0.816939
0.713382
0.835118
0.827614
0.827062
0.733145
0.704035
0.718166
0.876749
0.831701
0.829469
0.658213
0.732284
0.67705
0.807203
0.801859
0.70053
0.81675
0.832446
0.773256
0.803157
0.756205
0.830798
0.715083
0.833837
0.81599
0.813677
0.804395
0.833405
0.760977
0.83211
0.833757
0.790689
0.666722
0.821301
0.826123
0.776591
0.83335
0.758465
0.806794
0.835396
0.714325
0.832053
0.803529
0.815623
0.656461
0.68957
0.755549
0.810455
0.827159
0.826465
0.833356
0.819787
0.831405
0.725262
0.802905
0.827391
0.836887
0.725099
0.759585
0.829602
0.822419
0.727431
0.819744
0.787115
0.7155
0.816678
0.718998
0.816458
0.692516
0.804116
0.743144
0.710303
0.825943
0.795137
0.763577
0.668042
0.847401
0.825804
0.828347
0.783811
0.83356
0.801831
0.797908
0.802366
0.806311
0.82802
0.762426
0.8148
0.802295
0.832357
0.650058
0.804806
0.826563
0.827153
0.825983
0.826151
0.766363
0.814007
0.777721
0.770461
0.831827
0.706338
0.831577
0.830962
0.804529
0.829216
0.830384
0.754074
0.777948
0.834027
0.798323
0.808023
0.829879
0.878864
0.830119
0.811725
0.831789
0.832483
0.79991
0.832221
0.828867
0.785783
0.742013
0.849439
0.80393
0.804603
0.827046
0.79326
0.831819
0.829099
0.83226
0.83173
0.875241
0.804615
0.809034
0.832045
0.804609
0.831523
0.811432
0.761861
0.83123
0.83281
0.764138
0.748007
0.830894
0.846687
0.826783
0.715944
0.834045
0.7859
0.822405
0.805251
0.751919
0.804232
0.8008
0.8202
0.829475
0.723702
0.744271
0.805051
0.795818
0.805597
0.832782
0.735215
0.833625
0.805633
0.803717
0.831358
0.832392
0.747754
0.831307
0.778499
0.806699
0.836508
0.806154
0.787969
0.80464
0.801511
0.832302
0.679777
0.834164
0.706715
0.725753
0.806343
0.83274
0.833741
0.804873
0.832511
0.819056
0.753963
0.79521
0.863226
0.804471
0.840726
0.81261
0.657614
0.772014
0.795521
0.700726
0.762649
0.648692
0.828362
0.832559
0.824646
0.80377
0.778194
0.718453
0.78233
0.762574
0.792016
0.834175
0.848057
0.832647
0.810224
0.824087
0.831657
0.806054
0.812512
0.736488
0.806294
0.770868
0.813314
0.799998
0.772541
0.831828
0.796746
0.806481
0.803869
0.847847
0.74877
0.803096
0.802431
0.808837
0.655038
0.832284
0.832356
0.826517
0.698214
0.832431
0.832009
0.800732
0.807042
0.800305
0.791034
0.811314
0.807705
0.831937
0.763956
0.816377
0.87908
0.779295
0.768494
0.819347
0.792424
0.850557
0.812585
0.795373
0.827285
0.803636
0.800111
0.81287
0.836695
0.844756
0.804562
0.639603
0.832761
0.8382
0.783063
0.840686
0.845981
0.834294
0.836725
0.812259
0.841805
0.83761
0.792825
0.813889
0.827401
0.819372
0.834598
0.80614
0.831416
0.800603
0.80801
0.811455
0.753845
0.812501
0.63968
0.831731
0.836465
0.838986
0.810539
0.822882
0.835435
0.823912
0.833386
0.847305
0.842588
0.801801
0.801749
0.833937
0.830244
0.831625
0.802797
0.810971
0.870591
0.832941
0.854659
0.830498
0.803007
0.828817
0.806431
0.837252
0.828257
0.82765
0.809446
0.756197
0.80523
0.808191
0.832062
0.807288
0.812101
0.826428
0.810655
0.807596
0.788707
0.824197
0.74064
0.819045
0.795862
0.775081
0.806493
0.817937
0.823712
0.747788
0.832555
0.819844
0.830624
0.830814
0.800839
0.831773
0.850268
0.837095
0.825214
0.816348
0.803709
0.7663
0.726653
0.833324
0.825514
0.787217
0.828328
0.81222
0.826822
0.809509
0.800794
0.787054
0.803687
0.802072
0.848748
0.831687
0.816144
0.812189
0.649041
0.757469
0.806747
0.797509
0.807912
0.830019
0.810163
0.83186
0.790239
0.833062
0.808733
0.826266
0.807355
0.831424
0.803972
0.831966
0.825601
0.830749
0.827034
0.747316
0.82788
0.832112
0.645599
0.833114
0.80311
0.806557
0.864593
0.830527
0.825832
0.876708
0.831134
0.831435
0.831764
0.83221
0.828854
0.777974
0.834052
0.804624
0.805666
0.827388
0.83177
0.831801
0.832478
0.826661
0.827333
0.807418
0.826086
0.813556
0.820016
0.824441
0.832678
0.825743
0.83199
0.813978
0.707347
0.703982
0.804766
0.813427
0.80594
0.825629
0.831342
0.830132
0.805064
0.808423
0.803211
0.802883
0.830609
0.850784
0.832211
0.816354
0.831636
0.832024
0.849208
0.830701
0.825636
0.794632
0.829602
0.811171
0.805476
0.79941
0.823602
0.831836
0.832576
0.830774
0.839419
0.818477
0.830509
0.830119
0.825963
0.806186
0.80617
0.809486
0.826952
0.83226
0.80356
0.81534
0.831685
0.826811
0.803585
0.675268
0.807489
0.807248
0.821983
0.805359
0.806188
0.763842
0.849038
0.807395
0.801689
0.843967
0.839862
0.814798
0.837125
0.802707
0.831747
0.829488
0.832223
0.806355
0.831988
0.760885
0.834319
0.816425
0.802544
0.817743
0.833206
0.804979
0.806993
0.796621
0.819685
0.832477
0.832386
0.832017
0.8105
0.831812
0.831662
0.835156
0.82627
0.84637
0.810043
0.716956
0.831315
0.847114
0.832776
0.80844
0.80163
0.806777
0.828163
0.818718
0.831317
0.760106
0.766258
0.803436
0.807258
0.831212
0.829808
0.812031
0.705627
0.728663
0.812437
0.77799
0.832051
0.724851
0.804523
0.746649
0.804054
0.824561
0.804233
0.83171
0.828739
0.802701
0.812982
0.806387
0.833744
0.83227
0.804107
0.806624
0.830346
0.833452
0.769247
0.832418
0.806521
0.790991
0.832336
0.80676
0.81534
0.833901
0.832389
0.843764
0.805785
0.800361
0.832405
0.773133
0.810881
0.833692
0.805393
0.831039
0.844398
0.805286
0.850392
0.818927
0.801324
0.829566
0.8041
0.854555
0.796446
0.805252
0.831996
0.841363
0.812697
0.830958
0.831727
0.80514
0.805244
0.83005
0.79429
0.831369
0.831965
0.709333
0.831923
0.731956
0.822102
0.846119
0.835343
0.810046
0.832784
0.832969
0.746867
0.833528
0.804471
0.802682
0.803214
0.83101
0.869108
0.803402
0.803788
0.793929
0.848971
0.831859
0.83222
0.828373
0.763075
0.815019
0.804042
0.749069
0.802887
0.734863
0.825917
0.803815
0.70458
0.883686
0.72239
0.780833
0.805714
0.765647
0.812781
0.801042
0.804337
0.692159
0.801635
0.79336
0.801551
0.761266
0.83195
0.834386
0.887567
0.813939
0.835408
0.680548
0.802968
0.798427
0.770108
0.772864
0.78701
0.740258
0.806441
0.802006
0.806554
0.779917
0.669528
0.815953
0.661849
0.831589
0.830754
0.816064
0.753446
0.821727
0.808888
0.830751
0.792184
0.821017
0.801805
0.824964
0.736228
0.803794
0.745385
0.803559
0.800639
0.730861
0.807128
0.833629
0.833465
0.804892
0.775762
0.832726
0.744929
0.715321
0.803886
0.833577
0.878673
0.833806
0.831131
0.883827
0.869863
0.838187
0.731279
0.804209
0.816461
0.825946
0.810202
0.726565
0.741152
0.72624
0.804155
0.717921
0.78286
0.801063
0.694364
0.704745
0.843096
0.788094
0.764593
0.839805
0.775998
0.778464
0.692189
0.75346
0.798043
0.829874
0.873682
0.844883
0.832157
0.806355
0.8014
0.741691
0.832816
0.71847
0.803642
0.833834
0.791376
0.776943
0.812705
0.795745
0.806353
0.802576
0.827024
0.816295
0.871712
0.680467
0.653614
0.804322
0.81763
0.729534
0.814831
0.804646
0.844931
0.806354
0.803254
0.650936
0.669702
0.813967
0.827973
0.833063
0.75976
0.804315
0.821056
0.720951
0.827837
0.80408
0.833113
0.803862
0.810698
0.8031
0.833574
0.80368
0.821786
0.805694
0.867306
0.833928
0.803307
0.73368
0.713579
0.831705
0.65954
0.823361
0.814722
0.843726
0.828095
0.805276
0.815449
0.832599
0.828928
0.834251
0.802565
0.856596
0.862412
0.805903
0.708645
0.820922
0.826678
0.803143
0.804861
0.830545
0.764065
0.803916
0.834134
0.831362
0.829788
0.832007
0.779851
0.757097
0.80433
0.842334
0.807002
0.825178
0.808811
0.807938
0.80945
0.833099
0.813512
0.80129
0.811744
0.810505
0.828813
0.811345
0.810731
0.831627
0.811408
0.803995
0.832335
0.804326
0.803645
0.810055
0.812443
0.832295
0.786015
0.809365
0.804658
0.834433
0.800961
0.806559
0.811942
0.840667
0.808819
0.709414
0.802305
0.830021
0.808195
0.819467
0.778421
0.830326
0.770522
0.806264
0.803116
0.807101
0.823466
0.857661
0.807651
0.803997
0.758535
0.838941
0.833809
0.832492
0.828983
0.826935
0.762606
0.831624
0.75526
0.806045
0.837431
0.803822
0.739567
0.83614
0.825995
0.831912
0.834896
0.832594
0.785569
0.831575
0.71264
0.749468
0.833771
0.833855
0.728702
0.832459
0.688659
0.833105
0.811572
0.83173
0.804181
0.810254
0.826564
0.835722
0.829136
0.680315
0.831691
0.849934
0.791463
0.853576
0.803562
0.746542
0.846946
0.832519
0.844475
0.735726
0.731744
0.842272
0.71891
0.840421
0.833471
0.838815
0.811641
0.837497
0.79604
0.836374
0.835361
0.746483
0.870822
0.834528
0.833862
0.82775
0.775954
0.804484
0.653997
0.815708
0.833326
0.830851
0.810449
0.83659
0.834476
0.799507
0.832884
0.804744
0.727713
0.799495
0.838001
0.832722
0.750159
0.811952
0.825823
0.664429
0.832451
0.832316
0.80875
0.81457
0.755841
0.828187
0.804414
0.805889
0.802012
0.807114
0.804758
0.801573
0.803915
0.831821
0.823702
0.830675
0.637234
0.895495
0.738026
0.803256
0.764445
0.799249
0.834376
0.832091
0.832323
0.658906
0.831086
0.821663
0.807235
0.829516
0.84038
0.84296
0.792035
0.802595
0.804237
0.758789
0.773652
0.832928
0.77794
0.819698
0.832185
0.832498
0.818014
0.804104
0.79115
0.816543
0.831843
0.749774
0.81505
0.831949
0.832039
0.812134
0.813853
0.782701
0.833573
0.812518
0.805206
0.811632
0.672172
0.810599
0.807824
0.80987
0.833318
0.848621
0.808372
0.791128
0.809091
0.782619
0.8327
0.81889
0.832006
0.834449
0.852916
0.80588
0.760967
0.824169
0.83297
0.748481
0.804572
0.831843
0.77202
0.832067
0.633469
0.810847
0.709657
0.805034
0.820174
0.8282
0.831861
0.807496
0.827063
0.831108
0.803606
0.809007
0.8477
0.831595
0.802257
0.829451
0.806387
0.805907
0.802053
0.80398
0.819111
0.83309
0.804489
0.787691
0.831931
0.821915
0.813624
0.834402
0.644478
0.80943
0.818417
0.832705
0.80149
0.769128
0.731621
0.83172
0.834214
0.836506
0.803496
0.656694
0.784835
0.699704
0.831802
0.756063
0.831623
0.834465
0.739908
0.801571
0.842768
0.773412
0.804786
0.804927
0.830891
0.81214
0.72174
0.802684
0.654023
0.804969
0.8045
0.80561
0.675787
0.804234
0.806031
0.806215
0.746144
0.755367
0.806288
0.789397
0.832259
0.742141
0.728894
0.832612
0.805774
0.76859
0.859506
0.832676
0.831473
0.700306
0.806591
0.802043
0.802291
0.80357
0.69813
0.805839
0.832581
0.688945
0.712642
0.811769
0.801894
0.833195
0.831269
0.831079
0.831492
0.831368
0.806827
0.832939
0.830809
0.822404
0.833388
0.806199
0.804008
0.815132
0.760254
0.814195
0.830676
0.867492
0.820585
0.678173
0.791428
0.804064
0.787056
0.831635
0.827261
0.83758
0.818915
0.86927
0.805952
0.830774
0.656232
0.820484
0.841242
0.803914
0.833242
0.67053
0.829441
0.804453
0.831604
0.803328
0.831592
0.831532
0.76527
0.80751
0.803856
0.842643
0.867017
0.824174
0.831955
0.738793
0.767961
0.803902
0.805397
0.816922
0.831585
0.801102
0.804999
0.831975
0.819132
0.81189
0.752002
0.804235
0.830491
0.826566
0.782745
0.77081
0.825063
0.803363
0.862772
0.738345
0.842439
0.824697
0.725785
0.805684
0.830647
0.79518
0.801848
0.806272
0.831787
0.791675
0.783444
0.831117
0.713114
0.800114
0.781694
0.832124
0.831854
0.804383
0.800493
0.759682
0.770719
0.786385
0.832651
0.832285
0.818491
0.700602
0.81344
0.807684
0.787288
0.815306
0.830283
0.80543
0.807419
0.701155
0.808337
0.809052
0.858204
0.806665
0.813817
0.841591
0.809821
0.824462
0.858642
0.680932
0.807224
0.831904
0.809844
0.809238
0.810367
0.808273
0.808671
0.807659
0.810697
0.8109
0.748983
0.810831
0.811671
0.817759
0.829688
0.812847
0.829187
0.804
0.806684
0.830354
0.829989
0.825116
0.803985
0.821173
0.818024
0.820745
0.831151
0.73759
0.830852
0.840281
0.832344
0.860806
0.764846
0.821081
0.833911
0.804977
0.689769
0.805539
0.784935
0.834068
0.661528
0.832155
0.8388
0.832837
0.822946
0.803892
0.831721
0.828255
0.806861
0.778296
0.831525
0.77187
0.640311
0.833762
0.707115
0.728817
0.824941
0.837417
0.837818
0.831498
0.854609
0.679593
0.878394
0.810644
0.836182
0.834991
0.828308
0.721281
0.833436
0.833928
0.831656
0.805234
0.782249
0.826622
0.647642
0.824482
0.850892
0.806225
0.847882
0.833132
0.80392
0.71595
0.846753
0.832506
0.845215
0.803373
0.825543
0.803829
0.843052
0.804863
0.825918
0.841079
0.839361
0.826363
0.835727
0.834877
0.750298
0.715245
0.669451
0.837927
0.836784
0.781611
0.774525
0.819706
0.835731
0.84979
0.667811
0.834813
0.834074
0.833499
0.832634
0.809697
0.825172
0.715933
0.767248
0.833033
0.799889
0.872017
0.893063
0.787906
0.816731
0.696219
0.839255
0.759981
0.754033
0.823599
0.807869
0.792943
0.720237
0.803326
0.8328
0.796864
0.75032
0.813314
0.821689
0.804858
0.72773
0.831306
0.800479
0.831995
0.842405
0.81975
0.808846
0.831775
0.831864
0.794624
0.807426
0.749149
0.844019
0.799865
0.824507
0.791618
0.807994
0.735369
0.801963
0.818105
0.816694
0.81547
0.813927
0.812737
0.811872
0.810011
0.808595
0.810937
0.758915
0.809295
0.802488
0.801802
0.805853
0.847598
0.75077
0.805145
0.78665
0.886953
0.857293
0.803178
0.755008
0.807189
0.804436
0.74597
0.805976
0.804841
0.761456
0.808787
0.803721
0.799726
0.803743
0.756708
0.794867
0.816384
0.770066
0.777103
0.786602
0.804204
0.831049
0.812991
0.778319
0.766933
0.804057
0.832386
0.805468
0.803458
0.802362
0.928356
0.865333
0.830156
0.834328
0.735878
0.851484
0.762852
0.830411
0.824977
0.900218
0.833919
0.799129
0.64748
0.833682
0.799381
0.83345
0.799909
0.851554
0.650517
0.841824
0.80525
0.809837
0.8109
0.807638
0.858587
0.803142
0.831501
0.721765
0.666309
0.691499
0.833237
0.637362
0.799731
0.748953
0.84806
0.82027
0.620378
0.812023
0.832612
0.83286
0.73788
0.804734
0.617193
0.799893
0.832841
0.800143
0.804703
0.800504
0.832489
0.840982
0.80392
0.801562
0.832098
0.801947
0.831998
0.8191
0.80235
0.831918
0.830726
0.831864
0.802721
0.831836
0.703318
0.803034
0.831836
0.804499
0.803341
0.831847
0.733399
0.833342
0.799889
0.834224
0.80506
0.824067
0.842093
0.867059
0.802556
0.804736
0.832062
0.820085
0.804274
0.803797
0.865877
0.821762
0.831978
0.824548
0.856017
0.838932
0.830966
0.830187
0.853813
0.833494
0.806166
0.832557
0.820652
0.806684
0.832887
0.80324
0.816722
0.790893
0.81192
0.831181
0.81596