# vtk DataFile Version 1.0
unstructured grid
ascii
DATASET UNSTRUCTURED_GRID
points 3920 float
-1 0 0
-1 1 0
2 0 0
2 1 0
0 0 0
1 0 0
-1 1 0.1
-1 0 0.1
0 0 0.1
1 0 0.1
2 0 0.1
2 1 0.1
-0.98 0 0
-0.96 0 0
-0.94 0 0
-0.92 0 0
-0.9 0 0
-0.88 0 0
-0.86 0 0
-0.84 0 0
-0.82 0 0
-0.8 0 0
-0.78 0 0
-0.76 0 0
-0.74 0 0
-0.72 0 0
-0.7 0 0
-0.68 0 0
-0.66 0 0
-0.64 0 0
-0.62 0 0
-0.6 0 0
-0.58 0 0
-0.56 0 0
-0.54 0 0
-0.52 0 0
-0.5 0 0
-0.48 0 0
-0.46 0 0
-0.44 0 0
-0.42 0 0
-0.4 0 0
-0.38 0 0
-0.36 0 0
-0.34 0 0
-0.32 0 0
-0.3 0 0
-0.28 0 0
-0.26 0 0
-0.24 0 0
-0.22 0 0
-0.2 0 0
-0.18 0 0
-0.16 0 0
-0.14 0 0
-0.12 0 0
-0.1 0 0
-0.08 0 0
-0.06 0 0
-0.04 0 0
-0.02 0 0
1.02 0 0
1.04 0 0
1.06 0 0
1.08 0 0
1.1 0 0
1.12 0 0
1.14 0 0
1.16 0 0
1.18 0 0
1.2 0 0
1.22 0 0
1.24 0 0
1.26 0 0
1.28 0 0
1.3 0 0
1.32 0 0
1.34 0 0
1.36 0 0
1.38 0 0
1.4 0 0
1.42 0 0
1.44 0 0
1.46 0 0
1.48 0 0
1.5 0 0
1.52 0 0
1.54 0 0
1.56 0 0
1.58 0 0
1.6 0 0
1.62 0 0
1.64 0 0
1.66 0 0
1.68 0 0
1.7 0 0
1.72 0 0
1.74 0 0
1.76 0 0
1.78 0 0
1.8 0 0
1.82 0 0
1.84 0 0
1.86 0 0
1.88 0 0
1.9 0 0
1.92 0 0
1.94 0 0
1.96 0 0
1.98 0 0
2 0.0199133 0
2 0.0414128 0
2 0.0646247 0
2 0.0896856 0
2 0.116743 0
2 0.145955 0
2 0.177494 0
2 0.211545 0
2 0.248309 0
2 0.288001 0
2 0.330854 0
2 0.377121 0
2 0.427073 0
2 0.481004 0
2 0.539231 0
2 0.602096 0
2 0.669968 0
2 0.743247 0
2 0.822362 0
2 0.907779 0
1.9 1 0
1.8 1 0
1.7 1 0
1.6 1 0
1.5 1 0
1.4 1 0
1.3 1 0
1.2 1 0
1.1 1 0
1 1 0
0.9 1 0
0.8 1 0
0.7 1 0
0.6 1 0
0.5 1 0
0.4 1 0
0.3 1 0
0.2 1 0
0.1 1 0
3.69793e-12 1 0
-0.1 1 0
-0.2 1 0
-0.3 1 0
-0.4 1 0
-0.5 1 0
-0.6 1 0
-0.7 1 0
-0.8 1 0
-0.9 1 0
-1 0.907779 0
-1 0.822362 0
-1 0.743247 0
-1 0.669968 0
-1 0.602096 0
-1 0.539231 0
-1 0.481004 0
-1 0.427073 0
-1 0.377121 0
-1 0.330854 0
-1 0.288001 0
-1 0.248309 0
-1 0.211545 0
-1 0.177494 0
-1 0.145955 0
-1 0.116743 0
-1 0.0896856 0
-1 0.0646247 0
-1 0.0414128 0
-1 0.0199133 0
0.0182781 0.00745351 0
0.0366672 0.0146286 0
0.0551632 0.0215237 0
0.0737617 0.0281372 0
0.0924585 0.0344675 0
0.111249 0.0405131 0
0.13013 0.0462728 0
0.149095 0.0517451 0
0.168142 0.0569289 0
0.187265 0.0618228 0
0.20646 0.0664258 0
0.225723 0.0707368 0
0.245049 0.0747549 0
0.264434 0.078479 0
0.283873 0.0819084 0
0.303362 0.0850422 0
0.322896 0.0878798 0
0.342472 0.0904204 0
0.362083 0.0926635 0
0.381726 0.0946086 0
0.401397 0.0962552 0
0.42109 0.0976029 0
0.440802 0.0986514 0
0.460527 0.0994006 0
0.480261 0.0998501 0
0.5 0.1 0
0.519739 0.0998501 0
0.539473 0.0994006 0
0.559198 0.0986514 0
0.57891 0.0976029 0
0.598603 0.0962552 0
0.618274 0.0946086 0
0.637917 0.0926635 0
0.657528 0.0904204 0
0.677104 0.0878798 0
0.696638 0.0850422 0
0.716127 0.0819084 0
0.735566 0.078479 0
0.754951 0.0747549 0
0.774277 0.0707368 0
0.79354 0.0664258 0
0.812735 0.0618228 0
0.831858 0.0569289 0
0.850905 0.0517451 0
0.86987 0.0462728 0
0.888751 0.0405131 0
0.907542 0.0344675 0
0.926238 0.0281372 0
0.944837 0.0215237 0
0.963333 0.0146286 0
0.981722 0.00745351 0
-1 0.907779 0.1
-1 0.822362 0.1
-1 0.743247 0.1
-1 0.669968 0.1
-1 0.602096 0.1
-1 0.539231 0.1
-1 0.481004 0.1
-1 0.427073 0.1
-1 0.377121 0.1
-1 0.330854 0.1
-1 0.288001 0.1
-1 0.248309 0.1
-1 0.211545 0.1
-1 0.177494 0.1
-1 0.145955 0.1
-1 0.116743 0.1
-1 0.0896856 0.1
-1 0.0646247 0.1
-1 0.0414128 0.1
-1 0.0199133 0.1
-0.98 0 0.1
-0.96 0 0.1
-0.94 0 0.1
-0.92 0 0.1
-0.9 0 0.1
-0.88 0 0.1
-0.86 0 0.1
-0.84 0 0.1
-0.82 0 0.1
-0.8 0 0.1
-0.78 0 0.1
-0.76 0 0.1
-0.74 0 0.1
-0.72 0 0.1
-0.7 0 0.1
-0.68 0 0.1
-0.66 0 0.1
-0.64 0 0.1
-0.62 0 0.1
-0.6 0 0.1
-0.58 0 0.1
-0.56 0 0.1
-0.54 0 0.1
-0.52 0 0.1
-0.5 0 0.1
-0.48 0 0.1
-0.46 0 0.1
-0.44 0 0.1
-0.42 0 0.1
-0.4 0 0.1
-0.38 0 0.1
-0.36 0 0.1
-0.34 0 0.1
-0.32 0 0.1
-0.3 0 0.1
-0.28 0 0.1
-0.26 0 0.1
-0.24 0 0.1
-0.22 0 0.1
-0.2 0 0.1
-0.18 0 0.1
-0.16 0 0.1
-0.14 0 0.1
-0.12 0 0.1
-0.1 0 0.1
-0.08 0 0.1
-0.06 0 0.1
-0.04 0 0.1
-0.02 0 0.1
0.0182781 0.00745351 0.1
0.0366672 0.0146286 0.1
0.0551632 0.0215237 0.1
0.0737617 0.0281372 0.1
0.0924585 0.0344675 0.1
0.111249 0.0405131 0.1
0.13013 0.0462728 0.1
0.149095 0.0517451 0.1
0.168142 0.0569289 0.1
0.187265 0.0618228 0.1
0.20646 0.0664258 0.1
0.225723 0.0707368 0.1
0.245049 0.0747549 0.1
0.264434 0.078479 0.1
0.283873 0.0819084 0.1
0.303362 0.0850422 0.1
0.322896 0.0878798 0.1
0.342472 0.0904204 0.1
0.362083 0.0926635 0.1
0.381726 0.0946086 0.1
0.401397 0.0962552 0.1
0.42109 0.0976029 0.1
0.440802 0.0986514 0.1
0.460527 0.0994006 0.1
0.480261 0.0998501 0.1
0.5 0.1 0.1
0.519739 0.0998501 0.1
0.539473 0.0994006 0.1
0.559198 0.0986514 0.1
0.57891 0.0976029 0.1
0.598603 0.0962552 0.1
0.618274 0.0946086 0.1
0.637917 0.0926635 0.1
0.657528 0.0904204 0.1
0.677104 0.0878798 0.1
0.696638 0.0850422 0.1
0.716127 0.0819084 0.1
0.735566 0.078479 0.1
0.754951 0.0747549 0.1
0.774277 0.0707368 0.1
0.79354 0.0664258 0.1
0.812735 0.0618228 0.1
0.831858 0.0569289 0.1
0.850905 0.0517451 0.1
0.86987 0.0462728 0.1
0.888751 0.0405131 0.1
0.907542 0.0344675 0.1
0.926238 0.0281372 0.1
0.944837 0.0215237 0.1
0.963333 0.0146286 0.1
0.981722 0.00745351 0.1
1.02 0 0.1
1.04 0 0.1
1.06 0 0.1
1.08 0 0.1
1.1 0 0.1
1.12 0 0.1
1.14 0 0.1
1.16 0 0.1
1.18 0 0.1
1.2 0 0.1
1.22 0 0.1
1.24 0 0.1
1.26 0 0.1
1.28 0 0.1
1.3 0 0.1
1.32 0 0.1
1.34 0 0.1
1.36 0 0.1
1.38 0 0.1
1.4 0 0.1
1.42 0 0.1
1.44 0 0.1
1.46 0 0.1
1.48 0 0.1
1.5 0 0.1
1.52 0 0.1
1.54 0 0.1
1.56 0 0.1
1.58 0 0.1
1.6 0 0.1
1.62 0 0.1
1.64 0 0.1
1.66 0 0.1
1.68 0 0.1
1.7 0 0.1
1.72 0 0.1
1.74 0 0.1
1.76 0 0.1
1.78 0 0.1
1.8 0 0.1
1.82 0 0.1
1.84 0 0.1
1.86 0 0.1
1.88 0 0.1
1.9 0 0.1
1.92 0 0.1
1.94 0 0.1
1.96 0 0.1
1.98 0 0.1
2 0.0199133 0.1
2 0.0414128 0.1
2 0.0646247 0.1
2 0.0896856 0.1
2 0.116743 0.1
2 0.145955 0.1
2 0.177494 0.1
2 0.211545 0.1
2 0.248309 0.1
2 0.288001 0.1
2 0.330854 0.1
2 0.377121 0.1
2 0.427073 0.1
2 0.481004 0.1
2 0.539231 0.1
2 0.602096 0.1
2 0.669968 0.1
2 0.743247 0.1
2 0.822362 0.1
2 0.907779 0.1
1.9 1 0.1
1.8 1 0.1
1.7 1 0.1
1.6 1 0.1
1.5 1 0.1
1.4 1 0.1
1.3 1 0.1
1.2 1 0.1
1.1 1 0.1
1 1 0.1
0.9 1 0.1
0.8 1 0.1
0.7 1 0.1
0.6 1 0.1
0.5 1 0.1
0.4 1 0.1
0.3 1 0.1
0.2 1 0.1
0.1 1 0.1
3.69793e-12 1 0.1
-0.1 1 0.1
-0.2 1 0.1
-0.3 1 0.1
-0.4 1 0.1
-0.5 1 0.1
-0.6 1 0.1
-0.7 1 0.1
-0.8 1 0.1
-0.9 1 0.1
1.08758 0.0158154 0
-0.0898513 0.0203294 0
0.0966181 0.0537636 0
0.90205 0.0548881 0
1.21055 0.0202058 0
-0.209811 0.0159577 0
1.3305 0.0176902 0
-0.33 0.0173205 0
1.45324 0.0148141 0
-0.448654 0.0159854 0
1.56842 0.0191785 0
-0.569936 0.0166364 0
0.193292 0.0805369 0
0.805051 0.0813623 0
0.709096 0.100353 0
0.288591 0.0996656 0
0.390184 0.111848 0
0.61033 0.111742 0
0.488809 0.116278 0
1.67175 0.0169692 0
-0.67 0.0169809 0
-0.955017 0.454039 0
1.95131 0.44569 0
1.74981 0.0168753 0
-0.75 0.0173205 0
-0.968032 0.266538 0
1.96871 0.266267 0
0.978232 0.0305687 0
0.0208675 0.026451 0
-0.150454 0.91842 0
1.13854 0.907437 0
1.45012 0.904365 0
-0.445923 0.908903 0
-0.853423 0.0157019 0
1.84881 0.016319 0
0.853689 0.915652 0
0.153944 0.912184 0
0.545151 0.914125 0
0.549913 0.115152 0
1.51 0.0173205 0
-0.506989 0.01651 0
1.27 0.0173205 0
1.14976 0.0173333 0
-0.268171 0.0206442 0
-0.150501 0.0153244 0
-0.391384 0.0153993 0
1.38886 0.0171544 0
-0.973694 0.161724 0
1.97441 0.162392 0
-0.945221 0.633523 0
1.94544 0.63312 0
1.91008 0.0186068 0
-0.91 0.0169616 0
-0.030664 0.0194327 0
1.03074 0.0165456 0
-0.966065 0.353575 0
1.96128 0.359765 0
1.93879 0.781254 0
-0.937057 0.781882 0
-0.980746 0.080709 0
1.9772 0.0760699 0
0.058735 0.0409372 0
0.355202 0.913001 0
0.86356 0.0661005 0
0.134223 0.0651111 0
0.941972 0.0397386 0
-0.653034 0.915003 0
1.65328 0.904589 0
0.770126 0.0881325 0
0.232946 0.0902008 0
0.330582 0.105648 0
0.670612 0.108365 0
0.428707 0.116145 0
1.80993 0.016629 0
-0.810168 0.0172178 0
-0.71 0.0173205 0
1.63047 0.0175504 0
1.70842 0.0169661 0
-0.628824 0.0181787 0
-0.949815 0.0133898 0
1.95 0.0173205 0
1.85542 0.907891 0
-0.85 0.913397 0
1.9833 0.0307692 0
-0.983315 0.0309709 0
-0.750025 0.916468 0
-0.701107 0.836904 0
-0.607741 0.836428 0
-0.656448 0.759827 0
-0.572936 0.758144 0
-0.61411 0.691195 0
-0.539534 0.689068 0
-0.578542 0.626111 0
-0.507461 0.624216 0
-0.544001 0.566638 0
-0.477696 0.564279 0
-0.511582 0.51001 0
-0.451689 0.507147 0
-0.481834 0.457732 0
-0.426137 0.454624 0
-0.453236 0.407539 0
-0.398845 0.406233 0
-0.507958 0.409496 0
-0.368427 0.460177 0
-0.344602 0.405209 0
-0.315696 0.447824 0
-0.294128 0.402169 0
-0.262844 0.444518 0
-0.241968 0.388746 0
-0.209878 0.439557 0
-0.185184 0.391135 0
-0.156687 0.437338 0
-0.133719 0.390776 0
-0.104405 0.434306 0
-0.0818745 0.388334 0
-0.0528785 0.431165 0
-0.0305984 0.385639 0
-0.00180552 0.427863 0
0.0194564 0.382608 0
0.0485809 0.42449 0
0.0701962 0.37973 0
0.0985483 0.421145 0
0.119893 0.377339 0
0.147837 0.417911 0
0.172552 0.36751 0
0.197018 0.412597 0
0.221203 0.37141 0
0.24512 0.409646 0
-0.48178 0.364657 0
-0.531053 0.364782 0
-0.0599102 0.344151 0
-0.324909 0.359566 0
0.266181 0.368462 0
0.292132 0.407649 0
0.311992 0.365779 0
0.338918 0.404821 0
0.357567 0.355909 0
0.384723 0.40053 0
0.404675 0.359681 0
0.430617 0.398558 0
0.450457 0.35827 0
0.474237 0.395182 0
0.496746 0.34898 0
0.520548 0.397931 0
0.542071 0.353121 0
0.566011 0.389914 0
0.585061 0.350856 0
0.609352 0.38696 0
0.629069 0.348168 0
0.655979 0.391217 0
0.67472 0.346182 0
0.699346 0.381414 0
0.719333 0.341965 0
0.743718 0.377547 0
0.764028 0.339036 0
0.788201 0.373582 0
0.807659 0.336101 0
0.832821 0.372249 0
0.852309 0.334017 0
0.877785 0.370339 0
0.897875 0.331141 0
0.922904 0.366281 0
0.943173 0.327335 0
0.968282 0.363358 0
0.989029 0.324222 0
1.01391 0.361511 0
1.03465 0.321428 0
1.05949 0.358447 0
1.08389 0.312052 0
1.10575 0.355104 0
1.12889 0.31562 0
1.15067 0.353235 0
1.17157 0.312819 0
1.19626 0.349369 0
1.21618 0.309863 0
1.2416 0.346914 0
1.26131 0.30715 0
1.28691 0.344312 0
1.30571 0.303752 0
1.33144 0.341222 0
1.35018 0.300911 0
1.3758 0.338308 0
1.39501 0.298931 0
1.42015 0.335235 0
1.43904 0.296349 0
1.46355 0.330194 0
1.48256 0.293347 0
1.50685 0.326967 0
1.52589 0.29055 0
1.54996 0.325305 0
1.56909 0.287929 0
[...]
CELL_DATA 3694
SCALARS rho float
LOOKUP_TABLE default
0.926772
0.917339
0.867776
0.945475
0.951889
0.86999
0.899313
0.84891
0.94637
0.839052
0.950308
0.950295
0.942876
0.903346
0.848761
0.929362
0.833087
0.844015
0.930674
0.9569
0.949125
0.953426
0.923328
0.871111
0.923069
0.942588
0.920182
0.896063
0.935804
0.810373
0.8098
0.919476
0.843733
0.927146
0.855598
0.940962
0.952576
0.953036
0.951563
0.927815
0.86386
0.918165
0.934252
0.927947
0.928156
0.945286
0.868236
0.91555
0.915463
0.923913
0.875705
0.822494
0.955945
0.907975
0.91651
0.953174
0.853994
0.950342
0.934895
0.931206
0.91372
0.94392
0.956504
0.843882
0.957913
0.954633
0.896348
0.944684
0.918462
0.961189
0.815582
0.900431
0.953412
0.835167
0.953441
0.82398
0.929481
0.820249
0.947906
0.872089
0.922196
0.920951
0.812194
0.927401
0.946461
0.82222
0.949983
0.922161
0.919645
0.950244
0.941888
0.837521
0.923697
0.948393
0.913086
0.885296
0.922426
0.950818
0.946574
0.955957
0.946691
0.931055
0.916264
0.946283
0.946091
0.943935
0.950732
0.887524
0.920167
0.948499
0.903695
0.923786
0.916555
0.94957
0.963673
0.83454
0.942209
0.946461
0.814289
0.832726
0.925706
0.937175
0.951311
0.935103
0.912002
0.923061
0.950636
0.934925
0.954673
0.923958
0.925814
0.927863
0.9006
0.913865
0.869513
0.941421
0.872512
0.813442
0.808968
0.946877
0.948012
0.92521
0.950132
0.945198
0.92354
0.916388
0.913635
0.814806
0.948331
0.912215
0.921136
0.821758
0.906503
0.937139
0.918669
0.931424
0.920533
0.93859
0.905122
0.915236
0.937652
0.909636
0.911665
0.927412
0.958236
0.905356
0.916986
0.844094
0.880072
0.91373
0.844202
0.916799
0.961168
0.904752
0.905075
0.917346
0.951802
0.955903
0.951605
0.919917
0.948472
0.919469
0.954464
0.921811
0.909891
0.834303
0.908456
0.953268
0.874827
0.959463
0.927913
0.913604
0.94345
0.815702
0.923188
0.943685
0.915341
0.956009
0.92714
0.921638
0.922564
0.940614
0.955503
0.937119
0.925469
0.946206
0.918774
0.861402
0.927354
0.825834
0.922685
0.942014
0.887836
0.90753
0.954186
0.931956
0.955279
0.929678
0.954156
0.950804
0.948179
0.943573
0.93209
0.923289
0.954523
0.909148
0.918778
0.946392
0.959565
0.9543
0.945699
0.930961
0.921122
0.950677
0.955544
0.9505
0.925848
0.942205
0.918672
0.939934
0.888479
0.946511
0.916214
0.890559
0.932266
0.928478
0.814053
0.933297
0.94539
0.949873
0.929019
0.909547
0.925955
0.868402
0.910558
0.938991
0.913513
0.830958
0.953338
0.944176
0.906176
0.945906
0.93428
0.940614
0.946842
0.820021
0.925306
0.947192
0.936364
0.932516
0.809669
0.956171
0.907306
0.815955
0.909022
0.943761
0.916369
0.900558
0.950202
0.937184
0.952309
0.933336
0.921458
0.946832
0.946107
0.949195
0.922589
0.941859
0.944078
0.906421
0.814187
0.962147
0.909742
0.929883
0.955996
0.950994
0.943599
0.914793
0.912158
0.943989
0.850028
0.84029
0.92812
0.952298
0.919567
0.92312
0.903022
0.824052
0.908885
0.952726
0.954661
0.919528
0.939434
0.951668
0.936436
0.918857
0.904964
0.952877
0.953232
0.899035
0.918788
0.923809
0.925178
0.922141
0.952261
0.934547
0.856929
0.922369
0.919099
0.952864
0.946653
0.922396
0.935525
0.945397
0.945729
0.950479
0.949551
0.845926
0.889662
0.880288
0.909487
0.812068
0.909295
0.921611
0.899353
0.873808
0.952002
0.907643
0.9249
0.917725
0.943949
0.952732
0.952393
0.819828
0.921333
0.922795
0.90026
0.914908
0.915021
0.853133
0.900445
0.917635
0.923021
0.900012
0.949982
0.946263
0.950915
0.870012
0.90554
0.933501
0.888269
0.957996
0.922594
0.913962
0.865287
0.924159
0.911962
0.840844
0.903311
0.922081
0.922959
0.933317
0.943548
0.951991
0.950443
0.946401
0.952373
0.954215
0.829879
0.933786
0.925054
0.917424
0.951827
0.932494
0.927421
0.919401
0.945828
0.957787
0.951775
0.90394
0.937206
0.94638
0.917954
0.932129
0.946219
0.916072
0.899398
0.955523
0.935906
0.879459
0.962791
0.914049
0.949976
0.950656
0.934174
0.91551
0.941711
0.922498
0.810024
0.921334
0.94914
0.911547
0.939435
0.907544
0.944513
0.931422
0.946039
0.835328
0.875075
0.953481
0.849963
0.922432
0.927192
0.814566
0.944811
0.948637
0.947646
0.963916
0.954635
0.900743
0.955574
0.919975
0.953527
0.956697
0.949266
0.907031
0.946208
0.898331
0.958364
0.952848
0.837307
0.901682
0.900694
0.92376
0.887563
0.823971
0.91066
0.943786
0.928254
0.873834
0.926073
0.949488
0.922884
0.962306
0.811478
0.959375
0.949907
0.907267
0.852895
0.914368
0.946575
0.950757
0.917225
0.830977
0.900993
0.909128
0.891459
0.89322
0.947514
0.950559
0.940353
0.886755
0.952668
0.952678
0.922872
0.887949
0.905743
0.947737
0.916265
0.875302
0.949599
0.819284
0.865302
0.903987
0.955812
0.931914
0.943629
0.950847
0.954761
0.956468
0.949785
0.945877
0.922446
0.8196
0.95695
0.945824
0.919836
0.819312
0.825825
0.964069
0.958313
0.951795
0.809238
0.920509
0.93149
0.947793
0.911295
0.90201
0.842109
0.924891
0.923934
0.855129
0.946209
0.927231
0.937819
0.946926
0.936395
0.949825
0.893224
0.945862
0.920285
0.928768
0.856668
0.945678
0.951263
0.850171
0.924231
0.92289
0.944357
0.913132
0.926415
0.903517
0.945302
0.948287
0.953914
0.837746
0.945536
0.951434
0.922756
0.957209
0.842307
0.91464
0.951733
0.947528
0.948092
0.949262
0.923056
0.923916
0.941
0.835256
0.958942
0.837082
0.943088
0.907455
0.9458
0.947651
0.903309
0.951818
0.878979
0.944754
0.924122
0.958
0.913194
0.828785
0.950465
0.891723
0.91799
0.906597
0.918114
0.881388
0.870873
0.937957
0.844457
0.954521
0.948319
0.866933
0.840463
0.947426
0.905061
0.946454
0.858268
0.92198
0.949508
0.915783
0.936344
0.948947
0.953104
0.944609
0.945194
0.93918
0.941332
0.869329
0.848085
0.946126
0.905074
0.946014
0.832025
0.922612
0.881931
0.944755
0.945036
0.948372
0.94585
0.948767
0.945172
0.951628
0.92173
0.886126
0.948394
0.851611
0.901101
0.922084
0.908936
0.944471
0.946913
0.92678
0.902611
0.911909
0.86032
0.89289
0.850142
0.94917
0.949915
0.945502
0.937547
0.945562
0.944579
0.905236
0.915427
0.919801
0.944286
0.925842
0.921276
0.807812
0.923567
0.953929
0.943869
0.944846
0.919816
0.899712
0.917823
0.900932
0.922275
0.953878
0.962377
0.927439
0.950105
0.959773
0.922597
0.948853
0.923436
0.913557
0.93382
0.912558
0.960602
0.921642
0.924801
0.901784
0.866671
0.810066
0.934155
0.945921
0.921082
0.947139
0.859047
0.921914
0.957224
0.817036
0.908085
0.917528
0.948452
0.945529
0.945576
0.928269
0.922747
0.932829
0.941438
0.916648
0.94847
0.949867
0.954496
0.933648
0.953171
0.92292
0.866908
0.912428
0.919083
0.942874
0.925458
0.937693
0.943461
0.947539
0.94642
0.943689
0.904398
0.808124
0.943779
0.92799
0.910224
0.947815
0.945567
0.916667
0.911171
0.927525
0.913964
0.933967
0.919951
0.947701
0.807394
0.94546
0.941156
0.911894
0.943841
0.951004
0.951474
0.926544
0.937215
0.924065
0.935568
0.947715
0.908029
0.907364
0.946542
0.875873
0.947591
0.86354
0.925475
0.93758
0.922904
0.924119
0.835689
0.95555
0.90729
0.915753
0.953562
0.948289
0.946352
0.922388
0.910125
0.920866
0.964772
0.948575
0.95012
0.906711
0.921934
0.910225
0.86274
0.80977
0.915133
0.907425
0.949427
0.928627
0.847295
0.922901
0.946965
0.916948
0.943951
0.929551
0.942938
0.816726
0.949566
0.929296
0.947912
0.94439
0.921171
0.906735
0.919414
0.9467
0.919641
0.94349
0.921645
0.862831
0.951335
0.917293
0.951215
0.807307
0.933553
0.907037
0.909671
0.928436
0.882377
0.947251
0.946516
0.952583
0.916598
0.949007
0.91925
0.806797
0.948112
0.953834
0.919878
0.924247
0.945846
0.946507
0.922721
0.935637
0.935757
0.914214
0.913697
0.91864
0.943946
0.913215
0.819665
0.919199
0.919384
0.946947
0.921148
0.930254
0.908215
0.954974
0.936107
0.949231
0.935261
0.943659
0.812538
0.939194
0.823281
0.889439
0.949337
0.925625
0.916721
0.820853
0.951654
0.905147
0.847985
0.948134
0.948673
0.947263
0.947651
0.923293
0.943457
0.924203
0.922863
0.951485
0.918068
0.951397
0.9509
0.81995
0.949607
0.950376
0.922937
0.926089
0.952921
0.938888
0.885231
0.949845
0.964145
0.950642
0.941287
0.949882
0.946761
0.894159
0.951468
0.949948
0.91629
0.922714
0.957517
0.929508
0.819524
0.924385
0.937614
0.951005
0.934831
0.951581
0.95003
0.964098
0.82128
0.875516
0.951309
0.821957
0.948062
0.894446
0.922958
0.948243
0.952175
0.922507
0.922997
0.948389
0.939076
0.925265
0.918326
0.95305
0.921128
0.945792
0.847806
0.927648
0.817381
0.814799
0.914835
0.950178
0.917779
0.923977
0.838531
0.927908
0.860833
0.949292
0.917547
0.944594
0.847341
0.846177
0.948703
0.947047
0.925165
0.948644
0.922291
0.881976
0.939056
0.843757
0.936155
0.931511
0.930863
0.946576
0.907849
0.943769
0.912337
0.919425
0.8465
0.952121
0.944442
0.830442
0.94634
0.945163
0.92666
0.929468
0.960771
0.820516
0.951775
0.913423
0.905208
0.924596
0.93529
0.917726
0.928665
0.905815
0.947843
0.94384
0.947538
0.81343
0.925474
0.921084
0.933229
0.921317
0.919003
0.943731
0.942533
0.952015
0.890445
0.93476
0.948689
0.852366
0.898003
0.920627
0.849473
0.931308
0.902709
0.813457
0.930861
0.950061
0.915696
0.846708
0.938292
0.954638
0.922029
0.822364
0.832335
0.876975
0.903961
0.947256
0.94696
0.925104
0.916229
0.946656
0.947198
0.816104
0.856091
0.910994
0.935609
0.897175
0.940417
0.948478
0.923047
0.943716
0.964261
0.91895
0.930759
0.945107
0.927968
0.957683
0.942271
0.935063
0.949074
0.896839
0.918723
0.906316
0.954132
0.956281
0.888758
0.903137
0.952229
0.953892
0.925995
0.955263
0.954986
0.952903
0.953568
0.908492
0.954484
0.954394
0.926714
0.901864
0.946476
0.94483
0.953309
0.845516
0.934018
0.926724
0.884473
0.920907
0.92765
0.917678
0.903448
0.95108
0.954026
0.9548
0.890141
0.91946
0.953655
0.920441
0.952643
0.956879
0.95575
0.938385
0.808478
0.952973
0.949029
0.950138
0.826715
0.896842
0.962456
0.952304
0.958672
0.948499
0.824514
0.929268
0.925925
0.939645
0.947973
0.949259
0.883715
0.922897
0.832606
0.869904
0.946817
0.878436
0.943244
0.926093
0.933325
0.862918
0.922342
0.922795
0.920948
0.913636
0.935606
0.922809
0.849361
0.910971
0.935165
0.92566
0.951948
0.915205
0.9319
0.950514
0.939818
0.949102
0.943609
0.933569
0.947511
0.906624
0.823999
0.929672
0.921993
0.945133
0.937395
0.934664
0.948745
0.89247
0.947046
0.877674
0.817825
0.923927
0.812811
0.817439
0.955631
0.950579
0.905561
0.927111
0.904307
0.922945
0.889923
0.937728
0.86757
0.949466
0.882741
0.948685
0.920556
0.94562
0.872628
0.946431
0.862408
0.95095
0.810461
0.94823
0.946733
0.949244
0.947828
0.926131
0.948871
0.947749
0.903325
0.945179
0.910334
0.860787
0.961013
0.950805
0.946551
0.963968
0.948159
0.94799
0.949852
0.951623
0.949317
0.923948
0.935458
0.846254
0.837986
0.948874
0.947444
0.949681
0.946312
0.948307
0.924452
0.867226
0.947776
0.897112
0.915139
0.921837
0.946072
0.947349
0.951688
0.916181
0.911558
0.918155
0.828224
0.900293
0.840873
0.947018
0.951201
0.950422
0.830258
0.88217
0.830383
0.820719
0.950319
0.955211
0.95144
0.907474
0.951324
0.951162
0.940632
0.950683
0.922796
0.920525
0.949612
0.894075
0.86639
0.914136
0.946909
0.951371
0.945943
0.94829
0.938424
0.944575
0.945409
0.950146
0.922708
0.84358
0.847103
0.880719
0.946317
0.946541
0.82221
0.943291
0.949968
0.924105
0.834147
0.906393
0.859711
0.941675
0.918027
0.926952
0.866408
0.929631
0.957347
0.894066
0.816036
0.956113
0.955079
0.902252
0.954259
0.822828
0.950929
0.950211
0.951539
0.846272
0.951251
0.923496
0.953174
0.919211
0.825365
0.909339
0.952504
0.908645
0.852188
0.937128
0.913537
0.94673
0.947034
0.951406
0.884978
0.950084
0.948301
0.95146
0.924781
0.956741
0.880427
0.917107
0.951029
0.953632
0.952152
0.870382
0.811404
0.857378
0.949462
0.911302
0.948961
0.923503
0.926469
0.832343
0.886454
0.94857
0.95015
0.94149
0.918301
0.920352
0.897585
0.925675
0.948003
0.917851
0.822702
0.925554
0.811016
0.921283
0.816462
0.950405
0.946901
0.873912
0.894475
0.940207
0.937789
0.947234
0.83814
0.852199
0.949369
0.952571
0.931195
0.950662
0.846631
0.928605
0.946941
0.849391
0.905574
0.943634
0.946194
0.954954
0.93974
0.806433
0.946635
0.931895
0.885193
0.944037
0.884544
0.949098
0.940922
0.845178
0.956315
0.944874
0.939825
0.945386
0.824443
0.944094
0.928263
0.835169
0.948298
0.955527
0.895654
0.946033
0.948099
0.832768
0.845384
0.928564
0.937686
0.946315
0.947157
0.917924
0.947573
0.920718
0.919215
0.955292
0.953222
0.933135
0.944931
0.945644
0.926414
0.944223
0.853184
0.80855
0.826507
0.948797
0.962205
0.824366
0.835829
0.908448
0.95759
0.931268
0.951872
0.947552
0.929758
0.943364
0.811589
0.926223
0.844985
0.92271
0.946347
0.852071
0.91648
0.96584
0.917464
0.925755
0.872596
0.929857
0.897964
0.817478
0.821466
0.913841
0.884023
0.922402
0.825605
0.924084
0.951473
0.953218
0.966809
0.902538
0.932225
0.911538
0.837114
0.939161
0.927515
0.920441
0.932413
0.924528
0.864033
0.828897
0.865278
0.918542
0.909677
0.904738
0.908174
0.950895
0.948415
0.909628
0.922456
0.94579
0.940126
0.950901
0.910485
0.945205
0.880856
0.94627
0.922565
0.828124
0.926231
0.826196
0.813123
0.922559
0.860087
0.944548
0.944883
0.829229
0.93321
0.945517
0.919785
0.918317
0.81775
0.944702
0.964934
0.944268
0.946733
0.965463
0.960908
0.950753
0.917369
0.828282
0.910125
0.924028
0.941494
0.922196
0.923627
0.921349
0.830561
0.91503
0.917283
0.811445
0.915571
0.912855
0.952546
0.93589
0.930367
0.954169
0.933028
0.926074
0.910853
0.92791
0.938515
0.949793
0.962301
0.953493
0.947198
0.940813
0.813014
0.925546
0.946068
0.919298
0.930987
0.944319
0.928565
0.933332
0.942781
0.938109
0.881081
0.817291
0.946748
0.927404
0.962095
0.909255
0.903658
0.823857
0.944467
0.92331
0.903968
0.824537
0.954004
0.852015
0.807763
0.906056
0.907956
0.932766
0.946848
0.945595
0.923117
0.815875
0.945815
0.921559
0.94615
0.81641
0.943513
0.808352
0.942602
0.806865
0.943461
0.807742
0.933748
0.837822
0.961204
0.943454
0.80704
0.914991
0.920153
0.947387
0.908398
0.946855
0.901787
0.954059
0.948198
0.832378
0.911128
0.943569
0.94699
0.943431
0.806493
0.946336
0.960145
0.856713
0.9192
0.945624
0.933757
0.866653
0.826581
0.950366
0.925602
0.80909
0.950775
0.950508
0.949267
0.946772
0.93346
0.922011
0.849974
0.954083
0.870244
0.947776
0.878217
0.874156
0.88223
0.943738
0.898021
0.824533
0.907871
0.886245
0.925988
0.90243
0.896405
0.950504
0.89017
0.809308
0.943576
0.823323
0.808576
0.890024
0.894099
0.94386
0.916105
0.883339
0.833851
0.9434
0.806101
0.849126
0.912798
0.953938
0.876604
0.918917
0.81233
0.948843
0.869608
0.92222
0.921783
0.948359
0.922398
0.845172
0.807613
0.855886
0.9194
0.959061
0.862693
0.810753
0.922395
0.953724
0.94422
0.952027
0.93285
0.948756
0.922691
0.95098
0.922815
0.897266
0.95348
0.815492
0.921667
0.953223
0.948258
0.948709
0.952935
0.946569
0.920536
0.950071
0.918866
0.922976
0.944423
0.952625
0.920781
0.951816
0.912128
0.952338
0.89407
0.949297
0.815034
0.888422
0.948593
0.932331
0.931137
0.905179
0.944489
0.95738
0.918327
0.958189
0.859615
0.923457
0.956693
0.951909
0.956124
0.922254
0.920855
0.955591
0.919225
0.955123
0.944846
0.95469
0.916991
0.954314
0.914906
0.953958
0.953597
0.924188
0.962897
0.953249
0.952916
0.928644
0.933104
0.821398
0.903318
0.943284
0.95259
0.945955
0.920276
0.953804
0.943391
0.805563
0.952257
0.827874
0.919917
0.910029
0.933649
0.944898
0.925395
0.941779
0.925687
0.908797
0.945749
0.947276
0.923024
0.906676
0.926826
0.949092
0.821277
0.841031
0.903679
0.939965
0.924949
0.931078
0.809798
0.943631
0.922379
0.946863
0.901878
0.969975
0.920968
0.896463
0.928757
0.92592
0.943523
0.947729
0.947261
0.90774
0.951191
0.91876
0.857254
0.950192
0.935381
0.936833
0.926137
0.87358
0.88826
0.924345
0.930838
0.945876
0.933527
0.914852
0.951698
0.9458
0.910717
0.837606
0.935286
0.906415
0.948678
0.922206
0.901834
0.948215
0.951086
0.890143
0.897222
0.933025
0.944037
0.892428
0.832728
0.887569
0.911309
0.882604
0.862327
0.877591
0.952513
0.940125
0.86744
0.933719
0.872508
0.925575
0.952162
0.944526
0.943883
0.943413
0.942625
0.841465
0.923538
0.921455
0.945808
0.926837
0.852365
0.948901
0.924668
0.943593
0.901109
0.885273
0.915922
0.856911
0.945239
0.947001
0.950256
0.859888
0.94889
0.950842
0.830238
0.884318
0.939555
0.948996
0.903545
0.949873
0.87234
0.870226
0.814193
0.834057
0.944937
0.944747
0.838156
0.933077
0.951327
0.946073
0.907238
0.943513
0.903614
0.923299
0.91848
0.946277
0.938011
0.93086
0.915254
0.943935
0.943566
0.953582
0.93809
0.906818
0.93542
0.917409
0.949663
0.920905
0.943664
0.932198
0.922527
0.814343
0.955134
0.928694
0.878966
0.827671
0.948712
0.943068
0.919491
0.818764
0.904575
0.845525
0.825837
0.864252
0.90627
0.81646
0.842601
0.856049
0.92428
0.927981
0.851837
0.936886
0.947454
0.924703
0.921461
0.94599
0.885072
0.931369
0.957803
0.944237
0.943991
0.915776
0.873465
0.810747
0.815492
0.810891
0.91661
0.840446
0.946456
0.913397
0.918363
0.928663
0.940355
0.945343
0.948834
0.947741
0.947653
0.949524
0.859541
0.945811
0.947953
0.9462
0.930288
0.858574
0.826087
0.903504
0.923606
0.905637
0.94783
0.960446
0.945434
0.911391
0.933955
0.821685
0.92365
0.949725
0.946892
0.95089
0.91275
0.961237
0.862779
0.94747
0.90684
0.916223
0.952299
0.811346
0.944015
0.909821
0.949324
0.829127
0.949638
0.809755
0.950671
0.948742
0.92339
0.878849
0.808908
0.953153
0.960929
0.920864
0.948547
0.918964
0.927492
0.815018
0.834836
0.909185
0.951105
0.808771
0.82963
0.95174
0.944872
0.893234
0.92136
0.818637
0.950699
0.94857
0.91759
0.924684
0.947471
0.929139
0.960047
0.923251
0.953485
0.947051
0.916612
0.912349
0.947353
0.929358
0.806095
0.931379
0.947049
0.93689
0.927123
0.945537
0.9146
0.80577
0.934381
0.946426
0.950337
0.830256
0.939271
0.929255
0.93167
0.935206
0.945341
0.951687
0.944472
0.912552
0.943184
0.941339
0.927071
0.932681
0.945864
0.909647
0.872063
0.917126
0.876066
0.880097
0.959885
0.852254
0.899727
0.953635
0.884039
0.946511
0.959182
0.91321
0.85907
0.948703
0.892854
0.886401
0.899027
0.872907
0.87962
0.86585
0.904748
0.888101
0.926922
0.909922
0.891946
0.944715
0.948959
0.895958
0.949758
0.810745
0.859857
0.948021
0.948521
0.94634
0.809656
0.932992
0.910899
0.945899
0.949188
0.9248
0.946494
0.953633
0.946149
0.960519
0.929476
0.945541
0.944114
0.862713
0.910883
0.837337
0.934837
0.95306
0.904582
0.947471
0.953503
0.945112
0.946881
0.81999
0.939493
0.948111
0.854611
0.933185
0.950246
0.924828
0.90236
0.94346
0.910528
0.922915
0.932553
0.953337
0.954137
0.94979
0.958303
0.909535
0.95469
0.914497
0.953123
0.952874
0.947385
0.921315
0.944619
0.952601
0.949258
0.864499
0.926293
0.931324
0.90463
0.947645
0.957497
0.856321
0.956837
0.952335
0.81015
0.920251
0.939404
0.952052
0.95623
0.828208
0.94815
0.808995
0.955741
0.827416
0.948348
0.955256
0.954803
0.929289
0.953799
0.931689
0.919239
0.919914
0.90837
0.954411
0.954073
0.920992
0.921971
0.944866
0.953721
0.942064
0.909566
0.953365
0.953032
0.95271
0.952053
0.91829
0.926668
0.919459
0.922493
0.952392
0.818774
0.95108
0.969697
0.919235
0.943725
0.912846
0.934815
0.922761
0.922964
0.92369
0.921242
0.916415
0.91959
0.810338
0.945781
0.912327
0.923351
0.942328
0.920264
0.923602
0.920175
0.948499
0.925068
0.94796
0.95517
0.916473
0.940602
0.948892
0.948437
0.925767
0.859682
0.923994
0.937871
0.906821
0.94708
0.912183
0.8648
0.920815
0.806737
0.912511
0.908333
0.903975
0.899355
0.894559
0.889886
0.879991
0.86988
0.885028
0.923238
0.87492
0.807031
0.900081
0.840202
0.940288
0.924909
0.829149
0.925705
0.966407
0.947479
0.892329
0.926198
0.864742
0.930008
0.921935
0.842919
0.843862
0.927793
0.905545
0.938752
0.817458
0.831995
0.923074
0.936235
0.943792
0.929766
0.925039
0.933945
0.835917
0.947299
0.896351
0.931798
0.924147
0.883388
0.944516
0.834418
0.939997
0.808943
0.980868
0.959232
0.950617
0.943418
0.915869
0.956784
0.928704
0.927597
0.946639
0.971434
0.944202
0.810039
0.904239
0.944564
0.812258
0.944951
0.814617
0.954878
0.901565
0.954652
0.869297
0.880449
0.929797
0.866805
0.945075
0.818608
0.95058
0.917036
0.901511
0.909456
0.945332
0.897958
0.812276
0.926783
0.953651
0.936025
0.896399
0.943118
0.945286
0.944521
0.922449
0.841636
0.896154
0.822082
0.946086
0.824771
0.825651
0.827634
0.94687
0.951905
0.810052
0.836581
0.948013
0.839777
0.948379
0.916553
0.843029
0.948743
0.946407
0.9491
0.849394
0.949451
0.913198
0.852607
0.949793
0.819226
0.855876
0.950122
0.923613
0.945049
0.807636
0.943728
0.931676
0.946467
0.936992
0.9622
0.813581
0.865955
0.95106
0.914519
0.862578
0.859224
0.950251
0.945974
0.950754
0.946765
0.957157
0.954842
0.950015
0.928694
0.958858
0.944745
0.876017
0.951923
0.945438
0.879232
0.945383
0.840151
0.943975
0.927785