# vtk DataFile Version 1.0
unstructured grid
ascii
DATASET UNSTRUCTURED_GRID
points 3920 float
-1 0 0
-1 1 0
2 0 0
2 1 0
0 0 0
1 0 0
-1 1 0.1
-1 0 0.1
0 0 0.1
1 0 0.1
2 0 0.1
2 1 0.1
-0.98 0 0
-0.96 0 0
-0.94 0 0
-0.92 0 0
-0.9 0 0
-0.88 0 0
-0.86 0 0
-0.84 0 0
-0.82 0 0
-0.8 0 0
-0.78 0 0
-0.76 0 0
-0.74 0 0
-0.72 0 0
-0.7 0 0
-0.68 0 0
-0.66 0 0
-0.64 0 0
-0.62 0 0
-0.6 0 0
-0.58 0 0
-0.56 0 0
-0.54 0 0
-0.52 0 0
-0.5 0 0
-0.48 0 0
-0.46 0 0
-0.44 0 0
-0.42 0 0
-0.4 0 0
-0.38 0 0
-0.36 0 0
-0.34 0 0
-0.32 0 0
-0.3 0 0
-0.28 0 0
-0.26 0 0
-0.24 0 0
-0.22 0 0
-0.2 0 0
-0.18 0 0
-0.16 0 0
-0.14 0 0
-0.12 0 0
-0.1 0 0
-0.08 0 0
-0.06 0 0
-0.04 0 0
-0.02 0 0
1.02 0 0
1.04 0 0
1.06 0 0
1.08 0 0
1.1 0 0
1.12 0 0
1.14 0 0
1.16 0 0
1.18 0 0
1.2 0 0
1.22 0 0
1.24 0 0
1.26 0 0
1.28 0 0
1.3 0 0
1.32 0 0
1.34 0 0
1.36 0 0
1.38 0 0
1.4 0 0
1.42 0 0
1.44 0 0
1.46 0 0
1.48 0 0
1.5 0 0
1.52 0 0
1.54 0 0
1.56 0 0
1.58 0 0
1.6 0 0
1.62 0 0
1.64 0 0
1.66 0 0
1.68 0 0
1.7 0 0
1.72 0 0
1.74 0 0
1.76 0 0
1.78 0 0
1.8 0 0
1.82 0 0
1.84 0 0
1.86 0 0
1.88 0 0
1.9 0 0
1.92 0 0
1.94 0 0
1.96 0 0
1.98 0 0
2 0.0199133 0
2 0.0414128 0
2 0.0646247 0
2 0.0896856 0
2 0.116743 0
2 0.145955 0
2 0.177494 0
2 0.211545 0
2 0.248309 0
2 0.288001 0
2 0.330854 0
2 0.377121 0
2 0.427073 0
2 0.481004 0
2 0.539231 0
2 0.602096 0
2 0.669968 0
2 0.743247 0
2 0.822362 0
2 0.907779 0
1.9 1 0
1.8 1 0
1.7 1 0
1.6 1 0
1.5 1 0
1.4 1 0
1.3 1 0
1.2 1 0
1.1 1 0
1 1 0
0.9 1 0
0.8 1 0
0.7 1 0
0.6 1 0
0.5 1 0
0.4 1 0
0.3 1 0
0.2 1 0
0.1 1 0
3.69793e-12 1 0
-0.1 1 0
-0.2 1 0
-0.3 1 0
-0.4 1 0
-0.5 1 0
-0.6 1 0
-0.7 1 0
-0.8 1 0
-0.9 1 0
-1 0.907779 0
-1 0.822362 0
-1 0.743247 0
-1 0.669968 0
-1 0.602096 0
-1 0.539231 0
-1 0.481004 0
-1 0.427073 0
-1 0.377121 0
-1 0.330854 0
-1 0.288001 0
-1 0.248309 0
-1 0.211545 0
-1 0.177494 0
-1 0.145955 0
-1 0.116743 0
-1 0.0896856 0
-1 0.0646247 0
-1 0.0414128 0
-1 0.0199133 0
0.0182781 0.00745351 0
0.0366672 0.0146286 0
0.0551632 0.0215237 0
0.0737617 0.0281372 0
0.0924585 0.0344675 0
0.111249 0.0405131 0
0.13013 0.0462728 0
0.149095 0.0517451 0
0.168142 0.0569289 0
0.187265 0.0618228 0
0.20646 0.0664258 0
0.225723 0.0707368 0
0.245049 0.0747549 0
0.264434 0.078479 0
0.283873 0.0819084 0
0.303362 0.0850422 0
0.322896 0.0878798 0
0.342472 0.0904204 0
0.362083 0.0926635 0
0.381726 0.0946086 0
0.401397 0.0962552 0
0.42109 0.0976029 0
0.440802 0.0986514 0
0.460527 0.0994006 0
0.480261 0.0998501 0
0.5 0.1 0
0.519739 0.0998501 0
0.539473 0.0994006 0
0.559198 0.0986514 0
0.57891 0.0976029 0
0.598603 0.0962552 0
0.618274 0.0946086 0
0.637917 0.0926635 0
0.657528 0.0904204 0
0.677104 0.0878798 0
0.696638 0.0850422 0
0.716127 0.0819084 0
0.735566 0.078479 0
0.754951 0.0747549 0
0.774277 0.0707368 0
0.79354 0.0664258 0
0.812735 0.0618228 0
0.831858 0.0569289 0
0.850905 0.0517451 0
0.86987 0.0462728 0
0.888751 0.0405131 0
0.907542 0.0344675 0
0.926238 0.0281372 0
0.944837 0.0215237 0
0.963333 0.0146286 0
0.981722 0.00745351 0
-1 0.907779 0.1
-1 0.822362 0.1
-1 0.743247 0.1
-1 0.669968 0.1
-1 0.602096 0.1
-1 0.539231 0.1
-1 0.481004 0.1
-1 0.427073 0.1
-1 0.377121 0.1
-1 0.330854 0.1
-1 0.288001 0.1
-1 0.248309 0.1
-1 0.211545 0.1
-1 0.177494 0.1
-1 0.145955 0.1
-1 0.116743 0.1
-1 0.0896856 0.1
-1 0.0646247 0.1
-1 0.0414128 0.1
-1 0.0199133 0.1
-0.98 0 0.1
-0.96 0 0.1
-0.94 0 0.1
-0.92 0 0.1
-0.9 0 0.1
-0.88 0 0.1
-0.86 0 0.1
-0.84 0 0.1
-0.82 0 0.1
-0.8 0 0.1
-0.78 0 0.1
-0.76 0 0.1
-0.74 0 0.1
-0.72 0 0.1
-0.7 0 0.1
-0.68 0 0.1
-0.66 0 0.1
-0.64 0 0.1
-0.62 0 0.1
-0.6 0 0.1
-0.58 0 0.1
-0.56 0 0.1
-0.54 0 0.1
-0.52 0 0.1
-0.5 0 0.1
-0.48 0 0.1
-0.46 0 0.1
-0.44 0 0.1
-0.42 0 0.1
-0.4 0 0.1
-0.38 0 0.1
-0.36 0 0.1
-0.34 0 0.1
-0.32 0 0.1
-0.3 0 0.1
-0.28 0 0.1
-0.26 0 0.1
-0.24 0 0.1
-0.22 0 0.1
-0.2 0 0.1
-0.18 0 0.1
-0.16 0 0.1
-0.14 0 0.1
-0.12 0 0.1
-0.1 0 0.1
-0.08 0 0.1
-0.06 0 0.1
-0.04 0 0.1
-0.02 0 0.1
0.0182781 0.00745351 0.1
0.0366672 0.0146286 0.1
0.0551632 0.0215237 0.1
0.0737617 0.0281372 0.1
0.0924585 0.0344675 0.1
0.111249 0.0405131 0.1
0.13013 0.0462728 0.1
0.149095 0.0517451 0.1
0.168142 0.0569289 0.1
0.187265 0.0618228 0.1
0.20646 0.0664258 0.1
0.225723 0.0707368 0.1
0.245049 0.0747549 0.1
0.264434 0.078479 0.1
0.283873 0.0819084 0.1
0.303362 0.0850422 0.1
0.322896 0.0878798 0.1
0.342472 0.0904204 0.1
0.362083 0.0926635 0.1
0.381726 0.0946086 0.1
0.401397 0.0962552 0.1
0.42109 0.0976029 0.1
0.440802 0.0986514 0.1
0.460527 0.0994006 0.1
0.480261 0.0998501 0.1
0.5 0.1 0.1
0.519739 0.0998501 0.1
0.539473 0.0994006 0.1
0.559198 0.0986514 0.1
0.57891 0.0976029 0.1
0.598603 0.0962552 0.1
0.618274 0.0946086 0.1
0.637917 0.0926635 0.1
0.657528 0.0904204 0.1
0.677104 0.0878798 0.1
0.696638 0.0850422 0.1
0.716127 0.0819084 0.1
0.735566 0.078479 0.1
0.754951 0.0747549 0.1
0.774277 0.0707368 0.1
0.79354 0.0664258 0.1
0.812735 0.0618228 0.1
0.831858 0.0569289 0.1
0.850905 0.0517451 0.1
0.86987 0.0462728 0.1
0.888751 0.0405131 0.1
0.907542 0.0344675 0.1
0.926238 0.0281372 0.1
0.944837 0.0215237 0.1
0.963333 0.0146286 0.1
0.981722 0.00745351 0.1
1.02 0 0.1
1.04 0 0.1
1.06 0 0.1
1.08 0 0.1
1.1 0 0.1
1.12 0 0.1
1.14 0 0.1
1.16 0 0.1
1.18 0 0.1
1.2 0 0.1
1.22 0 0.1
1.24 0 0.1
1.26 0 0.1
1.28 0 0.1
1.3 0 0.1
1.32 0 0.1
1.34 0 0.1
1.36 0 0.1
1.38 0 0.1
1.4 0 0.1
1.42 0 0.1
1.44 0 0.1
1.46 0 0.1
1.48 0 0.1
1.5 0 0.1
1.52 0 0.1
1.54 0 0.1
1.56 0 0.1
1.58 0 0.1
1.6 0 0.1
1.62 0 0.1
1.64 0 0.1
1.66 0 0.1
1.68 0 0.1
1.7 0 0.1
1.72 0 0.1
1.74 0 0.1
1.76 0 0.1
1.78 0 0.1
1.8 0 0.1
1.82 0 0.1
1.84 0 0.1
1.86 0 0.1
1.88 0 0.1
1.9 0 0.1
1.92 0 0.1
1.94 0 0.1
1.96 0 0.1
1.98 0 0.1
2 0.0199133 0.1
2 0.0414128 0.1
2 0.0646247 0.1
2 0.0896856 0.1
2 0.116743 0.1
2 0.145955 0.1
2 0.177494 0.1
2 0.211545 0.1
2 0.248309 0.1
2 0.288001 0.1
2 0.330854 0.1
2 0.377121 0.1
2 0.427073 0.1
2 0.481004 0.1
2 0.539231 0.1
2 0.602096 0.1
2 0.669968 0.1
2 0.743247 0.1
2 0.822362 0.1
2 0.907779 0.1
1.9 1 0.1
1.8 1 0.1
1.7 1 0.1
1.6 1 0.1
1.5 1 0.1
1.4 1 0.1
1.3 1 0.1
1.2 1 0.1
1.1 1 0.1
1 1 0.1
0.9 1 0.1
0.8 1 0.1
0.7 1 0.1
0.6 1 0.1
0.5 1 0.1
0.4 1 0.1
0.3 1 0.1
0.2 1 0.1
0.1 1 0.1
3.69793e-12 1 0.1
-0.1 1 0.1
-0.2 1 0.1
-0.3 1 0.1
-0.4 1 0.1
-0.5 1 0.1
-0.6 1 0.1
-0.7 1 0.1
-0.8 1 0.1
-0.9 1 0.1
1.08758 0.0158154 0
-0.0898513 0.0203294 0
0.0966181 0.0537636 0
0.90205 0.0548881 0
1.21055 0.0202058 0
-0.209811 0.0159577 0
1.3305 0.0176902 0
-0.33 0.0173205 0
1.45324 0.0148141 0
-0.448654 0.0159854 0
1.56842 0.0191785 0
-0.569936 0.0166364 0
0.193292 0.0805369 0
0.805051 0.0813623 0
0.709096 0.100353 0
0.288591 0.0996656 0
0.390184 0.111848 0
0.61033 0.111742 0
0.488809 0.116278 0
1.67175 0.0169692 0
-0.67 0.0169809 0
-0.955017 0.454039 0
1.95131 0.44569 0
1.74981 0.0168753 0
-0.75 0.0173205 0
-0.968032 0.266538 0
1.96871 0.266267 0
0.978232 0.0305687 0
0.0208675 0.026451 0
-0.150454 0.91842 0
1.13854 0.907437 0
1.45012 0.904365 0
-0.445923 0.908903 0
-0.853423 0.0157019 0
1.84881 0.016319 0
0.853689 0.915652 0
0.153944 0.912184 0
0.545151 0.914125 0
0.549913 0.115152 0
1.51 0.0173205 0
-0.506989 0.01651 0
1.27 0.0173205 0
1.14976 0.0173333 0
-0.268171 0.0206442 0
-0.150501 0.0153244 0
-0.391384 0.0153993 0
1.38886 0.0171544 0
-0.973694 0.161724 0
1.97441 0.162392 0
-0.945221 0.633523 0
1.94544 0.63312 0
1.91008 0.0186068 0
-0.91 0.0169616 0
-0.030664 0.0194327 0
1.03074 0.0165456 0
-0.966065 0.353575 0
1.96128 0.359765 0
1.93879 0.781254 0
-0.937057 0.781882 0
-0.980746 0.080709 0
1.9772 0.0760699 0
0.058735 0.0409372 0
0.355202 0.913001 0
0.86356 0.0661005 0
0.134223 0.0651111 0
0.941972 0.0397386 0
-0.653034 0.915003 0
1.65328 0.904589 0
0.770126 0.0881325 0
0.232946 0.0902008 0
0.330582 0.105648 0
0.670612 0.108365 0
0.428707 0.116145 0
1.80993 0.016629 0
-0.810168 0.0172178 0
-0.71 0.0173205 0
1.63047 0.0175504 0
1.70842 0.0169661 0
-0.628824 0.0181787 0
-0.949815 0.0133898 0
1.95 0.0173205 0
1.85542 0.907891 0
-0.85 0.913397 0
1.9833 0.0307692 0
-0.983315 0.0309709 0
-0.750025 0.916468 0
-0.701107 0.836904 0
-0.607741 0.836428 0
-0.656448 0.759827 0
-0.572936 0.758144 0
-0.61411 0.691195 0
-0.539534 0.689068 0
-0.578542 0.626111 0
-0.507461 0.624216 0
-0.544001 0.566638 0
-0.477696 0.564279 0
-0.511582 0.51001 0
-0.451689 0.507147 0
-0.481834 0.457732 0
-0.426137 0.454624 0
-0.453236 0.407539 0
-0.398845 0.406233 0
-0.507958 0.409496 0
-0.368427 0.460177 0
-0.344602 0.405209 0
-0.315696 0.447824 0
-0.294128 0.402169 0
-0.262844 0.444518 0
-0.241968 0.388746 0
-0.209878 0.439557 0
-0.185184 0.391135 0
-0.156687 0.437338 0
-0.133719 0.390776 0
-0.104405 0.434306 0
-0.0818745 0.388334 0
-0.0528785 0.431165 0
-0.0305984 0.385639 0
-0.00180552 0.427863 0
0.0194564 0.382608 0
0.0485809 0.42449 0
0.0701962 0.37973 0
0.0985483 0.421145 0
0.119893 0.377339 0
0.147837 0.417911 0
0.172552 0.36751 0
0.197018 0.412597 0
0.221203 0.37141 0
0.24512 0.409646 0
-0.48178 0.364657 0
-0.531053 0.364782 0
-0.0599102 0.344151 0
-0.324909 0.359566 0
0.266181 0.368462 0
0.292132 0.407649 0
0.311992 0.365779 0
0.338918 0.404821 0
0.357567 0.355909 0
0.384723 0.40053 0
0.404675 0.359681 0
0.430617 0.398558 0
0.450457 0.35827 0
0.474237 0.395182 0
0.496746 0.34898 0
0.520548 0.397931 0
0.542071 0.353121 0
0.566011 0.389914 0
0.585061 0.350856 0
0.609352 0.38696 0
0.629069 0.348168 0
0.655979 0.391217 0
0.67472 0.346182 0
0.699346 0.381414 0
0.719333 0.341965 0
0.743718 0.377547 0
0.764028 0.339036 0
0.788201 0.373582 0
0.807659 0.336101 0
0.832821 0.372249 0
0.852309 0.334017 0
0.877785 0.370339 0
0.897875 0.331141 0
0.922904 0.366281 0
0.943173 0.327335 0
0.968282 0.363358 0
0.989029 0.324222 0
1.01391 0.361511 0
1.03465 0.321428 0
1.05949 0.358447 0
1.08389 0.312052 0
1.10575 0.355104 0
1.12889 0.31562 0
1.15067 0.353235 0
1.17157 0.312819 0
1.19626 0.349369 0
1.21618 0.309863 0
1.2416 0.346914 0
1.26131 0.30715 0
1.28691 0.344312 0
1.30571 0.303752 0
1.33144 0.341222 0
1.35018 0.300911 0
1.3758 0.338308 0
1.39501 0.298931 0
1.42015 0.335235 0
1.43904 0.296349 0
1.46355 0.330194 0
1.48256 0.293347 0
1.50685 0.326967 0
1.52589 0.29055 0
1.54996 0.325305 0
1.56909 0.287929 0
[...]
CELL_DATA 3694
SCALARS rho float
LOOKUP_TABLE default
0.735985
0.672073
0.803803
0.813863
0.826927
0.805121
0.791675
0.800033
0.810711
0.802741
0.818013
0.818006
0.840535
0.789435
0.80082
0.751603
0.803277
0.802982
0.761106
0.85023
0.81773
0.823589
0.699671
0.803392
0.696283
0.83946
0.720368
0.806332
0.837111
0.798625
0.798812
0.718658
0.803512
0.824745
0.802853
0.798022
0.837434
0.82337
0.82523
0.778143
0.804669
0.817387
0.834447
0.825324
0.805157
0.813756
0.800888
0.671911
0.680378
0.722632
0.802065
0.802931
0.847011
0.802079
0.63418
0.838336
0.802676
0.81953
0.832676
0.754727
0.796306
0.815993
0.842398
0.799648
0.842955
0.831261
0.807638
0.814439
0.736433
0.85854
0.803152
0.807598
0.823612
0.80324
0.824967
0.802909
0.814189
0.799671
0.814638
0.802747
0.715628
0.818422
0.802311
0.776755
0.810493
0.799627
0.818879
0.716641
0.735858
0.825446
0.799725
0.80243
0.82055
0.815942
0.675926
0.806537
0.723851
0.818477
0.813125
0.840269
0.815452
0.763438
0.718005
0.810492
0.809931
0.815989
0.818458
0.807035
0.716497
0.815053
0.799282
0.724307
0.720404
0.823849
0.868094
0.802247
0.800299
0.812928
0.803139
0.802147
0.765785
0.822513
0.82026
0.770505
0.703832
0.758935
0.818099
0.77769
0.843789
0.702495
0.767295
0.800402
0.807946
0.77783
0.800999
0.7961
0.805473
0.802415
0.798021
0.815377
0.814501
0.711828
0.817655
0.814501
0.758043
0.673916
0.678106
0.798157
0.816816
0.81312
0.745444
0.802715
0.559539
0.779161
0.688989
0.764337
0.714385
0.784307
0.608407
0.793128
0.837544
0.646078
0.782239
0.737828
0.84447
0.557619
0.817282
0.800448
0.802948
0.674402
0.80155
0.664188
0.858069
0.545261
0.799908
0.638652
0.872699
0.83377
0.821216
0.745081
0.814816
0.721434
0.827458
0.737294
0.649802
0.803113
0.67858
0.823968
0.801693
0.851264
0.791825
0.702861
0.815725
0.798426
0.742986
0.853068
0.811417
0.849064
0.737346
0.74405
0.77123
0.794335
0.832186
0.834261
0.816885
0.815005
0.670868
0.804636
0.728225
0.803209
0.711101
0.797836
0.795675
0.801529
0.82627
0.764584
0.830909
0.750175
0.826213
0.820415
0.816775
0.85329
0.829486
0.705736
0.827603
0.684098
0.787911
0.810627
0.851432
0.830652
0.80903
0.794536
0.746381
0.81836
0.837103
0.818181
0.716485
0.800416
0.697693
0.792875
0.795532
0.810679
0.640667
0.80764
0.758605
0.797898
0.803111
0.75997
0.8161
0.865993
0.784174
0.69089
0.804455
0.801726
0.64847
0.793027
0.778159
0.802348
0.839263
0.815741
0.610173
0.816101
0.810149
0.797567
0.816346
0.80268
0.815389
0.815035
0.835654
0.756962
0.801889
0.835317
0.81056
0.803149
0.796172
0.81592
0.728233
0.589653
0.817618
0.82965
0.821083
0.804432
0.684749
0.816343
0.816097
0.817371
0.715503
0.797727
0.816013
0.549653
0.802842
0.869322
0.681266
0.757466
0.839089
0.827415
0.815769
0.705997
0.809449
0.81601
0.803842
0.801775
0.812162
0.836954
0.817444
0.767533
0.807053
0.803076
0.647845
0.821686
0.828425
0.673425
0.791696
0.819595
0.820885
0.680406
0.675465
0.822095
0.824685
0.809583
0.733151
0.708131
0.714836
0.734321
0.820996
0.777515
0.804191
0.734187
0.742011
0.823144
0.810941
0.819288
0.770595
0.816099
0.81475
0.818137
0.816766
0.802771
0.807638
0.803979
0.690367
0.802739
0.812873
0.698001
0.807286
0.805141
0.820161
0.785968
0.805972
0.791932
0.8159
0.821676
0.820887
0.798315
0.685145
0.713337
0.799458
0.81091
0.626106
0.803907
0.807615
0.817302
0.744198
0.804284
0.817145
0.812462
0.818591
0.805066
0.797368
0.765273
0.804446
0.843948
0.820189
0.705776
0.80375
0.704614
0.70407
0.803108
0.616312
0.770923
0.784941
0.808054
0.814438
0.825811
0.817891
0.813223
0.820897
0.828808
0.802844
0.765412
0.809788
0.660942
0.819962
0.758013
0.729233
0.691256
0.814889
0.854274
0.819988
0.808902
0.822239
0.816248
0.787027
0.759259
0.81042
0.694251
0.791295
0.84391
0.826623
0.800841
0.864331
0.813418
0.817226
0.818348
0.83107
0.632803
0.799365
0.733103
0.798069
0.734923
0.819563
0.808696
0.787902
0.68106
0.815782
0.830086
0.812817
0.80299
0.803802
0.824989
0.803885
0.713343
0.790395
0.803117
0.815727
0.814765
0.813441
0.871882
0.828398
0.809421
0.832642
0.68376
0.824071
0.838106
0.81706
0.629318
0.816229
0.809267
0.845917
0.822064
0.80296
0.594603
0.81018
0.698342
0.806142
0.802904
0.812362
0.814562
0.825253
0.805103
0.811255
0.816859
0.726288
0.863243
0.802009
0.850573
0.817213
0.577924
0.803928
0.796781
0.812494
0.818464
0.655904
0.802849
0.809682
0.813068
0.807154
0.793956
0.81652
0.818106
0.796924
0.804071
0.822131
0.837266
0.732247
0.806322
0.809842
0.813968
0.683708
0.805321
0.816728
0.799405
0.804185
0.532199
0.833476
0.764762
0.81568
0.818536
0.83142
0.846614
0.816931
0.812561
0.718157
0.799099
0.852679
0.809284
0.710992
0.800318
0.802629
0.872471
0.84573
0.819826
0.802097
0.809716
0.756254
0.816319
0.813985
0.587493
0.802743
0.731553
0.750395
0.803213
0.812316
0.781122
0.821542
0.816192
0.838307
0.816726
0.800533
0.809658
0.738394
0.737911
0.804209
0.808847
0.821725
0.802358
0.751976
0.691182
0.81457
0.815303
0.81405
0.597158
0.814651
0.817259
0.82538
0.803115
0.809358
0.82035
0.811878
0.839934
0.803027
0.812722
0.824305
0.816517
0.818304
0.822041
0.691801
0.784363
0.795465
0.803202
0.848048
0.802092
0.803328
0.636885
0.811434
0.814422
0.810877
0.819826
0.805834
0.814126
0.72802
0.844083
0.706573
0.800567
0.81817
0.807297
0.659625
0.679234
0.815588
0.805733
0.80438
0.786226
0.801568
0.829852
0.814323
0.805045
0.802274
0.813143
0.621351
0.813316
0.803188
0.701742
0.816313
0.623964
0.784876
0.816386
0.838171
0.806733
0.813493
0.793272
0.796195
0.804188
0.801476
0.812979
0.811238
0.809856
0.803283
0.757326
0.804129
0.813551
0.812993
0.816841
0.812499
0.816816
0.815916
0.834656
0.739833
0.80679
0.816553
0.802588
0.545948
0.685558
0.811451
0.814294
0.816159
0.780488
0.808542
0.812982
0.803331
0.799992
0.802871
0.820486
0.821341
0.815985
0.785671
0.808856
0.806492
0.573988
0.774316
0.758204
0.807011
0.736486
0.679681
0.797837
0.767947
0.828331
0.81596
0.815706
0.808431
0.543644
0.815804
0.586027
0.699347
0.825342
0.869971
0.743122
0.81741
0.853277
0.69658
0.816262
0.809092
0.815012
0.80739
0.657838
0.854959
0.737304
0.732087
0.803395
0.80466
0.799729
0.833513
0.816168
0.692608
0.81605
0.800334
0.695214
0.840035
0.798393
0.62413
0.773295
0.816593
0.808728
0.815815
0.7845
0.727287
0.771154
0.837228
0.689778
0.816863
0.818004
0.827579
0.766018
0.822791
0.694023
0.804667
0.662106
0.701822
0.801058
0.822969
0.789342
0.815625
0.816322
0.816181
0.815033
0.580375
0.802611
0.816007
0.744184
0.810149
0.81635
0.812795
0.714526
0.69007
0.74216
0.62392
0.807389
0.683322
0.816583
0.801995
0.815996
0.837168
0.687586
0.805091
0.82047
0.832875
0.739612
0.782623
0.764899
0.773754
0.813099
0.578164
0.674935
0.816265
0.805419
0.813056
0.804648
0.714772
0.780962
0.726374
0.760563
0.799879
0.832514
0.812387
0.692396
0.824102
0.818417
0.811872
0.688968
0.690532
0.68351
0.872435
0.81679
0.817384
0.611393
0.712452
0.643017
0.803616
0.800538
0.673227
0.812132
0.824927
0.750621
0.799776
0.731272
0.815102
0.693588
0.815778
0.810582
0.802223
0.803146
0.825997
0.745169
0.816677
0.816002
0.780628
0.559895
0.816567
0.811832
0.758729
0.814922
0.747323
0.803131
0.82697
0.665262
0.818965
0.802772
0.810065
0.586935
0.647364
0.736314
0.806483
0.812986
0.81175
0.821807
0.815025
0.816868
0.705513
0.802027
0.813997
0.826891
0.704597
0.728396
0.813241
0.812495
0.697914
0.814488
0.775147
0.700531
0.811994
0.697119
0.804983
0.66395
0.802917
0.729834
0.669174
0.812054
0.786396
0.745256
0.63281
0.840549
0.821179
0.815717
0.771104
0.81524
0.800295
0.786779
0.800163
0.80178
0.815929
0.73367
0.809803
0.800255
0.819589
0.600821
0.801613
0.813753
0.814689
0.812455
0.812991
0.747116
0.803646
0.764483
0.751625
0.819408
0.65029
0.819335
0.818473
0.803143
0.816404
0.81763
0.7228
0.768485
0.822833
0.786095
0.803828
0.816853
0.875329
0.818742
0.799132
0.817696
0.816293
0.794105
0.81931
0.81762
0.773682
0.701296
0.841723
0.797115
0.803235
0.822761
0.781816
0.818684
0.824894
0.819476
0.817762
0.87085
0.803165
0.805073
0.819089
0.803156
0.81635
0.807056
0.73723
0.816263
0.820501
0.753796
0.711194
0.816137
0.843533
0.822492
0.658793
0.822507
0.774068
0.809186
0.802138
0.730902
0.803159
0.798948
0.815642
0.817666
0.696163
0.707211
0.802389
0.78771
0.801867
0.825301
0.721476
0.815993
0.802612
0.800463
0.823864
0.816385
0.71511
0.816572
0.763724
0.802535
0.832745
0.803476
0.774203
0.797974
0.794684
0.816047
0.610831
0.815974
0.692898
0.682643
0.803575
0.820334
0.816008
0.80269
0.816082
0.809068
0.72588
0.787845
0.857529
0.80308
0.83394
0.807524
0.548046
0.762182
0.780802
0.650533
0.739137
0.581696
0.820594
0.814309
0.814605
0.802532
0.766959
0.686467
0.765471
0.752306
0.782341
0.815947
0.845113
0.820177
0.805925
0.819382
0.8242
0.802844
0.807837
0.707186
0.803296
0.757088
0.808773
0.798136
0.752817
0.82292
0.788644
0.803671
0.790667
0.841332
0.728682
0.80108
0.799726
0.804987
0.619062
0.816418
0.816306
0.822053
0.635167
0.816195
0.816178
0.798794
0.803944
0.793386
0.776202
0.806539
0.795402
0.816868
0.753051
0.804591
0.875544
0.763396
0.749085
0.807765
0.784081
0.843087
0.80069
0.780524
0.816152
0.798308
0.792715
0.808153
0.826235
0.836279
0.799824
0.576622
0.821171
0.828842
0.77232
0.831345
0.838686
0.823545
0.8269
0.807366
0.833459
0.827477
0.783907
0.809185
0.812283
0.807125
0.823404
0.803457
0.827433
0.793047
0.803464
0.805843
0.728096
0.807193
0.564033
0.818763
0.825972
0.829231
0.806007
0.818322
0.824584
0.819519
0.821545
0.839302
0.83367
0.788732
0.80052
0.82242
0.816227
0.817792
0.800452
0.806469
0.865886
0.820788
0.84781
0.815968
0.800828
0.824684
0.79985
0.83356
0.814289
0.816055
0.80536
0.728008
0.803001
0.804597
0.815996
0.803387
0.802626
0.822158
0.804697
0.804247
0.778206
0.819809
0.718459
0.814335
0.78121
0.759419
0.803634
0.813376
0.819015
0.716942
0.820086
0.815294
0.826614
0.81787
0.790303
0.817156
0.847488
0.833299
0.81551
0.811814
0.801703
0.744935
0.680514
0.816063
0.820717
0.771778
0.815178
0.807872
0.812642
0.805532
0.798734
0.776397
0.802467
0.800216
0.841871
0.818198
0.811545
0.806364
0.605127
0.732435
0.802221
0.784154
0.804213
0.816502
0.806026
0.816945
0.780066
0.816118
0.804898
0.811556
0.80383
0.818609
0.803193
0.816747
0.811713
0.816669
0.81362
0.718851
0.815225
0.816574
0.599065
0.815894
0.796849
0.802957
0.859124
0.819016
0.811546
0.872758
0.816163
0.816256
0.817667
0.819581
0.816025
0.764594
0.830341
0.80149
0.803213
0.815255
0.816148
0.817555
0.816045
0.814163
0.823001
0.803971
0.813261
0.809142
0.815346
0.820049
0.816074
0.812561
0.819976
0.808949
0.693466
0.661402
0.802683
0.808745
0.803373
0.812085
0.819093
0.817828
0.802933
0.804025
0.800717
0.800936
0.817655
0.844733
0.8193
0.811659
0.819211
0.818932
0.846257
0.818205
0.821215
0.785794
0.816568
0.806814
0.801469
0.792124
0.811489
0.819234
0.815907
0.816016
0.836041
0.806792
0.813636
0.817359
0.821633
0.803533
0.803266
0.805532
0.811768
0.816001
0.801636
0.803722
0.81771
0.822566
0.800941
0.637162
0.804268
0.7974
0.817396
0.798652
0.802753
0.749008
0.841296
0.802751
0.799879
0.835308
0.830294
0.810283
0.826815
0.800589
0.818611
0.818081
0.819439
0.803617
0.819033
0.729995
0.822966
0.811529
0.80024
0.813148
0.82121
0.799163
0.804013
0.783112
0.815196
0.816279
0.816378
0.819229
0.806439
0.817854
0.816615
0.826501
0.822023
0.83815
0.805996
0.696162
0.818655
0.840953
0.820466
0.80467
0.800145
0.803418
0.816879
0.81418
0.816791
0.744051
0.739721
0.800864
0.802959
0.816477
0.817266
0.799458
0.655593
0.7092
0.808033
0.768914
0.816682
0.704016
0.803048
0.728913
0.803188
0.820094
0.80312
0.818067
0.813606
0.798565
0.808635
0.794157
0.829877
0.816401
0.801315
0.803534
0.816612
0.822273
0.750343
0.823164
0.803743
0.783132
0.816284
0.803855
0.810623
0.815567
0.815887
0.835756
0.793412
0.799101
0.816171
0.75959
0.80668
0.81569
0.800996
0.81672
0.841303
0.802324
0.843616
0.809195
0.790879
0.812709
0.802613
0.852123
0.788471
0.803149
0.816811
0.832129
0.808377
0.814559
0.816511
0.802864
0.802685
0.825984
0.783225
0.815109
0.816131
0.648349
0.816322
0.713468
0.817638
0.838657
0.825043
0.804024
0.81542
0.816044
0.72662
0.815633
0.800968
0.801601
0.800944
0.816483
0.864156
0.801301
0.80108
0.78553
0.841091
0.827978
0.820214
0.813971
0.747484
0.804055
0.803312
0.731543
0.79959
0.715224
0.811219
0.800912
0.677547
0.880481
0.703241
0.77218
0.801456
0.744402
0.808368
0.799044
0.803021
0.661652
0.796743
0.784221
0.799114
0.730661
0.819343
0.823038
0.884781
0.809443
0.831482
0.646508
0.800079
0.787386
0.745805
0.752247
0.769943
0.707706
0.803102
0.799437
0.803177
0.764201
0.628864
0.811457
0.614944
0.821601
0.823162
0.81149
0.736878
0.812486
0.796104
0.819655
0.782927
0.807863
0.797131
0.810701
0.717495
0.80153
0.723413
0.801377
0.798885
0.688613
0.80368
0.815978
0.81603
0.803083
0.761852
0.815775
0.731664
0.691746
0.802328
0.816033
0.874709
0.815947
0.815228
0.880813
0.86572
0.831232
0.71681
0.802021
0.811885
0.82147
0.798573
0.683568
0.72346
0.679179
0.80235
0.702819
0.768896
0.799492
0.621181
0.689561
0.836436
0.774265
0.74625
0.830931
0.75999
0.769123
0.649729
0.732436
0.785716
0.820133
0.869779
0.838146
0.816288
0.795153
0.799754
0.717057
0.816181
0.695095
0.796992
0.816024
0.78345
0.763181
0.802169
0.783399
0.802213
0.800804
0.812395
0.811073
0.867431
0.58508
0.544069
0.802428
0.80747
0.69982
0.810132
0.80282
0.837895
0.80348
0.80238
0.570662
0.562563
0.808381
0.81307
0.816111
0.72848
0.803143
0.810984
0.686292
0.812135
0.802706
0.814689
0.80316
0.80098
0.802258
0.815137
0.802935
0.816999
0.803265
0.862392
0.815494
0.802506
0.720831
0.67235
0.816078
0.588825
0.813189
0.810137
0.836266
0.814477
0.803076
0.810739
0.814183
0.813793
0.815808
0.801647
0.854135
0.856814
0.802417
0.658326
0.809013
0.822385
0.799423
0.803158
0.820454
0.735864
0.803226
0.825607
0.821757
0.816262
0.815939
0.767265
0.745219
0.800968
0.834403
0.802996
0.814774
0.804643
0.803857
0.805172
0.814808
0.808964
0.798883
0.806868
0.806161
0.824624
0.806677
0.806271
0.818134
0.806985
0.803352
0.81391
0.802934
0.802827
0.8058
0.807957
0.814042
0.773967
0.805324
0.802687
0.815971
0.799807
0.803751
0.806857
0.832251
0.805026
0.653759
0.800859
0.815991
0.804653
0.814758
0.763535
0.81579
0.751484
0.803659
0.802217
0.804055
0.819012
0.851392
0.80436
0.80324
0.746721
0.830013
0.815932
0.820896
0.824925
0.815301
0.738008
0.818654
0.724215
0.801082
0.828025
0.802422
0.702889
0.826287
0.81522
0.816986
0.824573
0.816272
0.773631
0.817739
0.653088
0.713123
0.816021
0.823082
0.679903
0.819835
0.660105
0.821914
0.806975
0.81727
0.803159
0.805767
0.815387
0.831835
0.825107
0.672093
0.814003
0.842434
0.781685
0.846668
0.800256
0.708534
0.838929
0.820051
0.835987
0.691576
0.687392
0.833335
0.662554
0.831064
0.816022
0.829057
0.806311
0.827361
0.787841
0.825878
0.824508
0.710039
0.865961
0.823334
0.822343
0.823628
0.760092
0.802852
0.529952
0.80381
0.821484
0.814432
0.804785
0.826411
0.816009
0.798193
0.82073
0.802987
0.68468
0.792513
0.834342
0.815346
0.717959
0.799939
0.821586
0.579844
0.815674
0.816454
0.802687
0.809959
0.727913
0.818393
0.803016
0.803484
0.796036
0.794685
0.797981
0.794707
0.803264
0.813406
0.819359
0.814964
0.575424
0.893177
0.70838
0.797929
0.74105
0.791536
0.815982
0.81655
0.816451
0.607037
0.819607
0.81725
0.803982
0.818561
0.836836
0.839656
0.783
0.798457
0.799517
0.727362
0.753927
0.816165
0.764741
0.815223
0.819737
0.815733
0.813543
0.80194
0.776231
0.812105
0.816935
0.729334
0.810651
0.816731
0.818842
0.807885
0.809531
0.765752
0.815575
0.808259
0.803179
0.807498
0.619168
0.806569
0.804404
0.805987
0.821945
0.845724
0.804779
0.775261
0.80535
0.771741
0.820926
0.806557
0.813759
0.815994
0.850351
0.803416
0.744794
0.819834
0.816165
0.728271
0.801116
0.817068
0.758721
0.813641
0.572221
0.806671
0.686937
0.801423
0.811564
0.813325
0.818004
0.804244
0.816339
0.818439
0.801179
0.804573
0.844623
0.816976
0.796294
0.816905
0.802211
0.801777
0.800426
0.8014
0.807778
0.815577
0.801758
0.771045
0.819146
0.813376
0.808914
0.816002
0.589455
0.803425
0.81372
0.8162
0.788312
0.749493
0.718268
0.813495
0.815845
0.826502
0.790198
0.605541
0.772249
0.643701
0.817541
0.744886
0.813224
0.830449
0.698432
0.799859
0.834329
0.750983
0.800623
0.803167
0.816373
0.802808
0.700049
0.800838
0.553192
0.801933
0.802522
0.802223
0.601688
0.802939
0.803464
0.803197
0.729486
0.738407
0.803442
0.77714
0.816508
0.723225
0.707867
0.815954
0.80137
0.753464
0.854424
0.81482
0.813275
0.670938
0.802822
0.800684
0.800609
0.802503
0.658774
0.803303
0.8162
0.656101
0.686831
0.805893
0.791052
0.816069
0.823574
0.815861
0.816075
0.817233
0.803675
0.816126
0.815789
0.813852
0.829422
0.802664
0.801915
0.810515
0.729156
0.809618
0.815645
0.863042
0.811469
0.639955
0.775654
0.802271
0.776397
0.817488
0.812649
0.830395
0.814239
0.864846
0.802171
0.815437
0.59652
0.815817
0.834219
0.802927
0.815243
0.627163
0.816134
0.802706
0.817446
0.802279
0.818266
0.816776
0.754508
0.803593
0.803133
0.835494
0.862186
0.819734
0.816925
0.724435
0.743205
0.802562
0.80309
0.812213
0.81878
0.799728
0.802918
0.820152
0.807213
0.807592
0.739066
0.802748
0.818191
0.814609
0.768815
0.760393
0.812453
0.796489
0.857321
0.719769
0.834981
0.811734
0.710406
0.799767
0.815293
0.787484
0.800819
0.799761
0.815926
0.778137
0.774456
0.81431
0.69645
0.798864
0.766438
0.81581
0.81804
0.802109
0.788296
0.739647
0.753328
0.774632
0.815563
0.819654
0.806473
0.668819
0.802748
0.796417
0.777907
0.809782
0.813858
0.799618
0.803379
0.638181
0.804215
0.80483
0.85169
0.803737
0.809228
0.833743
0.805504
0.810904
0.852579
0.616425
0.804067
0.816981
0.805441
0.805052
0.805746
0.80461
0.804717
0.804228
0.805836
0.806517
0.725913
0.805731
0.807203
0.807353
0.815887
0.808322
0.819083
0.803115
0.803534
0.815537
0.815684
0.810849
0.803342
0.816271
0.81335
0.81038
0.816833
0.709967
0.814816
0.831977
0.815834
0.854645
0.750511
0.808792
0.815963
0.801084
0.618384
0.803279
0.773015
0.822544
0.628905
0.816446
0.830022
0.815609
0.812455
0.802171
0.827299
0.819655
0.803688
0.765489
0.817848
0.758727
0.550935
0.815329
0.692935
0.696892
0.820441
0.828173
0.828026
0.817468
0.847932
0.582076
0.877102
0.80529
0.826498
0.824856
0.813801
0.684021
0.815818
0.823343
0.817202
0.801288
0.773698
0.822317
0.569143
0.81374
0.843615
0.803158
0.840084
0.82213
0.803264
0.67197
0.843579
0.821097
0.836924
0.801031
0.814472
0.803065
0.834314
0.802879
0.814427
0.831912
0.829789
0.822078
0.824924
0.830998
0.738683
0.66491
0.570423
0.827964
0.826459
0.767802
0.757241
0.807142
0.825049
0.846999
0.595008
0.823785
0.822712
0.821818
0.820323
0.804001
0.820837
0.662087
0.745427
0.821033
0.797657
0.870412
0.890314
0.776726
0.804665
0.670865
0.835686
0.732296
0.721049
0.819193
0.801721
0.783666
0.665875
0.802229
0.816
0.789017
0.714424
0.801233
0.817216
0.798072
0.681357
0.82389
0.792899
0.816611
0.833787
0.815218
0.796459
0.817023
0.8168
0.785957
0.804085
0.713322
0.840788
0.793161
0.811859
0.78216
0.804481
0.699652
0.800916
0.813555
0.812188
0.811022
0.809507
0.808414
0.807657
0.806034
0.804919
0.806839
0.727367
0.80547
0.801512
0.795975
0.803348
0.844631
0.71749
0.803227
0.776281
0.884156
0.854678
0.798055
0.725453
0.803482
0.797735
0.720702
0.803361
0.801859
0.735893
0.803702
0.790738
0.797565
0.801243
0.738053
0.780572
0.805154
0.748593
0.764586
0.770407
0.80156
0.81556
0.808657
0.759778
0.751631
0.79956
0.814698
0.803333
0.7935
0.801198
0.928664
0.86083
0.818421
0.815876
0.723111
0.844747
0.748388
0.826239
0.816959
0.898289
0.816021
0.797407
0.591175
0.816041
0.797523
0.816065
0.797942
0.845889
0.52744
0.833339
0.801575
0.805739
0.804923
0.803913
0.856168
0.801384
0.818171
0.702617
0.666877
0.667925
0.816098
0.509037
0.797925
0.723354
0.842149
0.814963
0.561057
0.802592
0.815507
0.815205
0.71998
0.801855
0.527742
0.797465
0.816211
0.797587
0.802778
0.797827
0.816357
0.834305
0.803253
0.798531
0.816714
0.798797
0.816853
0.814265
0.799083
0.817012
0.814673
0.817199
0.799196
0.81741
0.680734
0.799392
0.817648
0.803087
0.799584
0.817888
0.699878
0.816019
0.798453
0.816003
0.798574
0.81082
0.838592
0.861642
0.801057
0.80067
0.81879
0.81549
0.800312
0.799937
0.863821
0.812753
0.818475
0.811273
0.850249
0.829119
0.817448
0.82593
0.846659
0.815967
0.801802
0.819986
0.812109
0.80223
0.815837
0.800229
0.80801
0.783253