# vtk DataFile Version 1.0
unstructured grid
ascii
DATASET UNSTRUCTURED_GRID
points 3920 float
-1 0 0
-1 1 0
2 0 0
2 1 0
0 0 0
1 0 0
-1 1 0.1
-1 0 0.1
0 0 0.1
1 0 0.1
2 0 0.1
2 1 0.1
-0.98 0 0
-0.96 0 0
-0.94 0 0
-0.92 0 0
-0.9 0 0
-0.88 0 0
-0.86 0 0
-0.84 0 0
-0.82 0 0
-0.8 0 0
-0.78 0 0
-0.76 0 0
-0.74 0 0
-0.72 0 0
-0.7 0 0
-0.68 0 0
-0.66 0 0
-0.64 0 0
-0.62 0 0
-0.6 0 0
-0.58 0 0
-0.56 0 0
-0.54 0 0
-0.52 0 0
-0.5 0 0
-0.48 0 0
-0.46 0 0
-0.44 0 0
-0.42 0 0
-0.4 0 0
-0.38 0 0
-0.36 0 0
-0.34 0 0
-0.32 0 0
-0.3 0 0
-0.28 0 0
-0.26 0 0
-0.24 0 0
-0.22 0 0
-0.2 0 0
-0.18 0 0
-0.16 0 0
-0.14 0 0
-0.12 0 0
-0.1 0 0
-0.08 0 0
-0.06 0 0
-0.04 0 0
-0.02 0 0
1.02 0 0
1.04 0 0
1.06 0 0
1.08 0 0
1.1 0 0
1.12 0 0
1.14 0 0
1.16 0 0
1.18 0 0
1.2 0 0
1.22 0 0
1.24 0 0
1.26 0 0
1.28 0 0
1.3 0 0
1.32 0 0
1.34 0 0
1.36 0 0
1.38 0 0
1.4 0 0
1.42 0 0
1.44 0 0
1.46 0 0
1.48 0 0
1.5 0 0
1.52 0 0
1.54 0 0
1.56 0 0
1.58 0 0
1.6 0 0
1.62 0 0
1.64 0 0
1.66 0 0
1.68 0 0
1.7 0 0
1.72 0 0
1.74 0 0
1.76 0 0
1.78 0 0
1.8 0 0
1.82 0 0
1.84 0 0
1.86 0 0
1.88 0 0
1.9 0 0
1.92 0 0
1.94 0 0
1.96 0 0
1.98 0 0
2 0.0199133 0
2 0.0414128 0
2 0.0646247 0
2 0.0896856 0
2 0.116743 0
2 0.145955 0
2 0.177494 0
2 0.211545 0
2 0.248309 0
2 0.288001 0
2 0.330854 0
2 0.377121 0
2 0.427073 0
2 0.481004 0
2 0.539231 0
2 0.602096 0
2 0.669968 0
2 0.743247 0
2 0.822362 0
2 0.907779 0
1.9 1 0
1.8 1 0
1.7 1 0
1.6 1 0
1.5 1 0
1.4 1 0
1.3 1 0
1.2 1 0
1.1 1 0
1 1 0
0.9 1 0
0.8 1 0
0.7 1 0
0.6 1 0
0.5 1 0
0.4 1 0
0.3 1 0
0.2 1 0
0.1 1 0
3.69793e-12 1 0
-0.1 1 0
-0.2 1 0
-0.3 1 0
-0.4 1 0
-0.5 1 0
-0.6 1 0
-0.7 1 0
-0.8 1 0
-0.9 1 0
-1 0.907779 0
-1 0.822362 0
-1 0.743247 0
-1 0.669968 0
-1 0.602096 0
-1 0.539231 0
-1 0.481004 0
-1 0.427073 0
-1 0.377121 0
-1 0.330854 0
-1 0.288001 0
-1 0.248309 0
-1 0.211545 0
-1 0.177494 0
-1 0.145955 0
-1 0.116743 0
-1 0.0896856 0
-1 0.0646247 0
-1 0.0414128 0
-1 0.0199133 0
0.0182781 0.00745351 0
0.0366672 0.0146286 0
0.0551632 0.0215237 0
0.0737617 0.0281372 0
0.0924585 0.0344675 0
0.111249 0.0405131 0
0.13013 0.0462728 0
0.149095 0.0517451 0
0.168142 0.0569289 0
0.187265 0.0618228 0
0.20646 0.0664258 0
0.225723 0.0707368 0
0.245049 0.0747549 0
0.264434 0.078479 0
0.283873 0.0819084 0
0.303362 0.0850422 0
0.322896 0.0878798 0
0.342472 0.0904204 0
0.362083 0.0926635 0
0.381726 0.0946086 0
0.401397 0.0962552 0
0.42109 0.0976029 0
0.440802 0.0986514 0
0.460527 0.0994006 0
0.480261 0.0998501 0
0.5 0.1 0
0.519739 0.0998501 0
0.539473 0.0994006 0
0.559198 0.0986514 0
0.57891 0.0976029 0
0.598603 0.0962552 0
0.618274 0.0946086 0
0.637917 0.0926635 0
0.657528 0.0904204 0
0.677104 0.0878798 0
0.696638 0.0850422 0
0.716127 0.0819084 0
0.735566 0.078479 0
0.754951 0.0747549 0
0.774277 0.0707368 0
0.79354 0.0664258 0
0.812735 0.0618228 0
0.831858 0.0569289 0
0.850905 0.0517451 0
0.86987 0.0462728 0
0.888751 0.0405131 0
0.907542 0.0344675 0
0.926238 0.0281372 0
0.944837 0.0215237 0
0.963333 0.0146286 0
0.981722 0.00745351 0
-1 0.907779 0.1
-1 0.822362 0.1
-1 0.743247 0.1
-1 0.669968 0.1
-1 0.602096 0.1
-1 0.539231 0.1
-1 0.481004 0.1
-1 0.427073 0.1
-1 0.377121 0.1
-1 0.330854 0.1
-1 0.288001 0.1
-1 0.248309 0.1
-1 0.211545 0.1
-1 0.177494 0.1
-1 0.145955 0.1
-1 0.116743 0.1
-1 0.0896856 0.1
-1 0.0646247 0.1
-1 0.0414128 0.1
-1 0.0199133 0.1
-0.98 0 0.1
-0.96 0 0.1
-0.94 0 0.1
-0.92 0 0.1
-0.9 0 0.1
-0.88 0 0.1
-0.86 0 0.1
-0.84 0 0.1
-0.82 0 0.1
-0.8 0 0.1
-0.78 0 0.1
-0.76 0 0.1
-0.74 0 0.1
-0.72 0 0.1
-0.7 0 0.1
-0.68 0 0.1
-0.66 0 0.1
-0.64 0 0.1
-0.62 0 0.1
-0.6 0 0.1
-0.58 0 0.1
-0.56 0 0.1
-0.54 0 0.1
-0.52 0 0.1
-0.5 0 0.1
-0.48 0 0.1
-0.46 0 0.1
-0.44 0 0.1
-0.42 0 0.1
-0.4 0 0.1
-0.38 0 0.1
-0.36 0 0.1
-0.34 0 0.1
-0.32 0 0.1
-0.3 0 0.1
-0.28 0 0.1
-0.26 0 0.1
-0.24 0 0.1
-0.22 0 0.1
-0.2 0 0.1
-0.18 0 0.1
-0.16 0 0.1
-0.14 0 0.1
-0.12 0 0.1
-0.1 0 0.1
-0.08 0 0.1
-0.06 0 0.1
-0.04 0 0.1
-0.02 0 0.1
0.0182781 0.00745351 0.1
0.0366672 0.0146286 0.1
0.0551632 0.0215237 0.1
0.0737617 0.0281372 0.1
0.0924585 0.0344675 0.1
0.111249 0.0405131 0.1
0.13013 0.0462728 0.1
0.149095 0.0517451 0.1
0.168142 0.0569289 0.1
0.187265 0.0618228 0.1
0.20646 0.0664258 0.1
0.225723 0.0707368 0.1
0.245049 0.0747549 0.1
0.264434 0.078479 0.1
0.283873 0.0819084 0.1
0.303362 0.0850422 0.1
0.322896 0.0878798 0.1
0.342472 0.0904204 0.1
0.362083 0.0926635 0.1
0.381726 0.0946086 0.1
0.401397 0.0962552 0.1
0.42109 0.0976029 0.1
0.440802 0.0986514 0.1
0.460527 0.0994006 0.1
0.480261 0.0998501 0.1
0.5 0.1 0.1
0.519739 0.0998501 0.1
0.539473 0.0994006 0.1
0.559198 0.0986514 0.1
0.57891 0.0976029 0.1
0.598603 0.0962552 0.1
0.618274 0.0946086 0.1
0.637917 0.0926635 0.1
0.657528 0.0904204 0.1
0.677104 0.0878798 0.1
0.696638 0.0850422 0.1
0.716127 0.0819084 0.1
0.735566 0.078479 0.1
0.754951 0.0747549 0.1
0.774277 0.0707368 0.1
0.79354 0.0664258 0.1
0.812735 0.0618228 0.1
0.831858 0.0569289 0.1
0.850905 0.0517451 0.1
0.86987 0.0462728 0.1
0.888751 0.0405131 0.1
0.907542 0.0344675 0.1
0.926238 0.0281372 0.1
0.944837 0.0215237 0.1
0.963333 0.0146286 0.1
0.981722 0.00745351 0.1
1.02 0 0.1
1.04 0 0.1
1.06 0 0.1
1.08 0 0.1
1.1 0 0.1
1.12 0 0.1
1.14 0 0.1
1.16 0 0.1
1.18 0 0.1
1.2 0 0.1
1.22 0 0.1
1.24 0 0.1
1.26 0 0.1
1.28 0 0.1
1.3 0 0.1
1.32 0 0.1
1.34 0 0.1
1.36 0 0.1
1.38 0 0.1
1.4 0 0.1
1.42 0 0.1
1.44 0 0.1
1.46 0 0.1
1.48 0 0.1
1.5 0 0.1
1.52 0 0.1
1.54 0 0.1
1.56 0 0.1
1.58 0 0.1
1.6 0 0.1
1.62 0 0.1
1.64 0 0.1
1.66 0 0.1
1.68 0 0.1
1.7 0 0.1
1.72 0 0.1
1.74 0 0.1
1.76 0 0.1
1.78 0 0.1
1.8 0 0.1
1.82 0 0.1
1.84 0 0.1
1.86 0 0.1
1.88 0 0.1
1.9 0 0.1
1.92 0 0.1
1.94 0 0.1
1.96 0 0.1
1.98 0 0.1
2 0.0199133 0.1
2 0.0414128 0.1
2 0.0646247 0.1
2 0.0896856 0.1
2 0.116743 0.1
2 0.145955 0.1
2 0.177494 0.1
2 0.211545 0.1
2 0.248309 0.1
2 0.288001 0.1
2 0.330854 0.1
2 0.377121 0.1
2 0.427073 0.1
2 0.481004 0.1
2 0.539231 0.1
2 0.602096 0.1
2 0.669968 0.1
2 0.743247 0.1
2 0.822362 0.1
2 0.907779 0.1
1.9 1 0.1
1.8 1 0.1
1.7 1 0.1
1.6 1 0.1
1.5 1 0.1
1.4 1 0.1
1.3 1 0.1
1.2 1 0.1
1.1 1 0.1
1 1 0.1
0.9 1 0.1
0.8 1 0.1
0.7 1 0.1
0.6 1 0.1
0.5 1 0.1
0.4 1 0.1
0.3 1 0.1
0.2 1 0.1
0.1 1 0.1
3.69793e-12 1 0.1
-0.1 1 0.1
-0.2 1 0.1
-0.3 1 0.1
-0.4 1 0.1
-0.5 1 0.1
-0.6 1 0.1
-0.7 1 0.1
-0.8 1 0.1
-0.9 1 0.1
1.08758 0.0158154 0
-0.0898513 0.0203294 0
0.0966181 0.0537636 0
0.90205 0.0548881 0
1.21055 0.0202058 0
-0.209811 0.0159577 0
1.3305 0.0176902 0
-0.33 0.0173205 0
1.45324 0.0148141 0
-0.448654 0.0159854 0
1.56842 0.0191785 0
-0.569936 0.0166364 0
0.193292 0.0805369 0
0.805051 0.0813623 0
0.709096 0.100353 0
0.288591 0.0996656 0
0.390184 0.111848 0
0.61033 0.111742 0
0.488809 0.116278 0
1.67175 0.0169692 0
-0.67 0.0169809 0
-0.955017 0.454039 0
1.95131 0.44569 0
1.74981 0.0168753 0
-0.75 0.0173205 0
-0.968032 0.266538 0
1.96871 0.266267 0
0.978232 0.0305687 0
0.0208675 0.026451 0
-0.150454 0.91842 0
1.13854 0.907437 0
1.45012 0.904365 0
-0.445923 0.908903 0
-0.853423 0.0157019 0
1.84881 0.016319 0
0.853689 0.915652 0
0.153944 0.912184 0
0.545151 0.914125 0
0.549913 0.115152 0
1.51 0.0173205 0
-0.506989 0.01651 0
1.27 0.0173205 0
1.14976 0.0173333 0
-0.268171 0.0206442 0
-0.150501 0.0153244 0
-0.391384 0.0153993 0
1.38886 0.0171544 0
-0.973694 0.161724 0
1.97441 0.162392 0
-0.945221 0.633523 0
1.94544 0.63312 0
1.91008 0.0186068 0
-0.91 0.0169616 0
-0.030664 0.0194327 0
1.03074 0.0165456 0
-0.966065 0.353575 0
1.96128 0.359765 0
1.93879 0.781254 0
-0.937057 0.781882 0
-0.980746 0.080709 0
1.9772 0.0760699 0
0.058735 0.0409372 0
0.355202 0.913001 0
0.86356 0.0661005 0
0.134223 0.0651111 0
0.941972 0.0397386 0
-0.653034 0.915003 0
1.65328 0.904589 0
0.770126 0.0881325 0
0.232946 0.0902008 0
0.330582 0.105648 0
0.670612 0.108365 0
0.428707 0.116145 0
1.80993 0.016629 0
-0.810168 0.0172178 0
-0.71 0.0173205 0
1.63047 0.0175504 0
1.70842 0.0169661 0
-0.628824 0.0181787 0
-0.949815 0.0133898 0
1.95 0.0173205 0
1.85542 0.907891 0
-0.85 0.913397 0
1.9833 0.0307692 0
-0.983315 0.0309709 0
-0.750025 0.916468 0
-0.701107 0.836904 0
-0.607741 0.836428 0
-0.656448 0.759827 0
-0.572936 0.758144 0
-0.61411 0.691195 0
-0.539534 0.689068 0
-0.578542 0.626111 0
-0.507461 0.624216 0
-0.544001 0.566638 0
-0.477696 0.564279 0
-0.511582 0.51001 0
-0.451689 0.507147 0
-0.481834 0.457732 0
-0.426137 0.454624 0
-0.453236 0.407539 0
-0.398845 0.406233 0
-0.507958 0.409496 0
-0.368427 0.460177 0
-0.344602 0.405209 0
-0.315696 0.447824 0
-0.294128 0.402169 0
-0.262844 0.444518 0
-0.241968 0.388746 0
-0.209878 0.439557 0
-0.185184 0.391135 0
-0.156687 0.437338 0
-0.133719 0.390776 0
-0.104405 0.434306 0
-0.0818745 0.388334 0
-0.0528785 0.431165 0
-0.0305984 0.385639 0
-0.00180552 0.427863 0
0.0194564 0.382608 0
0.0485809 0.42449 0
0.0701962 0.37973 0
0.0985483 0.421145 0
0.119893 0.377339 0
0.147837 0.417911 0
0.172552 0.36751 0
0.197018 0.412597 0
0.221203 0.37141 0
0.24512 0.409646 0
-0.48178 0.364657 0
-0.531053 0.364782 0
-0.0599102 0.344151 0
-0.324909 0.359566 0
0.266181 0.368462 0
0.292132 0.407649 0
0.311992 0.365779 0
0.338918 0.404821 0
0.357567 0.355909 0
0.384723 0.40053 0
0.404675 0.359681 0
0.430617 0.398558 0
0.450457 0.35827 0
0.474237 0.395182 0
0.496746 0.34898 0
0.520548 0.397931 0
0.542071 0.353121 0
0.566011 0.389914 0
0.585061 0.350856 0
0.609352 0.38696 0
0.629069 0.348168 0
0.655979 0.391217 0
0.67472 0.346182 0
0.699346 0.381414 0
0.719333 0.341965 0
0.743718 0.377547 0
0.764028 0.339036 0
0.788201 0.373582 0
0.807659 0.336101 0
0.832821 0.372249 0
0.852309 0.334017 0
0.877785 0.370339 0
0.897875 0.331141 0
0.922904 0.366281 0
0.943173 0.327335 0
0.968282 0.363358 0
0.989029 0.324222 0
1.01391 0.361511 0
1.03465 0.321428 0
1.05949 0.358447 0
1.08389 0.312052 0
1.10575 0.355104 0
1.12889 0.31562 0
1.15067 0.353235 0
1.17157 0.312819 0
1.19626 0.349369 0
1.21618 0.309863 0
1.2416 0.346914 0
1.26131 0.30715 0
1.28691 0.344312 0
1.30571 0.303752 0
1.33144 0.341222 0
1.35018 0.300911 0
1.3758 0.338308 0
1.39501 0.298931 0
1.42015 0.335235 0
1.43904 0.296349 0
1.46355 0.330194 0
1.48256 0.293347 0
1.50685 0.326967 0
1.52589 0.29055 0
1.54996 0.325305 0
1.56909 0.287929 0
[...]
CELL_DATA 3694
SCALARS rho float
LOOKUP_TABLE default
0.794583
0.773523
0.817113
0.875836
0.853419
0.818994
0.815942
0.814001
0.858415
0.813768
0.865466
0.865418
0.847856
0.816173
0.814422
0.813109
0.812228
0.81466
0.815669
0.86523
0.849453
0.859313
0.798675
0.817256
0.797035
0.847094
0.789168
0.82283
0.844894
0.804592
0.804477
0.787278
0.81482
0.836686
0.816418
0.836658
0.855889
0.858246
0.852788
0.811051
0.818026
0.831259
0.843113
0.837099
0.825345
0.876448
0.816902
0.776002
0.768247
0.806597
0.816641
0.808483
0.863054
0.82116
0.777153
0.856825
0.816138
0.852141
0.841629
0.805044
0.81951
0.88382
0.862632
0.813047
0.864662
0.858368
0.82364
0.879761
0.787497
0.873008
0.80766
0.823351
0.859334
0.812511
0.857786
0.808908
0.830102
0.808287
0.864739
0.816634
0.797755
0.832249
0.806962
0.810062
0.852525
0.808767
0.851817
0.797348
0.789078
0.849994
0.834309
0.813306
0.833792
0.847764
0.762997
0.821419
0.785397
0.864131
0.868334
0.861381
0.873441
0.816819
0.780335
0.856499
0.851825
0.883768
0.864433
0.821961
0.789415
0.862064
0.819247
0.807276
0.781118
0.848533
0.879021
0.812685
0.835215
0.868412
0.807395
0.812264
0.807361
0.836193
0.855519
0.816129
0.771029
0.809633
0.862184
0.822681
0.860447
0.79761
0.808363
0.82314
0.823659
0.81559
0.817112
0.830574
0.819524
0.807403
0.803721
0.872663
0.863358
0.796371
0.864116
0.877697
0.809217
0.777853
0.764355
0.805845
0.870827
0.82794
0.81159
0.809783
0.752007
0.820449
0.78453
0.81718
0.780377
0.823775
0.745981
0.818676
0.84466
0.755494
0.815956
0.795969
0.865403
0.749784
0.831092
0.813529
0.819353
0.764444
0.810636
0.772689
0.872839
0.749799
0.819714
0.77927
0.868437
0.86061
0.855526
0.791649
0.861189
0.787097
0.859123
0.794301
0.755582
0.811441
0.759831
0.858293
0.81619
0.868733
0.819215
0.773196
0.885134
0.806291
0.80615
0.855492
0.827179
0.863807
0.795191
0.811342
0.813062
0.829357
0.860117
0.842699
0.831246
0.874425
0.778797
0.817762
0.802916
0.810596
0.800396
0.830659
0.815093
0.820795
0.858985
0.816949
0.859739
0.801845
0.859086
0.853095
0.871245
0.855539
0.839574
0.8005
0.859085
0.761798
0.817549
0.846805
0.868904
0.8579
0.854443
0.819536
0.81201
0.864707
0.860237
0.865053
0.798214
0.836136
0.784363
0.830247
0.815037
0.850554
0.774728
0.822991
0.813052
0.82191
0.807153
0.811401
0.87922
0.864117
0.814527
0.7646
0.824756
0.817432
0.757375
0.832629
0.815839
0.809018
0.857322
0.882745
0.74789
0.87749
0.828928
0.83625
0.874954
0.809379
0.830385
0.843858
0.843561
0.809154
0.805895
0.861174
0.826357
0.807576
0.818842
0.884261
0.782646
0.736043
0.863628
0.840036
0.859342
0.825389
0.793086
0.87496
0.876872
0.850124
0.800305
0.830481
0.883337
0.7529
0.807586
0.87776
0.762433
0.814941
0.861256
0.851435
0.884727
0.775572
0.825701
0.883593
0.815785
0.813579
0.828921
0.855432
0.831537
0.811639
0.82332
0.810081
0.753749
0.860209
0.859152
0.780698
0.829626
0.862324
0.834984
0.777426
0.752417
0.85993
0.857568
0.824637
0.787256
0.789528
0.792942
0.809849
0.859727
0.822504
0.816909
0.810185
0.789777
0.857955
0.852029
0.832901
0.816363
0.879188
0.875924
0.864831
0.863877
0.812976
0.822872
0.819992
0.764395
0.806836
0.827778
0.794792
0.823683
0.819303
0.861606
0.816255
0.825446
0.818588
0.883621
0.860231
0.860806
0.807416
0.79319
0.801661
0.818788
0.826765
0.771632
0.816119
0.823979
0.831058
0.807086
0.821164
0.862
0.868713
0.863669
0.818876
0.818795
0.815521
0.820998
0.864976
0.833478
0.77416
0.818119
0.7989
0.770909
0.814112
0.741266
0.813221
0.816609
0.8274
0.883764
0.85383
0.862108
0.842623
0.860824
0.858022
0.810029
0.815503
0.827307
0.775216
0.860153
0.809684
0.803799
0.786464
0.875837
0.867525
0.860121
0.825058
0.835965
0.876286
0.817227
0.813556
0.858007
0.770333
0.815603
0.861658
0.837923
0.816338
0.876728
0.828281
0.855182
0.864725
0.84044
0.771917
0.835637
0.809776
0.804165
0.792794
0.848315
0.825118
0.825671
0.758519
0.881569
0.839889
0.871051
0.813108
0.817968
0.858163
0.815728
0.799078
0.818479
0.807107
0.880578
0.858371
0.860901
0.880609
0.859102
0.824633
0.860131
0.780068
0.859116
0.862154
0.867294
0.749838
0.876774
0.82464
0.865915
0.859888
0.811754
0.738548
0.825359
0.795777
0.821212
0.808686
0.827734
0.883125
0.836668
0.819188
0.828235
0.864496
0.807384
0.875852
0.806622
0.868475
0.862893
0.754021
0.816004
0.819767
0.866231
0.864198
0.780024
0.81038
0.824887
0.827813
0.822301
0.815523
0.873028
0.862771
0.835137
0.820625
0.858691
0.855924
0.809929
0.821451
0.825782
0.862573
0.770389
0.820056
0.854827
0.807859
0.818314
0.747876
0.860509
0.817186
0.884557
0.863654
0.858756
0.863617
0.861848
0.871764
0.799161
0.807792
0.866102
0.854772
0.77888
0.808337
0.808366
0.881086
0.865808
0.861877
0.805803
0.826766
0.805977
0.87135
0.828683
0.739459
0.814273
0.809046
0.801724
0.816496
0.868681
0.8144
0.835963
0.87431
0.845754
0.857284
0.81825
0.846173
0.79069
0.801057
0.816805
0.849941
0.853652
0.815406
0.802819
0.792086
0.88096
0.829695
0.829825
0.743084
0.877582
0.846382
0.85897
0.813642
0.843419
0.856351
0.828081
0.863126
0.812677
0.827906
0.853467
0.87296
0.845437
0.84814
0.795433
0.816296
0.829809
0.813136
0.867202
0.809936
0.835044
0.750567
0.840716
0.865754
0.826074
0.862017
0.820326
0.879219
0.78861
0.865045
0.773246
0.81079
0.865162
0.8225
0.781965
0.756898
0.830277
0.820452
0.819101
0.826589
0.810695
0.85843
0.858061
0.818651
0.813847
0.860713
0.745389
0.869485
0.816963
0.796368
0.856852
0.775001
0.826928
0.866128
0.856749
0.848572
0.876428
0.832786
0.830935
0.818846
0.811318
0.870975
0.826448
0.857252
0.811395
0.798457
0.818965
0.878621
0.876932
0.84735
0.871785
0.868904
0.879637
0.853903
0.81117
0.822032
0.869488
0.81577
0.739302
0.79321
0.827036
0.880337
0.874248
0.81416
0.824727
0.828242
0.817284
0.817859
0.815639
0.847817
0.849531
0.878668
0.826326
0.843932
0.848597
0.751736
0.815579
0.813481
0.836161
0.792902
0.79173
0.803155
0.811513
0.857568
0.883972
0.880455
0.825917
0.736903
0.8304
0.737697
0.797624
0.858946
0.878172
0.810896
0.862945
0.869696
0.78657
0.865933
0.826813
0.829464
0.827231
0.762136
0.871175
0.794358
0.80932
0.820986
0.818127
0.80508
0.842109
0.877634
0.783256
0.843847
0.812312
0.795858
0.863154
0.80667
0.752637
0.815057
0.869512
0.851668
0.878168
0.815242
0.807867
0.819743
0.845378
0.771224
0.870348
0.852045
0.859097
0.811151
0.85965
0.793204
0.818251
0.761549
0.776697
0.83277
0.83544
0.829858
0.885016
0.87235
0.875969
0.883804
0.746272
0.805452
0.884311
0.797906
0.825874
0.871434
0.873857
0.780355
0.766687
0.796632
0.769293
0.827297
0.780918
0.872544
0.805014
0.878818
0.845367
0.76769
0.836224
0.854041
0.853122
0.810328
0.823984
0.802455
0.815514
0.85169
0.757421
0.757295
0.875758
0.819755
0.850632
0.817897
0.799596
0.820202
0.803023
0.801277
0.811774
0.860062
0.827315
0.769239
0.859137
0.846363
0.866039
0.794907
0.765267
0.784172
0.881731
0.869565
0.85692
0.750095
0.783215
0.757187
0.81775
0.805332
0.76771
0.827243
0.847993
0.812992
0.813633
0.802295
0.871625
0.771868
0.883463
0.828376
0.837518
0.808318
0.848558
0.800413
0.871937
0.88225
0.815623
0.753675
0.830982
0.861583
0.813792
0.884321
0.79458
0.817539
0.852091
0.780017
0.863142
0.805197
0.828714
0.752526
0.762032
0.799925
0.821123
0.862232
0.863583
0.859109
0.82981
0.867858
0.777239
0.804766
0.859466
0.857799
0.778531
0.808449
0.872996
0.842894
0.787733
0.83156
0.816249
0.773823
0.827333
0.77568
0.840536
0.763122
0.807361
0.787396
0.781348
0.85986
0.817105
0.804786
0.752385
0.85997
0.835178
0.857683
0.814622
0.884063
0.806211
0.824003
0.809322
0.818352
0.85544
0.809128
0.82637
0.808699
0.862303
0.746098
0.81472
0.856461
0.855828
0.858504
0.857308
0.806498
0.835785
0.809777
0.809155
0.860529
0.7803
0.85966
0.859897
0.808762
0.859264
0.860248
0.803903
0.806202
0.858617
0.825058
0.81921
0.860721
0.882074
0.855191
0.838259
0.866588
0.875113
0.815591
0.86268
0.853473
0.81485
0.799237
0.863874
0.821439
0.808899
0.835083
0.820593
0.863086
0.836929
0.862265
0.866042
0.880484
0.809183
0.819994
0.862662
0.809112
0.870374
0.822527
0.806411
0.869307
0.861155
0.797279
0.801918
0.868179
0.849223
0.834901
0.783053
0.859775
0.814275
0.853453
0.814944
0.798773
0.807329
0.806274
0.829986
0.856065
0.782318
0.800384
0.813566
0.817158
0.816621
0.848049
0.782945
0.881621
0.815064
0.813843
0.846911
0.874343
0.801361
0.868513
0.811819
0.817882
0.842246
0.814662
0.818597
0.822026
0.819911
0.875198
0.757141
0.884262
0.769014
0.786652
0.815009
0.861395
0.882122
0.812007
0.876061
0.839768
0.803557
0.815699
0.872204
0.80865
0.853804
0.824729
0.749476
0.802409
0.824441
0.777568
0.806965
0.748843
0.844821
0.88276
0.845428
0.807403
0.808298
0.783552
0.816344
0.795429
0.816188
0.884395
0.850139
0.861536
0.821361
0.833885
0.847029
0.815906
0.823898
0.790652
0.815654
0.805429
0.824404
0.805395
0.811399
0.849815
0.817479
0.815346
0.830477
0.859684
0.795443
0.809495
0.811059
0.819422
0.743471
0.873702
0.874463
0.834809
0.775631
0.875246
0.873308
0.806578
0.816375
0.818221
0.8213
0.823063
0.832963
0.870368
0.798066
0.841357
0.882243
0.813976
0.808727
0.844124
0.815104
0.864356
0.83732
0.824418
0.85144
0.817712
0.818927
0.824259
0.859006
0.861314
0.817172
0.742756
0.858646
0.857276
0.811058
0.85968
0.859621
0.857475
0.857147
0.824085
0.858133
0.858918
0.815871
0.825052
0.866104
0.846353
0.859193
0.814468
0.838339
0.819774
0.820045
0.824798
0.802766
0.825075
0.74384
0.862392
0.858863
0.859171
0.822114
0.832083
0.85894
0.832719
0.860118
0.862557
0.860375
0.828409
0.80482
0.859597
0.864763
0.865435
0.810276
0.822335
0.876879
0.860744
0.866778
0.866931
0.809938
0.836385
0.822697
0.842744
0.86255
0.853339
0.820347
0.804099
0.812495
0.818408
0.874252
0.817945
0.833576
0.834633
0.825549
0.817403
0.814795
0.832995
0.791572
0.829222
0.824712
0.81022
0.815297
0.828176
0.833642
0.800966
0.861448
0.829701
0.837671
0.86136
0.825641
0.868517
0.851648
0.842425
0.845195
0.826843
0.810161
0.808325
0.791804
0.87996
0.835352
0.818959
0.859619
0.823216
0.861924
0.820408
0.807083
0.813617
0.807183
0.807744
0.861278
0.864231
0.826725
0.825866
0.743498
0.803394
0.818738
0.825164
0.818567
0.862675
0.8212
0.86972
0.815566
0.878505
0.819518
0.863371
0.817747
0.861544
0.806003
0.870968
0.859515
0.865473
0.859203
0.799887
0.857312
0.872308
0.741905
0.879595
0.819264
0.817213
0.872972
0.85611
0.861276
0.880923
0.869241
0.870318
0.866581
0.861659
0.85897
0.810177
0.840005
0.814398
0.813582
0.854938
0.872297
0.86716
0.876054
0.855443
0.835369
0.817249
0.856034
0.824426
0.829915
0.833161
0.876902
0.856972
0.8593
0.825762
0.767891
0.778106
0.811568
0.824634
0.814184
0.858206
0.859447
0.858394
0.812032
0.820179
0.811201
0.809007
0.861215
0.86144
0.862683
0.827018
0.860363
0.863147
0.850978
0.859663
0.834108
0.816954
0.860484
0.822256
0.817052
0.818206
0.850705
0.861188
0.877043
0.868081
0.843842
0.843509
0.875768
0.860014
0.834273
0.814596
0.815318
0.820168
0.86591
0.875189
0.809703
0.839727
0.866038
0.834854
0.812055
0.753753
0.817076
0.830034
0.831382
0.822146
0.815909
0.801286
0.863561
0.819561
0.807139
0.861038
0.859487
0.825556
0.858966
0.809393
0.863024
0.854664
0.86223
0.814908
0.862609
0.809336
0.859436
0.827543
0.809857
0.828018
0.860467
0.819925
0.816233
0.824528
0.829504
0.875152
0.874347
0.862036
0.821252
0.8661
0.870082
0.852496
0.834446
0.86221
0.820977
0.772087
0.860856
0.858346
0.861117
0.81915
0.805736
0.816895
0.852875
0.828743
0.867723
0.800502
0.810466
0.811677
0.818691
0.868422
0.858903
0.83855
0.77989
0.779706
0.823403
0.805558
0.871626
0.782161
0.808995
0.791657
0.806464
0.833298
0.80749
0.86483
0.867489
0.81381
0.823845
0.831537
0.840169
0.873709
0.812982
0.816191
0.86384
0.858001
0.809039
0.85126
0.815283
0.813444
0.874458
0.815869
0.826228
0.884445
0.876206
0.85918
0.831176
0.803252
0.875227
0.806981
0.821907
0.883104
0.81716
0.866669
0.847389
0.814585
0.862589
0.839183
0.825883
0.874826
0.808004
0.854461
0.817418
0.81176
0.870875
0.860038
0.823522
0.874454
0.870719
0.812584
0.812688
0.837254
0.820905
0.874311
0.873291
0.781072
0.872343
0.780708
0.831423
0.860122
0.85714
0.82514
0.879828
0.878324
0.794668
0.882485
0.815146
0.805335
0.810467
0.867426
0.876031
0.810111
0.812449
0.816059
0.86382
0.838423
0.859496
0.864298
0.80181
0.837801
0.805934
0.793354
0.813189
0.785085
0.862978
0.811485
0.770669
0.885764
0.773781
0.806644
0.817696
0.807865
0.823715
0.807126
0.808131
0.764876
0.81477
0.816365
0.809287
0.80935
0.861321
0.85949
0.888444
0.82485
0.84127
0.759845
0.812152
0.824252
0.811783
0.812971
0.81936
0.796985
0.815935
0.810194
0.816218
0.814499
0.755829
0.826461
0.752973
0.852404
0.846395
0.826661
0.796834
0.840897
0.835343
0.854957
0.816225
0.851594
0.814388
0.860267
0.784706
0.811086
0.795143
0.810563
0.805688
0.793509
0.817397
0.881724
0.880734
0.810453
0.80972
0.878253
0.788775
0.775
0.808751
0.881283
0.882768
0.882637
0.872778
0.885492
0.875063
0.851795
0.78201
0.811297
0.827018
0.834406
0.834262
0.791495
0.787184
0.79102
0.808944
0.77562
0.814951
0.80543
0.77375
0.769669
0.855629
0.818659
0.805539
0.857528
0.811741
0.806535
0.764296
0.799877
0.824853
0.850013
0.878045
0.857394
0.873577
0.830296
0.80611
0.794444
0.877135
0.777283
0.821298
0.882519
0.813974
0.810434
0.834847
0.823199
0.817475
0.807993
0.863845
0.828179
0.87701
0.759799
0.746448
0.810452
0.838735
0.789381
0.825794
0.810548
0.858058
0.81496
0.805269
0.750062
0.756042
0.827497
0.86585
0.878554
0.808728
0.807911
0.841888
0.78611
0.868782
0.808296
0.884065
0.805526
0.832537
0.804874
0.884584
0.805335
0.832224
0.813514
0.874284
0.884916
0.805017
0.778991
0.783571
0.872267
0.755116
0.844479
0.825565
0.857858
0.861082
0.812429
0.826384
0.883518
0.867673
0.885268
0.80449
0.856255
0.871226
0.816388
0.782135
0.847044
0.835167
0.813062
0.810116
0.851685
0.80988
0.805543
0.85111
0.851109
0.862495
0.874228
0.811045
0.794909
0.814693
0.857625
0.818355
0.846992
0.820149
0.819276
0.820847
0.883466
0.824546
0.808906
0.823657
0.821813
0.8364
0.822946
0.822072
0.864202
0.822671
0.805536
0.883294
0.808228
0.805629
0.821136
0.823589
0.882504
0.815143
0.820181
0.810337
0.885521
0.803472
0.815211
0.82422
0.857213
0.819288
0.782465
0.806405
0.864607
0.818291
0.829746
0.812041
0.866806
0.809527
0.814388
0.805172
0.816291
0.832428
0.86828
0.817319
0.805961
0.795974
0.856836
0.882742
0.858399
0.836523
0.852745
0.807101
0.862303
0.804822
0.819056
0.856651
0.808073
0.795086
0.856647
0.848952
0.8698
0.85677
0.875717
0.814312
0.865414
0.783438
0.802957
0.882205
0.857103
0.791134
0.861894
0.760152
0.857682
0.823037
0.867925
0.80705
0.821819
0.850835
0.841469
0.836546
0.753113
0.880013
0.863833
0.816047
0.865892
0.812323
0.801953
0.862248
0.861408
0.861072
0.795851
0.79179
0.860122
0.785433
0.859459
0.880815
0.859011
0.824459
0.858811
0.817186
0.85878
0.858873
0.801763
0.877421
0.859125
0.859526
0.835536
0.81158
0.80969
0.745755
0.840949
0.860064
0.874471
0.824127
0.858032
0.885585
0.802402
0.860687
0.81002
0.788215
0.817772
0.842991
0.879821
0.802851
0.836937
0.834134
0.756836
0.877325
0.873715
0.823504
0.825534
0.80476
0.848389
0.808549
0.813436
0.817893
0.832601
0.821663
0.820023
0.805406
0.882754
0.832557
0.871601
0.740515
0.894746
0.79195
0.817454
0.808115
0.818978
0.885162
0.872302
0.873766
0.752583
0.856563
0.831006
0.817113
0.853223
0.844674
0.846471
0.815476
0.813633
0.81687
0.807959
0.812142
0.877727
0.810493
0.829506
0.860988
0.877295
0.82814
0.809837
0.821392
0.826902
0.869679
0.796438
0.825621
0.87095
0.863542
0.823033
0.824559
0.816637
0.882984
0.823353
0.811601
0.822436
0.761238
0.821413
0.817981
0.820575
0.858494
0.850418
0.818791
0.821719
0.819674
0.810939
0.859208
0.846123
0.882202
0.885505
0.853339
0.813616
0.801239
0.832903
0.877935
0.795872
0.815128
0.869178
0.806099
0.883038
0.738415
0.821822
0.769481
0.81588
0.838931
0.865908
0.865779
0.817184
0.849919
0.860694
0.811396
0.820707
0.849994
0.868341
0.817929
0.858558
0.81812
0.817641
0.806832
0.812265
0.843123
0.880649
0.813201
0.819707
0.861941
0.840404
0.824888
0.885213
0.743591
0.823887
0.82881
0.876521
0.828231
0.809362
0.77893
0.881834
0.884899
0.857453
0.830276
0.750734
0.815268
0.777406
0.867228
0.792866
0.882508
0.840598
0.797835
0.806608
0.8593
0.813001
0.81603
0.810464
0.86728
0.833393
0.777692
0.808421
0.748002
0.814482
0.81094
0.815069
0.754037
0.808245
0.814107
0.814974
0.789387
0.797497
0.814781
0.818528
0.873239
0.789738
0.782233
0.877006
0.817531
0.805539
0.867573
0.881598
0.881484
0.769476
0.816978
0.805756
0.807339
0.806464
0.773388
0.813928
0.875932
0.764354
0.775235
0.825727
0.826828
0.879316
0.847006
0.870133
0.87126
0.866371
0.81608
0.8779
0.869085
0.84076
0.839686
0.816765
0.810772
0.825945
0.808953
0.825144
0.869027
0.87354
0.83973
0.760077
0.821895
0.809823
0.813786
0.866618
0.863985
0.851669
0.829068
0.875087
0.817038
0.870245
0.751647
0.830295
0.854644
0.806637
0.882698
0.757057
0.86131
0.809451
0.866669
0.806034
0.863551
0.868791
0.799026
0.818229
0.80557
0.856176
0.873856
0.833001
0.870245
0.786231
0.810689
0.807919
0.81285
0.827487
0.861652
0.804581
0.811764
0.858631
0.844974
0.822876
0.792916
0.80889
0.858752
0.853414
0.814758
0.802475
0.85412
0.821043
0.871242
0.78628
0.856635
0.85502
0.779852
0.820696
0.870224
0.81644
0.80398
0.823033
0.873225
0.821087
0.809621
0.876157
0.774197
0.802849
0.815141
0.875251
0.865583
0.811774
0.826645
0.803313
0.808976
0.815251
0.878636
0.861748
0.844602
0.768725
0.835756
0.831505
0.812666
0.828375
0.87394
0.820275
0.818778
0.77784
0.819683
0.820435
0.869339
0.815569
0.824853
0.856718
0.821218
0.856997
0.868739
0.766859
0.816637
0.869785
0.821219
0.820313
0.822061
0.818575
0.819413
0.817574
0.822767
0.822204
0.798125
0.823328
0.822944
0.839333
0.8634
0.823978
0.850268
0.806409
0.815888
0.867877
0.865592
0.860449
0.805494
0.831851
0.828325
0.842244
0.866774
0.793277
0.872982
0.856549
0.876216
0.870995
0.801241
0.848529
0.883113
0.816404
0.764235
0.812649
0.814271
0.859746
0.7448
0.872992
0.856302
0.879398
0.844848
0.809349
0.839677
0.845731
0.816585
0.810084
0.864772
0.805762
0.742654
0.88475
0.766359
0.789672
0.834069
0.856181
0.858123
0.866057
0.866341
0.760454
0.872147
0.823675
0.856195
0.856306
0.864704
0.786811
0.881364
0.856586
0.86782
0.816737
0.807746
0.835002
0.747297
0.847211
0.864215
0.815131
0.862607
0.857101
0.805402
0.785048
0.8493
0.857791
0.861276
0.810881
0.849371
0.805716
0.860348
0.811323
0.851162
0.859579
0.859022
0.834705
0.859085
0.840802
0.789083
0.785231
0.756983
0.858723
0.85867
0.813309
0.811133
0.847874
0.85871
0.851211
0.758836
0.858878
0.859216
0.859703
0.860979
0.823555
0.833786
0.785151
0.808922
0.860308
0.80675
0.867445
0.893423
0.815147
0.842628
0.762399
0.843893
0.806717
0.80484
0.832587
0.822907
0.816427
0.786557
0.806253
0.877748
0.817187
0.803599
0.838649
0.831126
0.821644
0.789088
0.84679
0.819619
0.871616
0.859402
0.82964
0.834355
0.869033
0.870285
0.816846
0.817457
0.803076
0.847234
0.817492
0.853678
0.81586
0.818296
0.791583
0.804283
0.828333
0.827128
0.826055
0.824741
0.82363
0.822747
0.820831
0.819122
0.821799
0.808167
0.819983
0.804664
0.817311
0.81383
0.849702
0.803423
0.811295
0.813113
0.887901
0.857196
0.816855
0.804773
0.81798
0.821735
0.795563
0.81421
0.814222
0.807124
0.821619
0.830085
0.806325
0.811777
0.799807
0.823731
0.839839
0.810637
0.808683
0.818879
0.812685
0.871153
0.823841
0.814522
0.804209
0.816137
0.880594
0.812275
0.826831
0.805317
0.919336
0.871712
0.856458
0.885375
0.780692
0.863566
0.799678
0.837631
0.842298
0.898247
0.882913
0.803801
0.745698
0.881744
0.804665
0.880548
0.805689
0.861432
0.742686
0.858515
0.815321
0.820885
0.82539
0.818414
0.85771
0.808625
0.863485
0.772861
0.74475
0.755547
0.8794
0.734631
0.804878
0.7996
0.858909
0.831846
0.728052
0.83344
0.878698
0.880989
0.784666
0.813876
0.728872
0.807505
0.877143
0.808227
0.810969
0.809009
0.874896
0.854045
0.8054
0.811185
0.871719
0.811891
0.870718
0.829352
0.812591
0.869736
0.872958
0.868785
0.813585
0.867867
0.763802
0.814151
0.866987
0.808944
0.814688
0.866137
0.793202
0.880191
0.803417
0.884431
0.821725
0.855368
0.845981
0.875155
0.806928
0.816529
0.863816
0.829921
0.81593
0.81531
0.863192
0.840623
0.864585
0.856004
0.86565
0.859279
0.86366
0.837466
0.866686
0.881104
0.818238
0.861798
0.839322
0.818822
0.878786
0.812774
0.836252
0.812481