# vtk DataFile Version 1.0
unstructured grid
ascii
DATASET UNSTRUCTURED_GRID
points 3920 float
-1 0 0
-1 1 0
2 0 0
2 1 0
0 0 0
1 0 0
-1 1 0.1
-1 0 0.1
0 0 0.1
1 0 0.1
2 0 0.1
2 1 0.1
-0.98 0 0
-0.96 0 0
-0.94 0 0
-0.92 0 0
-0.9 0 0
-0.88 0 0
-0.86 0 0
-0.84 0 0
-0.82 0 0
-0.8 0 0
-0.78 0 0
-0.76 0 0
-0.74 0 0
-0.72 0 0
-0.7 0 0
-0.68 0 0
-0.66 0 0
-0.64 0 0
-0.62 0 0
-0.6 0 0
-0.58 0 0
-0.56 0 0
-0.54 0 0
-0.52 0 0
-0.5 0 0
-0.48 0 0
-0.46 0 0
-0.44 0 0
-0.42 0 0
-0.4 0 0
-0.38 0 0
-0.36 0 0
-0.34 0 0
-0.32 0 0
-0.3 0 0
-0.28 0 0
-0.26 0 0
-0.24 0 0
-0.22 0 0
-0.2 0 0
-0.18 0 0
-0.16 0 0
-0.14 0 0
-0.12 0 0
-0.1 0 0
-0.08 0 0
-0.06 0 0
-0.04 0 0
-0.02 0 0
1.02 0 0
1.04 0 0
1.06 0 0
1.08 0 0
1.1 0 0
1.12 0 0
1.14 0 0
1.16 0 0
1.18 0 0
1.2 0 0
1.22 0 0
1.24 0 0
1.26 0 0
1.28 0 0
1.3 0 0
1.32 0 0
1.34 0 0
1.36 0 0
1.38 0 0
1.4 0 0
1.42 0 0
1.44 0 0
1.46 0 0
1.48 0 0
1.5 0 0
1.52 0 0
1.54 0 0
1.56 0 0
1.58 0 0
1.6 0 0
1.62 0 0
1.64 0 0
1.66 0 0
1.68 0 0
1.7 0 0
1.72 0 0
1.74 0 0
1.76 0 0
1.78 0 0
1.8 0 0
1.82 0 0
1.84 0 0
1.86 0 0
1.88 0 0
1.9 0 0
1.92 0 0
1.94 0 0
1.96 0 0
1.98 0 0
2 0.0199133 0
2 0.0414128 0
2 0.0646247 0
2 0.0896856 0
2 0.116743 0
2 0.145955 0
2 0.177494 0
2 0.211545 0
2 0.248309 0
2 0.288001 0
2 0.330854 0
2 0.377121 0
2 0.427073 0
2 0.481004 0
2 0.539231 0
2 0.602096 0
2 0.669968 0
2 0.743247 0
2 0.822362 0
2 0.907779 0
1.9 1 0
1.8 1 0
1.7 1 0
1.6 1 0
1.5 1 0
1.4 1 0
1.3 1 0
1.2 1 0
1.1 1 0
1 1 0
0.9 1 0
0.8 1 0
0.7 1 0
0.6 1 0
0.5 1 0
0.4 1 0
0.3 1 0
0.2 1 0
0.1 1 0
3.69793e-12 1 0
-0.1 1 0
-0.2 1 0
-0.3 1 0
-0.4 1 0
-0.5 1 0
-0.6 1 0
-0.7 1 0
-0.8 1 0
-0.9 1 0
-1 0.907779 0
-1 0.822362 0
-1 0.743247 0
-1 0.669968 0
-1 0.602096 0
-1 0.539231 0
-1 0.481004 0
-1 0.427073 0
-1 0.377121 0
-1 0.330854 0
-1 0.288001 0
-1 0.248309 0
-1 0.211545 0
-1 0.177494 0
-1 0.145955 0
-1 0.116743 0
-1 0.0896856 0
-1 0.0646247 0
-1 0.0414128 0
-1 0.0199133 0
0.0182781 0.00745351 0
0.0366672 0.0146286 0
0.0551632 0.0215237 0
0.0737617 0.0281372 0
0.0924585 0.0344675 0
0.111249 0.0405131 0
0.13013 0.0462728 0
0.149095 0.0517451 0
0.168142 0.0569289 0
0.187265 0.0618228 0
0.20646 0.0664258 0
0.225723 0.0707368 0
0.245049 0.0747549 0
0.264434 0.078479 0
0.283873 0.0819084 0
0.303362 0.0850422 0
0.322896 0.0878798 0
0.342472 0.0904204 0
0.362083 0.0926635 0
0.381726 0.0946086 0
0.401397 0.0962552 0
0.42109 0.0976029 0
0.440802 0.0986514 0
0.460527 0.0994006 0
0.480261 0.0998501 0
0.5 0.1 0
0.519739 0.0998501 0
0.539473 0.0994006 0
0.559198 0.0986514 0
0.57891 0.0976029 0
0.598603 0.0962552 0
0.618274 0.0946086 0
0.637917 0.0926635 0
0.657528 0.0904204 0
0.677104 0.0878798 0
0.696638 0.0850422 0
0.716127 0.0819084 0
0.735566 0.078479 0
0.754951 0.0747549 0
0.774277 0.0707368 0
0.79354 0.0664258 0
0.812735 0.0618228 0
0.831858 0.0569289 0
0.850905 0.0517451 0
0.86987 0.0462728 0
0.888751 0.0405131 0
0.907542 0.0344675 0
0.926238 0.0281372 0
0.944837 0.0215237 0
0.963333 0.0146286 0
0.981722 0.00745351 0
-1 0.907779 0.1
-1 0.822362 0.1
-1 0.743247 0.1
-1 0.669968 0.1
-1 0.602096 0.1
-1 0.539231 0.1
-1 0.481004 0.1
-1 0.427073 0.1
-1 0.377121 0.1
-1 0.330854 0.1
-1 0.288001 0.1
-1 0.248309 0.1
-1 0.211545 0.1
-1 0.177494 0.1
-1 0.145955 0.1
-1 0.116743 0.1
-1 0.0896856 0.1
-1 0.0646247 0.1
-1 0.0414128 0.1
-1 0.0199133 0.1
-0.98 0 0.1
-0.96 0 0.1
-0.94 0 0.1
-0.92 0 0.1
-0.9 0 0.1
-0.88 0 0.1
-0.86 0 0.1
-0.84 0 0.1
-0.82 0 0.1
-0.8 0 0.1
-0.78 0 0.1
-0.76 0 0.1
-0.74 0 0.1
-0.72 0 0.1
-0.7 0 0.1
-0.68 0 0.1
-0.66 0 0.1
-0.64 0 0.1
-0.62 0 0.1
-0.6 0 0.1
-0.58 0 0.1
-0.56 0 0.1
-0.54 0 0.1
-0.52 0 0.1
-0.5 0 0.1
-0.48 0 0.1
-0.46 0 0.1
-0.44 0 0.1
-0.42 0 0.1
-0.4 0 0.1
-0.38 0 0.1
-0.36 0 0.1
-0.34 0 0.1
-0.32 0 0.1
-0.3 0 0.1
-0.28 0 0.1
-0.26 0 0.1
-0.24 0 0.1
-0.22 0 0.1
-0.2 0 0.1
-0.18 0 0.1
-0.16 0 0.1
-0.14 0 0.1
-0.12 0 0.1
-0.1 0 0.1
-0.08 0 0.1
-0.06 0 0.1
-0.04 0 0.1
-0.02 0 0.1
0.0182781 0.00745351 0.1
0.0366672 0.0146286 0.1
0.0551632 0.0215237 0.1
0.0737617 0.0281372 0.1
0.0924585 0.0344675 0.1
0.111249 0.0405131 0.1
0.13013 0.0462728 0.1
0.149095 0.0517451 0.1
0.168142 0.0569289 0.1
0.187265 0.0618228 0.1
0.20646 0.0664258 0.1
0.225723 0.0707368 0.1
0.245049 0.0747549 0.1
0.264434 0.078479 0.1
0.283873 0.0819084 0.1
0.303362 0.0850422 0.1
0.322896 0.0878798 0.1
0.342472 0.0904204 0.1
0.362083 0.0926635 0.1
0.381726 0.0946086 0.1
0.401397 0.0962552 0.1
0.42109 0.0976029 0.1
0.440802 0.0986514 0.1
0.460527 0.0994006 0.1
0.480261 0.0998501 0.1
0.5 0.1 0.1
0.519739 0.0998501 0.1
0.539473 0.0994006 0.1
0.559198 0.0986514 0.1
0.57891 0.0976029 0.1
0.598603 0.0962552 0.1
0.618274 0.0946086 0.1
0.637917 0.0926635 0.1
0.657528 0.0904204 0.1
0.677104 0.0878798 0.1
0.696638 0.0850422 0.1
0.716127 0.0819084 0.1
0.735566 0.078479 0.1
0.754951 0.0747549 0.1
0.774277 0.0707368 0.1
0.79354 0.0664258 0.1
0.812735 0.0618228 0.1
0.831858 0.0569289 0.1
0.850905 0.0517451 0.1
0.86987 0.0462728 0.1
0.888751 0.0405131 0.1
0.907542 0.0344675 0.1
0.926238 0.0281372 0.1
0.944837 0.0215237 0.1
0.963333 0.0146286 0.1
0.981722 0.00745351 0.1
1.02 0 0.1
1.04 0 0.1
1.06 0 0.1
1.08 0 0.1
1.1 0 0.1
1.12 0 0.1
1.14 0 0.1
1.16 0 0.1
1.18 0 0.1
1.2 0 0.1
1.22 0 0.1
1.24 0 0.1
1.26 0 0.1
1.28 0 0.1
1.3 0 0.1
1.32 0 0.1
1.34 0 0.1
1.36 0 0.1
1.38 0 0.1
1.4 0 0.1
1.42 0 0.1
1.44 0 0.1
1.46 0 0.1
1.48 0 0.1
1.5 0 0.1
1.52 0 0.1
1.54 0 0.1
1.56 0 0.1
1.58 0 0.1
1.6 0 0.1
1.62 0 0.1
1.64 0 0.1
1.66 0 0.1
1.68 0 0.1
1.7 0 0.1
1.72 0 0.1
1.74 0 0.1
1.76 0 0.1
1.78 0 0.1
1.8 0 0.1
1.82 0 0.1
1.84 0 0.1
1.86 0 0.1
1.88 0 0.1
1.9 0 0.1
1.92 0 0.1
1.94 0 0.1
1.96 0 0.1
1.98 0 0.1
2 0.0199133 0.1
2 0.0414128 0.1
2 0.0646247 0.1
2 0.0896856 0.1
2 0.116743 0.1
2 0.145955 0.1
2 0.177494 0.1
2 0.211545 0.1
2 0.248309 0.1
2 0.288001 0.1
2 0.330854 0.1
2 0.377121 0.1
2 0.427073 0.1
2 0.481004 0.1
2 0.539231 0.1
2 0.602096 0.1
2 0.669968 0.1
2 0.743247 0.1
2 0.822362 0.1
2 0.907779 0.1
1.9 1 0.1
1.8 1 0.1
1.7 1 0.1
1.6 1 0.1
1.5 1 0.1
1.4 1 0.1
1.3 1 0.1
1.2 1 0.1
1.1 1 0.1
1 1 0.1
0.9 1 0.1
0.8 1 0.1
0.7 1 0.1
0.6 1 0.1
0.5 1 0.1
0.4 1 0.1
0.3 1 0.1
0.2 1 0.1
0.1 1 0.1
3.69793e-12 1 0.1
-0.1 1 0.1
-0.2 1 0.1
-0.3 1 0.1
-0.4 1 0.1
-0.5 1 0.1
-0.6 1 0.1
-0.7 1 0.1
-0.8 1 0.1
-0.9 1 0.1
1.08758 0.0158154 0
-0.0898513 0.0203294 0
0.0966181 0.0537636 0
0.90205 0.0548881 0
1.21055 0.0202058 0
-0.209811 0.0159577 0
1.3305 0.0176902 0
-0.33 0.0173205 0
1.45324 0.0148141 0
-0.448654 0.0159854 0
1.56842 0.0191785 0
-0.569936 0.0166364 0
0.193292 0.0805369 0
0.805051 0.0813623 0
0.709096 0.100353 0
0.288591 0.0996656 0
0.390184 0.111848 0
0.61033 0.111742 0
0.488809 0.116278 0
1.67175 0.0169692 0
-0.67 0.0169809 0
-0.955017 0.454039 0
1.95131 0.44569 0
1.74981 0.0168753 0
-0.75 0.0173205 0
-0.968032 0.266538 0
1.96871 0.266267 0
0.978232 0.0305687 0
0.0208675 0.026451 0
-0.150454 0.91842 0
1.13854 0.907437 0
1.45012 0.904365 0
-0.445923 0.908903 0
-0.853423 0.0157019 0
1.84881 0.016319 0
0.853689 0.915652 0
0.153944 0.912184 0
0.545151 0.914125 0
0.549913 0.115152 0
1.51 0.0173205 0
-0.506989 0.01651 0
1.27 0.0173205 0
1.14976 0.0173333 0
-0.268171 0.0206442 0
-0.150501 0.0153244 0
-0.391384 0.0153993 0
1.38886 0.0171544 0
-0.973694 0.161724 0
1.97441 0.162392 0
-0.945221 0.633523 0
1.94544 0.63312 0
1.91008 0.0186068 0
-0.91 0.0169616 0
-0.030664 0.0194327 0
1.03074 0.0165456 0
-0.966065 0.353575 0
1.96128 0.359765 0
1.93879 0.781254 0
-0.937057 0.781882 0
-0.980746 0.080709 0
1.9772 0.0760699 0
0.058735 0.0409372 0
0.355202 0.913001 0
0.86356 0.0661005 0
0.134223 0.0651111 0
0.941972 0.0397386 0
-0.653034 0.915003 0
1.65328 0.904589 0
0.770126 0.0881325 0
0.232946 0.0902008 0
0.330582 0.105648 0
0.670612 0.108365 0
0.428707 0.116145 0
1.80993 0.016629 0
-0.810168 0.0172178 0
-0.71 0.0173205 0
1.63047 0.0175504 0
1.70842 0.0169661 0
-0.628824 0.0181787 0
-0.949815 0.0133898 0
1.95 0.0173205 0
1.85542 0.907891 0
-0.85 0.913397 0
1.9833 0.0307692 0
-0.983315 0.0309709 0
-0.750025 0.916468 0
-0.701107 0.836904 0
-0.607741 0.836428 0
-0.656448 0.759827 0
-0.572936 0.758144 0
-0.61411 0.691195 0
-0.539534 0.689068 0
-0.578542 0.626111 0
-0.507461 0.624216 0
-0.544001 0.566638 0
-0.477696 0.564279 0
-0.511582 0.51001 0
-0.451689 0.507147 0
-0.481834 0.457732 0
-0.426137 0.454624 0
-0.453236 0.407539 0
-0.398845 0.406233 0
-0.507958 0.409496 0
-0.368427 0.460177 0
-0.344602 0.405209 0
-0.315696 0.447824 0
-0.294128 0.402169 0
-0.262844 0.444518 0
-0.241968 0.388746 0
-0.209878 0.439557 0
-0.185184 0.391135 0
-0.156687 0.437338 0
-0.133719 0.390776 0
-0.104405 0.434306 0
-0.0818745 0.388334 0
-0.0528785 0.431165 0
-0.0305984 0.385639 0
-0.00180552 0.427863 0
0.0194564 0.382608 0
0.0485809 0.42449 0
0.0701962 0.37973 0
0.0985483 0.421145 0
0.119893 0.377339 0
0.147837 0.417911 0
0.172552 0.36751 0
0.197018 0.412597 0
0.221203 0.37141 0
0.24512 0.409646 0
-0.48178 0.364657 0
-0.531053 0.364782 0
-0.0599102 0.344151 0
-0.324909 0.359566 0
0.266181 0.368462 0
0.292132 0.407649 0
0.311992 0.365779 0
0.338918 0.404821 0
0.357567 0.355909 0
0.384723 0.40053 0
0.404675 0.359681 0
0.430617 0.398558 0
0.450457 0.35827 0
0.474237 0.395182 0
0.496746 0.34898 0
0.520548 0.397931 0
0.542071 0.353121 0
0.566011 0.389914 0
0.585061 0.350856 0
0.609352 0.38696 0
0.629069 0.348168 0
0.655979 0.391217 0
0.67472 0.346182 0
0.699346 0.381414 0
0.719333 0.341965 0
0.743718 0.377547 0
0.764028 0.339036 0
0.788201 0.373582 0
0.807659 0.336101 0
0.832821 0.372249 0
0.852309 0.334017 0
0.877785 0.370339 0
0.897875 0.331141 0
0.922904 0.366281 0
0.943173 0.327335 0
0.968282 0.363358 0
0.989029 0.324222 0
1.01391 0.361511 0
1.03465 0.321428 0
1.05949 0.358447 0
1.08389 0.312052 0
1.10575 0.355104 0
1.12889 0.31562 0
1.15067 0.353235 0
1.17157 0.312819 0
1.19626 0.349369 0
1.21618 0.309863 0
1.2416 0.346914 0
1.26131 0.30715 0
1.28691 0.344312 0
1.30571 0.303752 0
1.33144 0.341222 0
1.35018 0.300911 0
1.3758 0.338308 0
1.39501 0.298931 0
1.42015 0.335235 0
1.43904 0.296349 0
1.46355 0.330194 0
1.48256 0.293347 0
1.50685 0.326967 0
1.52589 0.29055 0
1.54996 0.325305 0
1.56909 0.287929 0
[...]
CELL_DATA 3694
SCALARS rho float
LOOKUP_TABLE default
0.754091
0.705417
0.80729
0.834954
0.836879
0.808739
0.798253
0.803603
0.827677
0.805478
0.834929
0.83491
0.842682
0.796722
0.804292
0.774123
0.805508
0.805898
0.780702
0.85611
0.829493
0.836868
0.740304
0.807071
0.737725
0.841682
0.738943
0.810914
0.839592
0.800369
0.800497
0.736633
0.806322
0.828267
0.806325
0.812176
0.844064
0.836353
0.835559
0.785975
0.80811
0.821329
0.837138
0.828802
0.810363
0.835028
0.805109
0.71161
0.707078
0.755479
0.80598
0.804435
0.853203
0.807226
0.704021
0.845003
0.806114
0.831673
0.835226
0.770503
0.802551
0.838722
0.850267
0.803056
0.851448
0.841578
0.812084
0.836483
0.748087
0.864553
0.804355
0.811889
0.836888
0.805556
0.837268
0.804502
0.818314
0.80192
0.832315
0.806452
0.746519
0.822421
0.803618
0.784677
0.825719
0.801997
0.831115
0.746551
0.748144
0.834484
0.812085
0.805142
0.824402
0.827726
0.701908
0.810534
0.742622
0.834859
0.832295
0.848425
0.835406
0.782737
0.732041
0.826961
0.82512
0.838705
0.834924
0.811048
0.738192
0.831803
0.804665
0.75665
0.734089
0.832822
0.872969
0.80484
0.812872
0.832157
0.804297
0.804666
0.776544
0.825995
0.833336
0.785473
0.718384
0.774466
0.834
0.793798
0.850048
0.73982
0.778098
0.806281
0.812239
0.78876
0.805254
0.807868
0.809145
0.80378
0.799739
0.83515
0.831788
0.741966
0.834258
0.835918
0.773561
0.713927
0.703834
0.800258
0.835649
0.817214
0.76873
0.804507
0.660722
0.792718
0.725344
0.783416
0.734431
0.797494
0.655786
0.800071
0.839617
0.680192
0.791749
0.755825
0.85269
0.657984
0.82121
0.803768
0.807371
0.701526
0.8041
0.701289
0.864187
0.665034
0.805232
0.706968
0.872353
0.844045
0.833979
0.755727
0.831402
0.737428
0.839382
0.751748
0.682508
0.805259
0.690614
0.836781
0.805598
0.85828
0.7989
0.717848
0.838885
0.800556
0.764202
0.854255
0.815733
0.854747
0.755246
0.767793
0.783418
0.806261
0.842822
0.836629
0.820733
0.83536
0.70945
0.807995
0.754949
0.805045
0.746983
0.808632
0.800945
0.806709
0.838555
0.78331
0.841872
0.766233
0.838541
0.832574
0.835734
0.854412
0.832378
0.744363
0.839473
0.696015
0.796065
0.82394
0.858455
0.841004
0.82532
0.800567
0.769341
0.834949
0.845994
0.834931
0.745695
0.813389
0.72667
0.806146
0.80083
0.825209
0.697298
0.81183
0.777363
0.804013
0.804231
0.776849
0.837522
0.866159
0.791499
0.706192
0.809744
0.805866
0.682511
0.807503
0.789052
0.804235
0.845822
0.838249
0.657759
0.837023
0.814793
0.811739
0.836493
0.804393
0.819404
0.825511
0.837963
0.773872
0.803095
0.845232
0.815029
0.804338
0.802308
0.838788
0.740497
0.640088
0.8341
0.832413
0.835171
0.809569
0.731366
0.83649
0.836853
0.82953
0.748464
0.808487
0.838608
0.668863
0.804119
0.873098
0.693943
0.778421
0.847653
0.836296
0.83882
0.720902
0.813889
0.838668
0.806844
0.80474
0.816537
0.843609
0.821509
0.780383
0.811494
0.804847
0.68052
0.835865
0.840029
0.711968
0.805164
0.835089
0.82443
0.712626
0.680525
0.836051
0.836998
0.8137
0.745626
0.734933
0.740836
0.762687
0.835226
0.793621
0.807425
0.762769
0.752979
0.836105
0.825882
0.823236
0.785632
0.837511
0.835603
0.83483
0.833572
0.805444
0.81179
0.808297
0.705206
0.803894
0.817068
0.737967
0.811865
0.808872
0.835256
0.794365
0.811095
0.799148
0.838597
0.835866
0.835509
0.800702
0.732296
0.748697
0.804669
0.815235
0.690526
0.807001
0.812193
0.821176
0.765356
0.808818
0.833272
0.831926
0.834796
0.808667
0.803142
0.782438
0.808978
0.8522
0.824051
0.720526
0.807492
0.741742
0.718696
0.805839
0.654814
0.783255
0.793615
0.812773
0.837573
0.83634
0.833821
0.823876
0.835517
0.839861
0.804751
0.782486
0.81439
0.701953
0.834664
0.774757
0.756094
0.727803
0.835691
0.859428
0.834668
0.813447
0.825733
0.836801
0.795331
0.778038
0.827357
0.717129
0.797917
0.850746
0.829545
0.805032
0.869685
0.81752
0.831181
0.834943
0.833665
0.690862
0.812531
0.762024
0.799862
0.749294
0.830202
0.813165
0.800516
0.691506
0.837931
0.832931
0.832838
0.80549
0.807563
0.837399
0.806863
0.746776
0.797639
0.804225
0.837624
0.830499
0.830343
0.875968
0.839995
0.813582
0.843131
0.716053
0.837126
0.847398
0.834798
0.667133
0.836919
0.813507
0.853803
0.836017
0.805238
0.644001
0.814388
0.736383
0.810199
0.804455
0.816737
0.837513
0.828462
0.808808
0.815742
0.833803
0.757632
0.868648
0.803332
0.857741
0.833582
0.662874
0.806988
0.80299
0.831233
0.834862
0.713504
0.804828
0.813846
0.817191
0.811253
0.799794
0.836066
0.834173
0.810888
0.80859
0.835667
0.844033
0.761714
0.810403
0.814338
0.831185
0.71006
0.809222
0.830716
0.801627
0.807853
0.662579
0.84381
0.783574
0.838711
0.834748
0.841813
0.853237
0.83307
0.832866
0.748571
0.801386
0.857859
0.825595
0.731537
0.802416
0.804254
0.876534
0.853642
0.83511
0.803234
0.814305
0.771837
0.835439
0.818149
0.641761
0.805624
0.76117
0.764262
0.806603
0.831802
0.789759
0.825255
0.836198
0.840698
0.831516
0.805319
0.823072
0.750419
0.758375
0.807412
0.82379
0.833646
0.805671
0.765782
0.730042
0.836883
0.819399
0.818243
0.648827
0.836015
0.827973
0.837953
0.805713
0.821883
0.833678
0.816196
0.848939
0.805529
0.816904
0.835244
0.836046
0.828153
0.831628
0.734145
0.792951
0.807074
0.805653
0.855659
0.804288
0.814373
0.671847
0.821887
0.832455
0.815123
0.835156
0.809678
0.836107
0.746611
0.852307
0.721101
0.803156
0.834946
0.811415
0.716056
0.689714
0.819806
0.809663
0.808255
0.800511
0.804125
0.840698
0.830089
0.808562
0.805172
0.830069
0.65977
0.832731
0.806729
0.740439
0.831095
0.700606
0.800128
0.833967
0.844857
0.821937
0.834819
0.807715
0.808182
0.808036
0.804198
0.832946
0.815496
0.826735
0.805334
0.766917
0.808053
0.835518
0.834652
0.828116
0.832818
0.835091
0.8375
0.841575
0.765882
0.810917
0.835062
0.805936
0.635602
0.73071
0.815872
0.836511
0.836156
0.789228
0.813085
0.817332
0.806931
0.80481
0.806102
0.830546
0.831807
0.837283
0.800083
0.821759
0.821769
0.673122
0.786506
0.776206
0.816711
0.753806
0.728382
0.799487
0.780622
0.839386
0.838745
0.837579
0.813113
0.633007
0.819997
0.640085
0.740575
0.837917
0.873673
0.76824
0.833749
0.859922
0.727149
0.833822
0.813824
0.819096
0.81223
0.690752
0.861577
0.751779
0.761592
0.808134
0.808157
0.801318
0.836013
0.837126
0.722924
0.826097
0.803663
0.737833
0.849016
0.80061
0.667608
0.785585
0.835104
0.824242
0.837017
0.792139
0.758349
0.788582
0.839496
0.714246
0.83554
0.830626
0.839458
0.780252
0.836441
0.732362
0.808197
0.693045
0.724514
0.811591
0.826623
0.804103
0.83878
0.835727
0.836656
0.838035
0.647691
0.803524
0.838872
0.760795
0.814455
0.835488
0.8336
0.729308
0.704396
0.759002
0.687524
0.812257
0.716589
0.835978
0.803001
0.837329
0.839463
0.703043
0.815962
0.832967
0.840034
0.76606
0.796964
0.773701
0.787041
0.827237
0.67889
0.686517
0.83666
0.809194
0.826827
0.80806
0.746255
0.793566
0.754831
0.770097
0.802885
0.843022
0.816579
0.715553
0.837155
0.828662
0.830726
0.7334
0.704703
0.719431
0.876778
0.835258
0.831857
0.66047
0.734097
0.679368
0.807276
0.801974
0.70272
0.816394
0.832915
0.773567
0.803312
0.756252
0.834649
0.717142
0.838458
0.815174
0.815043
0.804479
0.833858
0.762431
0.835859
0.838285
0.79047
0.668149
0.820716
0.829405
0.776611
0.838076
0.758254
0.806874
0.836341
0.715067
0.834899
0.803592
0.814692
0.658089
0.690649
0.756858
0.810388
0.830404
0.829931
0.835588
0.819265
0.834818
0.727215
0.802982
0.830305
0.83853
0.727002
0.759245
0.833697
0.823569
0.728781
0.818744
0.788211
0.716046
0.816212
0.720959
0.818013
0.694846
0.80418
0.743199
0.711438
0.82905
0.794834
0.764767
0.670487
0.847972
0.824742
0.830948
0.784965
0.838254
0.801959
0.798862
0.802519
0.806235
0.830378
0.762281
0.814303
0.802443
0.835077
0.652385
0.80494
0.829205
0.829654
0.82893
0.828939
0.766334
0.814964
0.777496
0.770407
0.834396
0.707115
0.83407
0.833549
0.804612
0.831912
0.833073
0.754035
0.777495
0.836121
0.799285
0.807953
0.832675
0.878631
0.832211
0.813474
0.835032
0.836501
0.79993
0.834997
0.830871
0.785869
0.742051
0.850363
0.803193
0.804687
0.826316
0.794259
0.834682
0.828048
0.834986
0.834923
0.875284
0.804703
0.809035
0.834837
0.804693
0.835178
0.811261
0.761832
0.834808
0.835349
0.763842
0.747948
0.834392
0.845495
0.826031
0.716549
0.836283
0.785772
0.825117
0.805378
0.753181
0.804295
0.800949
0.819706
0.831746
0.724235
0.74437
0.805183
0.795212
0.805699
0.833254
0.735388
0.838114
0.805755
0.803867
0.831816
0.836347
0.748045
0.834797
0.778412
0.806665
0.835312
0.806261
0.788992
0.803842
0.800731
0.836345
0.681052
0.838821
0.707405
0.726257
0.806443
0.835317
0.838261
0.804996
0.836613
0.820084
0.754468
0.794514
0.863594
0.804552
0.841118
0.812197
0.659172
0.771623
0.796537
0.701874
0.763318
0.65053
0.82887
0.837231
0.825947
0.803862
0.777831
0.71991
0.783194
0.762291
0.79186
0.838844
0.846723
0.835249
0.810099
0.823066
0.83211
0.806165
0.81231
0.736831
0.806403
0.77223
0.813042
0.800152
0.773319
0.832889
0.796582
0.806584
0.80515
0.848293
0.748884
0.803236
0.802595
0.808818
0.657636
0.836189
0.836325
0.825781
0.6991
0.836466
0.835903
0.800886
0.807116
0.800152
0.791995
0.811133
0.808997
0.835551
0.763687
0.818077
0.878882
0.779361
0.769423
0.821123
0.791826
0.851403
0.81407
0.796401
0.829191
0.803559
0.799794
0.812551
0.838528
0.845909
0.80452
0.641553
0.834999
0.839602
0.782667
0.842123
0.846701
0.836206
0.838294
0.811924
0.842863
0.839322
0.792313
0.813633
0.831037
0.821475
0.836701
0.806236
0.830383
0.800019
0.807971
0.810915
0.754708
0.812016
0.641658
0.834525
0.838306
0.840564
0.810431
0.822288
0.837409
0.82328
0.835739
0.848311
0.843884
0.802931
0.80186
0.836165
0.833449
0.834764
0.802951
0.810783
0.870696
0.835417
0.85533
0.833906
0.803154
0.827943
0.805817
0.836028
0.831425
0.829775
0.809379
0.756209
0.805348
0.80821
0.836039
0.807261
0.812857
0.825649
0.809752
0.807646
0.788455
0.82351
0.740894
0.818586
0.796891
0.774978
0.806585
0.817517
0.822671
0.748294
0.835155
0.819341
0.82966
0.833588
0.801752
0.835216
0.848888
0.836099
0.826397
0.816002
0.803843
0.767087
0.727142
0.837698
0.82444
0.788138
0.831156
0.812068
0.830069
0.809491
0.800952
0.786741
0.803778
0.802213
0.849359
0.83469
0.815816
0.811477
0.651914
0.757513
0.806665
0.798515
0.807961
0.833019
0.810108
0.835417
0.790046
0.837334
0.80875
0.829729
0.807427
0.834154
0.804028
0.835636
0.828704
0.83398
0.829953
0.748072
0.830485
0.835899
0.648309
0.837475
0.802903
0.806646
0.864893
0.832691
0.829111
0.876624
0.834714
0.835093
0.835008
0.834872
0.831553
0.777763
0.832946
0.804761
0.805781
0.829751
0.835589
0.835102
0.836582
0.829168
0.826609
0.807444
0.828727
0.813346
0.819519
0.823779
0.83684
0.828535
0.834396
0.813495
0.707989
0.70519
0.804887
0.81319
0.806052
0.82858
0.833834
0.832629
0.805182
0.808396
0.803364
0.803021
0.833386
0.851116
0.834988
0.816002
0.834207
0.834872
0.847958
0.833288
0.824956
0.794355
0.832399
0.811002
0.805562
0.799209
0.825831
0.834482
0.83676
0.834273
0.838207
0.820263
0.834773
0.832809
0.825276
0.806291
0.806282
0.809436
0.830614
0.836305
0.803691
0.8169
0.83488
0.826083
0.803736
0.676642
0.80755
0.808069
0.82142
0.804707
0.806222
0.765294
0.849968
0.807271
0.80183
0.845182
0.841376
0.814523
0.838901
0.802853
0.83461
0.831583
0.834949
0.806452
0.834781
0.760441
0.836485
0.815859
0.802698
0.817351
0.835621
0.80475
0.807081
0.797612
0.81921
0.836498
0.836341
0.834742
0.810412
0.835001
0.835271
0.8362
0.825522
0.847447
0.810003
0.719041
0.833978
0.847416
0.835315
0.80847
0.801755
0.806869
0.830169
0.818286
0.834726
0.760046
0.766222
0.803588
0.807186
0.834702
0.832399
0.813786
0.706589
0.730548
0.812221
0.777518
0.835777
0.725357
0.804605
0.748281
0.804116
0.823918
0.804303
0.834775
0.832383
0.802735
0.812801
0.807569
0.832576
0.836176
0.804252
0.806724
0.83344
0.83553
0.770254
0.833649
0.806621
0.790355
0.836307
0.806858
0.815023
0.838598
0.836516
0.844726
0.806971
0.80048
0.83644
0.774436
0.8108
0.838295
0.805357
0.834368
0.843101
0.805413
0.850984
0.819864
0.802209
0.833831
0.804167
0.853142
0.795822
0.805344
0.835654
0.842767
0.812499
0.835061
0.835397
0.805262
0.805322
0.829194
0.795286
0.835419
0.835861
0.710004
0.835733
0.733829
0.821506
0.846908
0.837083
0.80916
0.837195
0.837234
0.748311
0.838099
0.804604
0.802775
0.803361
0.834419
0.869282
0.803541
0.803936
0.793999
0.849946
0.830905
0.834624
0.831722
0.764469
0.816264
0.804087
0.750643
0.803048
0.736616
0.829374
0.803872
0.70668
0.883434
0.724374
0.780318
0.80577
0.766481
0.81256
0.801195
0.804406
0.694369
0.801658
0.793025
0.801717
0.760845
0.8346
0.83655
0.887201
0.813661
0.834458
0.682818
0.803128
0.799348
0.770238
0.772798
0.787772
0.740871
0.806478
0.802172
0.806591
0.779994
0.671895
0.815633
0.66409
0.833109
0.831239
0.815668
0.75346
0.822574
0.810479
0.83274
0.792283
0.823647
0.801838
0.82822
0.73802
0.803935
0.746721
0.8037
0.800784
0.731302
0.807208
0.838125
0.837894
0.804981
0.777015
0.837004
0.74496
0.717293
0.803994
0.83804
0.878615
0.838364
0.835058
0.883509
0.869757
0.838605
0.731546
0.804343
0.81606
0.825241
0.81142
0.727201
0.74288
0.726621
0.804224
0.718436
0.782969
0.801197
0.695364
0.705531
0.843511
0.78908
0.765742
0.841037
0.777078
0.777997
0.69325
0.754667
0.798985
0.831242
0.873559
0.84537
0.836063
0.807281
0.801535
0.742947
0.836986
0.720367
0.80285
0.838378
0.790738
0.778146
0.813669
0.796689
0.806322
0.802709
0.83046
0.815524
0.871697
0.681752
0.655199
0.804442
0.818673
0.730847
0.814538
0.804756
0.845536
0.806429
0.803327
0.652712
0.671106
0.813051
0.831524
0.837338
0.759365
0.804394
0.82222
0.722158
0.831702
0.804175
0.837837
0.803915
0.811454
0.803172
0.838303
0.803739
0.82079
0.805806
0.867455
0.838656
0.803375
0.733779
0.714654
0.835527
0.66117
0.824677
0.814455
0.844476
0.831117
0.805391
0.815045
0.837321
0.832571
0.838981
0.802648
0.855132
0.86274
0.80601
0.709585
0.822945
0.825653
0.803186
0.804948
0.832088
0.76387
0.803964
0.835093
0.832706
0.832792
0.835987
0.781062
0.756942
0.804468
0.843241
0.807055
0.826678
0.808803
0.807961
0.80941
0.837783
0.813298
0.801457
0.811418
0.810425
0.82804
0.81109
0.810545
0.834632
0.811289
0.804038
0.837059
0.804391
0.80371
0.80993
0.812277
0.836968
0.786103
0.809297
0.804735
0.839169
0.801069
0.806646
0.811541
0.841736
0.808796
0.710168
0.802423
0.833232
0.80821
0.818815
0.778349
0.833738
0.770479
0.806355
0.803193
0.807171
0.822863
0.858168
0.807697
0.804048
0.758359
0.840182
0.838374
0.83473
0.827977
0.829063
0.762567
0.834419
0.755198
0.805916
0.838841
0.803923
0.739846
0.837712
0.827699
0.835472
0.836639
0.836658
0.785463
0.834716
0.713283
0.749379
0.838296
0.835769
0.729082
0.835122
0.691153
0.835182
0.811418
0.835115
0.804245
0.810162
0.828471
0.834768
0.828188
0.681378
0.836209
0.850786
0.791334
0.854259
0.803611
0.746475
0.847954
0.835118
0.84563
0.735887
0.732102
0.843572
0.719496
0.84186
0.837904
0.840392
0.811171
0.839208
0.795905
0.838215
0.837334
0.746544
0.870977
0.83663
0.83609
0.826885
0.777041
0.804587
0.655696
0.817422
0.835679
0.834963
0.809927
0.838304
0.839214
0.799632
0.83536
0.80483
0.728195
0.799369
0.83699
0.837136
0.750406
0.813448
0.825049
0.665916
0.836673
0.836218
0.808181
0.814237
0.756299
0.829513
0.804493
0.805982
0.801908
0.808411
0.804179
0.800803
0.803955
0.836541
0.823019
0.834534
0.639167
0.895044
0.738354
0.803186
0.765058
0.798693
0.839091
0.835879
0.836229
0.660767
0.833245
0.821071
0.807319
0.831412
0.839311
0.841834
0.791543
0.802628
0.804198
0.758472
0.774388
0.837141
0.779191
0.819194
0.834772
0.836714
0.817591
0.804173
0.792088
0.816193
0.835397
0.749886
0.81477
0.835619
0.834929
0.812001
0.813636
0.783539
0.838176
0.812359
0.805303
0.811521
0.673837
0.810535
0.807887
0.809845
0.835475
0.847371
0.808411
0.792018
0.8091
0.782239
0.835016
0.821011
0.836678
0.839183
0.851563
0.805977
0.760902
0.823509
0.837197
0.749879
0.804705
0.835347
0.771789
0.836792
0.635468
0.810764
0.711761
0.805152
0.820792
0.831739
0.835012
0.807559
0.828776
0.833773
0.803753
0.808958
0.846497
0.835039
0.802147
0.83204
0.806437
0.805972
0.802183
0.804125
0.820765
0.837545
0.804629
0.788486
0.834653
0.822533
0.813292
0.839118
0.646528
0.808847
0.817852
0.836831
0.802617
0.770042
0.731787
0.836385
0.838921
0.838148
0.804783
0.658551
0.785945
0.700736
0.83511
0.755887
0.836339
0.83352
0.739991
0.801709
0.843878
0.77371
0.804781
0.80502
0.834297
0.812909
0.723638
0.802821
0.655458
0.805103
0.804621
0.80565
0.677097
0.804323
0.806132
0.806276
0.747823
0.756864
0.806361
0.790461
0.836122
0.743798
0.730702
0.83679
0.805734
0.76992
0.859569
0.837241
0.83613
0.702396
0.806598
0.80216
0.802423
0.803652
0.699657
0.805949
0.836665
0.691091
0.714608
0.811001
0.802792
0.837526
0.83179
0.834753
0.835238
0.834627
0.806882
0.837168
0.834407
0.823026
0.832486
0.806299
0.80414
0.814843
0.759824
0.813871
0.83428
0.867461
0.82134
0.680386
0.792326
0.804184
0.786749
0.834897
0.83069
0.838061
0.818468
0.869267
0.806044
0.834492
0.657945
0.819968
0.841749
0.803988
0.837846
0.672642
0.832348
0.804529
0.834871
0.803412
0.83453
0.835029
0.76498
0.807483
0.80391
0.843234
0.86713
0.82354
0.835554
0.73895
0.768112
0.803997
0.805512
0.816542
0.834311
0.801224
0.805115
0.834299
0.82106
0.81173
0.751941
0.804333
0.832991
0.828823
0.782843
0.770463
0.827575
0.802631
0.86305
0.74009
0.843152
0.827361
0.726169
0.805385
0.834373
0.794513
0.801942
0.805471
0.835693
0.792665
0.782926
0.835358
0.713762
0.800233
0.78273
0.836188
0.834986
0.804517
0.801461
0.760828
0.771804
0.787504
0.836972
0.834949
0.820438
0.701516
0.81448
0.808668
0.786778
0.814399
0.8344
0.805186
0.80746
0.70203
0.808347
0.80903
0.858792
0.806746
0.813583
0.842444
0.809766
0.827392
0.859085
0.682195
0.807284
0.835463
0.809703
0.809152
0.810165
0.808274
0.808636
0.807696
0.810429
0.810804
0.750144
0.810494
0.811534
0.818896
0.832802
0.81266
0.830686
0.804065
0.806737
0.833874
0.833308
0.828377
0.804025
0.820217
0.817609
0.822014
0.834478
0.738784
0.834826
0.841291
0.836475
0.861303
0.766291
0.823293
0.838497
0.80508
0.690882
0.805637
0.786094
0.836301
0.664086
0.836003
0.839973
0.837204
0.82438
0.804009
0.830579
0.829063
0.806954
0.77956
0.834602
0.771629
0.642288
0.838489
0.707721
0.729929
0.823977
0.838755
0.839393
0.834715
0.855221
0.680834
0.876686
0.810239
0.837681
0.836655
0.831701
0.722264
0.837921
0.835762
0.835038
0.80533
0.781719
0.825688
0.649419
0.826103
0.851673
0.806289
0.848818
0.835129
0.80396
0.716801
0.845554
0.834663
0.846303
0.803521
0.827358
0.803887
0.844283
0.804977
0.827942
0.842451
0.84087
0.825492
0.837686
0.833935
0.750182
0.715916
0.670787
0.839573
0.838561
0.781558
0.774487
0.821981
0.837638
0.848464
0.669234
0.836849
0.836239
0.835789
0.83517
0.809236
0.824382
0.716484
0.767198
0.835447
0.80006
0.870422
0.892725
0.787829
0.818587
0.698516
0.838205
0.759898
0.753898
0.822891
0.807367
0.792852
0.720737
0.803414
0.837026
0.796772
0.750154
0.814938
0.821069
0.804334
0.728166
0.831791
0.799955
0.835726
0.843581
0.819219
0.81026
0.835271
0.835477
0.794137
0.807502
0.749052
0.842859
0.799782
0.827023
0.791682
0.808048
0.735725
0.802059
0.817657
0.816319
0.815163
0.81369
0.812558
0.811741
0.809972
0.808622
0.810854
0.758533
0.809291
0.802575
0.80174
0.805961
0.846343
0.750825
0.805246
0.786249
0.886577
0.855835
0.803139
0.755271
0.807259
0.803672
0.746157
0.806081
0.804977
0.761919
0.808529
0.804947
0.799895
0.80389
0.756719
0.795862
0.81783
0.770686
0.776822
0.787484
0.804347
0.834824
0.812789
0.779083
0.766796
0.804047
0.836897
0.805567
0.80436
0.802464
0.92734
0.865291
0.832404
0.83906
0.735952
0.852088
0.764331
0.829601
0.82554
0.899689
0.83849
0.79928
0.649347
0.838175
0.799538
0.837864
0.800068
0.851741
0.652223
0.842942
0.80528
0.809801
0.810105
0.807694
0.857186
0.80327
0.834441
0.723821
0.667629
0.693905
0.837572
0.639309
0.799883
0.749919
0.848277
0.819267
0.622724
0.812781
0.83694
0.837361
0.739672
0.804873
0.61953
0.800071
0.83701
0.800324
0.804818
0.800684
0.836486
0.841311
0.803962
0.801739
0.835828
0.80212
0.83564
0.818584
0.802518
0.835471
0.834709
0.835326
0.802878
0.835207
0.70554
0.803183
0.835115
0.804589
0.803481
0.835037
0.734221
0.837735
0.80002
0.838891
0.804243
0.826847
0.840979
0.867363
0.802676
0.804831
0.834981
0.819597
0.804386
0.803924
0.864316
0.822508
0.834989
0.827349
0.856333
0.840534
0.833978
0.829346
0.854577
0.837952
0.806198
0.835199
0.821263
0.806693
0.837196
0.803398
0.817426
0.790249