# vtk DataFile Version 1.0
unstructured grid
ascii
DATASET UNSTRUCTURED_GRID
points 7812 float
-1 0 0
-1 1 0
2 0 0
2 1 0
0 0 0
1 0 0
-1 1 0.1
-1 0 0.1
0 0 0.1
1 0 0.1
2 0 0.1
2 1 0.1
-0.99 0 0
-0.98 0 0
-0.97 0 0
-0.96 0 0
-0.95 0 0
-0.94 0 0
-0.93 0 0
-0.92 0 0
-0.91 0 0
-0.9 0 0
-0.89 0 0
-0.88 0 0
-0.87 0 0
-0.86 0 0
-0.85 0 0
-0.84 0 0
-0.83 0 0
-0.82 0 0
-0.81 0 0
-0.8 0 0
-0.79 0 0
-0.78 0 0
-0.77 0 0
-0.76 0 0
-0.75 0 0
-0.74 0 0
-0.73 0 0
-0.72 0 0
-0.71 0 0
-0.7 0 0
-0.69 0 0
-0.68 0 0
-0.67 0 0
-0.66 0 0
-0.65 0 0
-0.64 0 0
-0.63 0 0
-0.62 0 0
-0.61 0 0
-0.6 0 0
-0.59 0 0
-0.58 0 0
-0.57 0 0
-0.56 0 0
-0.55 0 0
-0.54 0 0
-0.53 0 0
-0.52 0 0
-0.51 0 0
-0.5 0 0
-0.49 0 0
-0.48 0 0
-0.47 0 0
-0.46 0 0
-0.45 0 0
-0.44 0 0
-0.43 0 0
-0.42 0 0
-0.41 0 0
-0.4 0 0
-0.39 0 0
-0.38 0 0
-0.37 0 0
-0.36 0 0
-0.35 0 0
-0.34 0 0
-0.33 0 0
-0.32 0 0
-0.31 0 0
-0.3 0 0
-0.29 0 0
-0.28 0 0
-0.27 0 0
-0.26 0 0
-0.25 0 0
-0.24 0 0
-0.23 0 0
-0.22 0 0
-0.21 0 0
-0.2 0 0
-0.19 0 0
-0.18 0 0
-0.17 0 0
-0.16 0 0
-0.15 0 0
-0.14 0 0
-0.13 0 0
-0.12 0 0
-0.11 0 0
-0.1 0 0
-0.09 0 0
-0.08 0 0
-0.07 0 0
-0.06 0 0
-0.05 0 0
-0.04 0 0
-0.03 0 0
-0.02 0 0
-0.01 0 0
1.01 0 0
1.02 0 0
1.03 0 0
1.04 0 0
1.05 0 0
1.06 0 0
1.07 0 0
1.08 0 0
1.09 0 0
1.1 0 0
1.11 0 0
1.12 0 0
1.13 0 0
1.14 0 0
1.15 0 0
1.16 0 0
1.17 0 0
1.18 0 0
1.19 0 0
1.2 0 0
1.21 0 0
1.22 0 0
1.23 0 0
1.24 0 0
1.25 0 0
1.26 0 0
1.27 0 0
1.28 0 0
1.29 0 0
1.3 0 0
1.31 0 0
1.32 0 0
1.33 0 0
1.34 0 0
1.35 0 0
1.36 0 0
1.37 0 0
1.38 0 0
1.39 0 0
1.4 0 0
1.41 0 0
1.42 0 0
1.43 0 0
1.44 0 0
1.45 0 0
1.46 0 0
1.47 0 0
1.48 0 0
1.49 0 0
1.5 0 0
1.51 0 0
1.52 0 0
1.53 0 0
1.54 0 0
1.55 0 0
1.56 0 0
1.57 0 0
1.58 0 0
1.59 0 0
1.6 0 0
1.61 0 0
1.62 0 0
1.63 0 0
1.64 0 0
1.65 0 0
1.66 0 0
1.67 0 0
1.68 0 0
1.69 0 0
1.7 0 0
1.71 0 0
1.72 0 0
1.73 0 0
1.74 0 0
1.75 0 0
1.76 0 0
1.77 0 0
1.78 0 0
1.79 0 0
1.8 0 0
1.81 0 0
1.82 0 0
1.83 0 0
1.84 0 0
1.85 0 0
1.86 0 0
1.87 0 0
1.88 0 0
1.89 0 0
1.9 0 0
1.91 0 0
1.92 0 0
1.93 0 0
1.94 0 0
1.95 0 0
1.96 0 0
1.97 0 0
1.98 0 0
1.99 0 0
2 0.010289 0
2 0.0215307 0
2 0.0338135 0
2 0.0472336 0
2 0.0618965 0
2 0.0779171 0
2 0.0954213 0
2 0.114546 0
2 0.135442 0
2 0.158274 0
2 0.183219 0
2 0.210474 0
2 0.240253 0
2 0.27279 0
2 0.308339 0
2 0.347181 0
2 0.389619 0
2 0.435987 0
2 0.486649 0
2 0.542002 0
2 0.602481 0
2 0.66856 0
2 0.740758 0
2 0.819642 0
2 0.90583 0
1.9 1 0
1.8 1 0
1.7 1 0
1.6 1 0
1.5 1 0
1.4 1 0
1.3 1 0
1.2 1 0
1.1 1 0
1 1 0
0.9 1 0
0.8 1 0
0.7 1 0
0.6 1 0
0.5 1 0
0.4 1 0
0.3 1 0
0.2 1 0
0.1 1 0
3.69793e-12 1 0
-0.1 1 0
-0.2 1 0
-0.3 1 0
-0.4 1 0
-0.5 1 0
-0.6 1 0
-0.7 1 0
-0.8 1 0
-0.9 1 0
-1 0.90583 0
-1 0.819642 0
-1 0.740758 0
-1 0.66856 0
-1 0.602481 0
-1 0.542002 0
-1 0.486649 0
-1 0.435987 0
-1 0.389619 0
-1 0.347181 0
-1 0.308339 0
-1 0.27279 0
-1 0.240253 0
-1 0.210474 0
-1 0.183219 0
-1 0.158274 0
-1 0.135442 0
-1 0.114546 0
-1 0.0954213 0
-1 0.0779171 0
-1 0.0618965 0
-1 0.0472336 0
-1 0.0338135 0
-1 0.0215307 0
-1 0.010289 0
0.00921362 0.00379763 0
0.0184561 0.00752451 0
0.0277268 0.0111804 0
0.0370253 0.0147652 0
0.0463511 0.0182786 0
0.0557034 0.0217203 0
0.0650819 0.0250903 0
0.074486 0.0283883 0
0.083915 0.0316141 0
0.0933685 0.0347675 0
0.102846 0.0378484 0
0.112347 0.0408565 0
0.12187 0.0437917 0
0.131416 0.0466538 0
0.140983 0.0494427 0
0.150572 0.0521581 0
0.160181 0.0547999 0
0.16981 0.0573681 0
0.179458 0.0598623 0
0.189125 0.0622825 0
0.198811 0.0646285 0
0.208514 0.0669001 0
0.218234 0.0690974 0
0.227971 0.07122 0
0.237724 0.073268 0
0.247493 0.0752411 0
0.257276 0.0771393 0
0.267073 0.0789625 0
0.276884 0.0807105 0
0.286708 0.0823832 0
0.296545 0.0839806 0
0.306394 0.0855025 0
0.316254 0.0869488 0
0.326125 0.0883196 0
0.336006 0.0896146 0
0.345896 0.0908339 0
0.355796 0.0919773 0
0.365704 0.0930447 0
0.375621 0.0940362 0
0.385544 0.0949517 0
0.395474 0.095791 0
0.40541 0.0965542 0
0.415352 0.0972412 0
0.425299 0.097852 0
0.43525 0.0983865 0
0.445205 0.0988447 0
0.455164 0.0992266 0
0.465125 0.0995321 0
0.475088 0.0997613 0
0.485052 0.0999141 0
0.495017 0.0999904 0
0.504983 0.0999904 0
0.514948 0.0999141 0
0.524912 0.0997613 0
0.534875 0.0995321 0
0.544836 0.0992266 0
0.554795 0.0988447 0
0.56475 0.0983865 0
0.574701 0.097852 0
0.584648 0.0972412 0
0.59459 0.0965542 0
0.604526 0.095791 0
0.614456 0.0949517 0
0.624379 0.0940362 0
0.634296 0.0930447 0
0.644204 0.0919773 0
0.654104 0.0908339 0
0.663994 0.0896146 0
0.673875 0.0883196 0
0.683746 0.0869488 0
0.693606 0.0855025 0
0.703455 0.0839806 0
0.713292 0.0823832 0
0.723116 0.0807105 0
0.732927 0.0789625 0
0.742724 0.0771393 0
0.752508 0.0752411 0
0.762276 0.073268 0
0.772029 0.07122 0
0.781766 0.0690974 0
0.791486 0.0669001 0
0.801189 0.0646285 0
0.810875 0.0622825 0
0.820542 0.0598623 0
0.83019 0.0573681 0
0.839819 0.0547999 0
0.849428 0.0521581 0
0.859017 0.0494427 0
0.868584 0.0466538 0
0.87813 0.0437917 0
0.887653 0.0408565 0
0.897154 0.0378484 0
0.906631 0.0347675 0
0.916085 0.0316141 0
0.925514 0.0283883 0
0.934918 0.0250903 0
0.944297 0.0217203 0
0.953649 0.0182786 0
0.962975 0.0147652 0
0.972273 0.0111804 0
0.981544 0.00752451 0
0.990786 0.00379763 0
-1 0.90583 0.1
-1 0.819642 0.1
-1 0.740758 0.1
-1 0.66856 0.1
-1 0.602481 0.1
-1 0.542002 0.1
-1 0.486649 0.1
-1 0.435987 0.1
-1 0.389619 0.1
-1 0.347181 0.1
-1 0.308339 0.1
-1 0.27279 0.1
-1 0.240253 0.1
-1 0.210474 0.1
-1 0.183219 0.1
-1 0.158274 0.1
-1 0.135442 0.1
-1 0.114546 0.1
-1 0.0954213 0.1
-1 0.0779171 0.1
-1 0.0618965 0.1
-1 0.0472336 0.1
-1 0.0338135 0.1
-1 0.0215307 0.1
-1 0.010289 0.1
-0.99 0 0.1
-0.98 0 0.1
-0.97 0 0.1
-0.96 0 0.1
-0.95 0 0.1
-0.94 0 0.1
-0.93 0 0.1
-0.92 0 0.1
-0.91 0 0.1
-0.9 0 0.1
-0.89 0 0.1
-0.88 0 0.1
-0.87 0 0.1
-0.86 0 0.1
-0.85 0 0.1
-0.84 0 0.1
-0.83 0 0.1
-0.82 0 0.1
-0.81 0 0.1
-0.8 0 0.1
-0.79 0 0.1
-0.78 0 0.1
-0.77 0 0.1
-0.76 0 0.1
-0.75 0 0.1
-0.74 0 0.1
-0.73 0 0.1
-0.72 0 0.1
-0.71 0 0.1
-0.7 0 0.1
-0.69 0 0.1
-0.68 0 0.1
-0.67 0 0.1
-0.66 0 0.1
-0.65 0 0.1
-0.64 0 0.1
-0.63 0 0.1
-0.62 0 0.1
-0.61 0 0.1
-0.6 0 0.1
-0.59 0 0.1
-0.58 0 0.1
-0.57 0 0.1
-0.56 0 0.1
-0.55 0 0.1
-0.54 0 0.1
-0.53 0 0.1
-0.52 0 0.1
-0.51 0 0.1
-0.5 0 0.1
-0.49 0 0.1
-0.48 0 0.1
-0.47 0 0.1
-0.46 0 0.1
-0.45 0 0.1
-0.44 0 0.1
-0.43 0 0.1
-0.42 0 0.1
-0.41 0 0.1
-0.4 0 0.1
-0.39 0 0.1
-0.38 0 0.1
-0.37 0 0.1
-0.36 0 0.1
-0.35 0 0.1
-0.34 0 0.1
-0.33 0 0.1
-0.32 0 0.1
-0.31 0 0.1
-0.3 0 0.1
-0.29 0 0.1
-0.28 0 0.1
-0.27 0 0.1
-0.26 0 0.1
-0.25 0 0.1
-0.24 0 0.1
-0.23 0 0.1
-0.22 0 0.1
-0.21 0 0.1
-0.2 0 0.1
-0.19 0 0.1
-0.18 0 0.1
-0.17 0 0.1
-0.16 0 0.1
-0.15 0 0.1
-0.14 0 0.1
-0.13 0 0.1
-0.12 0 0.1
-0.11 0 0.1
-0.1 0 0.1
-0.09 0 0.1
-0.08 0 0.1
-0.07 0 0.1
-0.06 0 0.1
-0.05 0 0.1
-0.04 0 0.1
-0.03 0 0.1
-0.02 0 0.1
-0.01 0 0.1
0.00921362 0.00379763 0.1
0.0184561 0.00752451 0.1
0.0277268 0.0111804 0.1
0.0370253 0.0147652 0.1
0.0463511 0.0182786 0.1
0.0557034 0.0217203 0.1
0.0650819 0.0250903 0.1
0.074486 0.0283883 0.1
0.083915 0.0316141 0.1
0.0933685 0.0347675 0.1
0.102846 0.0378484 0.1
0.112347 0.0408565 0.1
0.12187 0.0437917 0.1
0.131416 0.0466538 0.1
0.140983 0.0494427 0.1
0.150572 0.0521581 0.1
0.160181 0.0547999 0.1
0.16981 0.0573681 0.1
0.179458 0.0598623 0.1
0.189125 0.0622825 0.1
0.198811 0.0646285 0.1
0.208514 0.0669001 0.1
0.218234 0.0690974 0.1
0.227971 0.07122 0.1
0.237724 0.073268 0.1
0.247493 0.0752411 0.1
0.257276 0.0771393 0.1
0.267073 0.0789625 0.1
0.276884 0.0807105 0.1
0.286708 0.0823832 0.1
0.296545 0.0839806 0.1
0.306394 0.0855025 0.1
0.316254 0.0869488 0.1
0.326125 0.0883196 0.1
0.336006 0.0896146 0.1
0.345896 0.0908339 0.1
0.355796 0.0919773 0.1
0.365704 0.0930447 0.1
0.375621 0.0940362 0.1
0.385544 0.0949517 0.1
0.395474 0.095791 0.1
0.40541 0.0965542 0.1
0.415352 0.0972412 0.1
0.425299 0.097852 0.1
0.43525 0.0983865 0.1
0.445205 0.0988447 0.1
0.455164 0.0992266 0.1
0.465125 0.0995321 0.1
0.475088 0.0997613 0.1
0.485052 0.0999141 0.1
0.495017 0.0999904 0.1
0.504983 0.0999904 0.1
0.514948 0.0999141 0.1
0.524912 0.0997613 0.1
0.534875 0.0995321 0.1
0.544836 0.0992266 0.1
0.554795 0.0988447 0.1
0.56475 0.0983865 0.1
0.574701 0.097852 0.1
0.584648 0.0972412 0.1
0.59459 0.0965542 0.1
0.604526 0.095791 0.1
0.614456 0.0949517 0.1
0.624379 0.0940362 0.1
0.634296 0.0930447 0.1
0.644204 0.0919773 0.1
0.654104 0.0908339 0.1
0.663994 0.0896146 0.1
0.673875 0.0883196 0.1
0.683746 0.0869488 0.1
0.693606 0.0855025 0.1
0.703455 0.0839806 0.1
0.713292 0.0823832 0.1
0.723116 0.0807105 0.1
0.732927 0.0789625 0.1
0.742724 0.0771393 0.1
0.752508 0.0752411 0.1
0.762276 0.073268 0.1
0.772029 0.07122 0.1
0.781766 0.0690974 0.1
0.791486 0.0669001 0.1
0.801189 0.0646285 0.1
0.810875 0.0622825 0.1
0.820542 0.0598623 0.1
0.83019 0.0573681 0.1
0.839819 0.0547999 0.1
0.849428 0.0521581 0.1
0.859017 0.0494427 0.1
0.868584 0.0466538 0.1
0.87813 0.0437917 0.1
0.887653 0.0408565 0.1
0.897154 0.0378484 0.1
0.906631 0.0347675 0.1
0.916085 0.0316141 0.1
0.925514 0.0283883 0.1
0.934918 0.0250903 0.1
0.944297 0.0217203 0.1
0.953649 0.0182786 0.1
0.962975 0.0147652 0.1
0.972273 0.0111804 0.1
0.981544 0.00752451 0.1
0.990786 0.00379763 0.1
1.01 0 0.1
1.02 0 0.1
1.03 0 0.1
1.04 0 0.1
1.05 0 0.1
1.06 0 0.1
1.07 0 0.1
1.08 0 0.1
1.09 0 0.1
1.1 0 0.1
1.11 0 0.1
1.12 0 0.1
1.13 0 0.1
1.14 0 0.1
1.15 0 0.1
1.16 0 0.1
1.17 0 0.1
1.18 0 0.1
1.19 0 0.1
1.2 0 0.1
1.21 0 0.1
1.22 0 0.1
1.23 0 0.1
1.24 0 0.1
1.25 0 0.1
1.26 0 0.1
1.27 0 0.1
1.28 0 0.1
1.29 0 0.1
1.3 0 0.1
1.31 0 0.1
1.32 0 0.1
1.33 0 0.1
1.34 0 0.1
1.35 0 0.1
1.36 0 0.1
1.37 0 0.1
1.38 0 0.1
1.39 0 0.1
1.4 0 0.1
1.41 0 0.1
1.42 0 0.1
1.43 0 0.1
1.44 0 0.1
1.45 0 0.1
1.46 0 0.1
1.47 0 0.1
1.48 0 0.1
1.49 0 0.1
1.5 0 0.1
1.51 0 0.1
1.52 0 0.1
1.53 0 0.1
1.54 0 0.1
1.55 0 0.1
1.56 0 0.1
1.57 0 0.1
1.58 0 0.1
1.59 0 0.1
1.6 0 0.1
1.61 0 0.1
1.62 0 0.1
1.63 0 0.1
1.64 0 0.1
1.65 0 0.1
1.66 0 0.1
1.67 0 0.1
1.68 0 0.1
1.69 0 0.1
1.7 0 0.1
1.71 0 0.1
1.72 0 0.1
1.73 0 0.1
1.74 0 0.1
1.75 0 0.1
1.76 0 0.1
1.77 0 0.1
1.78 0 0.1
1.79 0 0.1
1.8 0 0.1
1.81 0 0.1
1.82 0 0.1
1.83 0 0.1
1.84 0 0.1
1.85 0 0.1
1.86 0 0.1
1.87 0 0.1
1.88 0 0.1
[...]
CELL_DATA 7425
SCALARS rho float
LOOKUP_TABLE default
0.586984
0.805023
0.819475
0.827455
0.79935
0.819075
0.820853
0.814036
0.812876
0.738556
0.863457
0.810005
0.813797
0.827311
0.803648
0.817066
0.798688
0.813161
0.803458
0.767204
0.831212
0.822021
0.724703
0.827983
0.803864
0.702833
0.831145
0.848166
0.80015
0.807897
0.819309
0.725556
0.803604
0.651942
0.518923
0.827949
0.803497
0.814013
0.811115
0.827947
0.715826
0.702932
0.789918
0.702471
0.586252
0.748152
0.799235
0.813731
0.660926
0.719331
0.746298
0.805139
0.812333
0.79901
0.709947
0.619415
0.82284
0.800044
0.738426
0.700809
0.709233
0.807643
0.813131
0.799318
0.798758
0.817525
0.584183
0.773214
0.704909
0.807813
0.804124
0.803197
0.883377
0.821094
0.810816
0.812936
0.805035
0.800426
0.813138
0.757718
0.81589
0.807223
0.810187
0.788613
0.835858
0.80103
0.57427
0.829899
0.542244
0.848433
0.707191
0.729661
0.845131
0.803167
0.817314
0.758097
0.835984
0.787985
0.825558
0.802406
0.80801
0.738664
0.803277
0.828179
0.597076
0.811043
0.824306
0.707325
0.814903
0.799097
0.816624
0.784497
0.789736
0.812413
0.789649
0.78628
0.831194
0.803099
0.700322
0.629047
0.805034
0.7772
0.812839
0.790373
0.858895
0.838747
0.807678
0.804211
0.661074
0.503731
0.814381
0.654897
0.514815
0.867561
0.661221
0.799445
0.811079
0.723449
0.581827
0.724639
0.723106
0.809547
0.80954
0.707448
0.803093
0.779569
0.565298
0.788425
0.782532
0.827701
0.816704
0.704157
0.802839
0.744296
0.705357
0.803265
0.810406
0.830346
0.797496
0.651773
0.802483
0.70375
0.801035
0.829678
0.82038
0.802363
0.812959
0.784749
0.806258
0.800581
0.819629
0.804405
0.791093
0.79906
0.799827
0.739973
0.803628
0.758604
0.593818
0.70716
0.799612
0.792633
0.879769
0.831786
0.61115
0.822853
0.798566
0.827241
0.799807
0.813305
0.8125
0.803182
0.806925
0.704742
0.814918
0.819179
0.770045
0.79707
0.860991
0.807746
0.811784
0.811062
0.612729
0.838797
0.572844
0.531472
0.595332
0.600124
0.828077
0.879302
0.807511
0.798637
0.841337
0.812863
0.816597
0.820689
0.815111
0.637903
0.548318
0.813627
0.545277
0.592281
0.703592
0.811609
0.81397
0.812936
0.833075
0.812802
0.864075
0.710162
0.835165
0.712396
0.80515
0.803911
0.801938
0.713803
0.720262
0.619401
0.70583
0.863579
0.875243
0.806149
0.80768
0.798787
0.811475
0.715612
0.821531
0.800118
0.825625
0.794597
0.809748
0.721443
0.812703
0.823663
0.739622
0.528279
0.799801
0.736447
0.843243
0.81425
0.726663
0.815488
0.814748
0.849909
0.809414
0.803791
0.803245
0.825582
0.860718
0.805362
0.619162
0.848839
0.811909
0.805588
0.827474
0.837286
0.812888
0.821359
0.793472
0.81498
0.866474
0.849903
0.827263
0.836679
0.802646
0.817075
0.803185
0.759665
0.701062
0.580723
0.701151
0.802267
0.812786
0.815897
0.854588
0.779613
0.645646
0.827012
0.520501
0.774214
0.80091
0.646305
0.494723
0.639002
0.815106
0.813133
0.812861
0.812627
0.826646
0.774394
0.811459
0.802655
0.812798
0.840655
0.866972
0.833496
0.802704
0.706575
0.795826
0.834235
0.691477
0.798676
0.80203
0.864747
0.817015
0.59291
0.813293
0.740345
0.852183
0.731874
0.81001
0.907639
0.799796
0.795566
0.658847
0.635465
0.711904
0.780495
0.826471
0.814842
0.813594
0.882266
0.858042
0.799465
0.799103
0.826001
0.739096
0.8025
0.879355
0.801371
0.804621
0.80063
0.802557
0.812867
0.815631
0.816285
0.636024
0.829912
0.645248
0.808409
0.639141
0.802546
0.802221
0.840209
0.728519
0.816325
0.808486
0.816895
0.799439
0.802485
0.811215
0.696475
0.824441
0.812955
0.812829
0.800669
0.736793
0.559789
0.806399
0.810919
0.803181
0.812787
0.794664
0.50255
0.845937
0.813216
0.803838
0.78566
0.81316
0.804619
0.802976
0.81615
0.807496
0.822434
0.768539
0.812598
0.807752
0.562511
0.803046
0.640012
0.838712
0.636125
0.814608
0.877868
0.592869
0.818037
0.748866
0.8044
0.873312
0.533425
0.823048
0.822183
0.803486
0.825667
0.811014
0.823384
0.830572
0.824765
0.739558
0.827452
0.761661
0.810155
0.794214
0.793562
0.75851
0.805583
0.80208
0.814385
0.752101
0.804658
0.604295
0.614089
0.688802
0.812711
0.844146
0.864798
0.829817
0.79851
0.812537
0.804838
0.818449
0.680405
0.800928
0.74286
0.824003
0.814711
0.805313
0.712021
0.727132
0.53345
0.605492
0.80123
0.611271
0.792508
0.765327
0.769981
0.727161
0.76238
0.767446
0.80934
0.81484
0.819471
0.811364
0.710312
0.601844
0.838976
0.806848
0.783107
0.809753
0.802529
0.836499
0.717943
0.85524
0.763659
0.728144
0.764423
0.811422
0.544787
0.798758
0.841561
0.813237
0.813689
0.809621
0.799094
0.780209
0.835652
0.8031
0.84292
0.721015
0.707595
0.800293
0.795087
0.821946
0.708592
0.847912
0.80035
0.815966
0.798662
0.779133
0.808184
0.594486
0.677332
0.632314
0.812839
0.803759
0.826287
0.74918
0.81058
0.814707
0.820316
0.798907
0.729169
0.796798
0.814215
0.803191
0.702934
0.813495
0.818832
0.83997
0.810678
0.825266
0.862259
0.857235
0.74382
0.603286
0.837987
0.805752
0.84334
0.814134
0.822857
0.813425
0.813707
0.632842
0.80511
0.809233
0.812718
0.791843
0.810536
0.804697
0.860399
0.798594
0.812632
0.814623
0.871888
0.597506
0.813362
0.842328
0.883294
0.530261
0.816319
0.829884
0.796121
0.814729
0.794891
0.867563
0.812139
0.831287
0.812633
0.619238
0.802379
0.804136
0.690635
0.853103
0.759773
0.801787
0.813885
0.812614
0.859587
0.795331
0.833562
0.834663
0.784212
0.825129
0.842261
0.799675
0.810418
0.806886
0.805303
0.814768
0.802624
0.845176
0.769207
0.809764
0.803145
0.815158
0.723035
0.812793
0.818275
0.752534
0.81349
0.816289
0.827488
0.825049
0.800659
0.800614
0.850463
0.767943
0.825056
0.844158
0.804546
0.505362
0.8128
0.828215
0.852351
0.812562
0.803145
0.808507
0.85501
0.780071
0.802575
0.801182
0.812835
0.726957
0.802676
0.829954
0.807942
0.79495
0.793437
0.843149
0.806595
0.84528
0.802015
0.824181
0.812672
0.804207
0.841813
0.812769
0.679284
0.818702
0.807087
0.812744
0.90613
0.800767
0.815826
0.800447
0.800355
0.816122
0.800461
0.803348
0.783727
0.747317
0.806423
0.812796
0.757951
0.79133
0.822955
0.813003
0.822187
0.806278
0.825707
0.875278
0.830588
0.574487
0.708729
0.840702
0.81721
0.844111
0.814678
0.850062
0.807268
0.812348
0.799292
0.838359
0.860894
0.852749
0.731427
0.813999
0.822111
0.744004
0.817027
0.775891
0.800185
0.732983
0.815984
0.830805
0.823442
0.861725
0.814129
0.813205
0.810101
0.81456
0.835745
0.812185
0.798604
0.810218
0.737453
0.811252
0.774184
0.832788
0.812693
0.6387
0.777603
0.811079
0.799124
0.819754
0.802415
0.814592
0.817222
0.804414
0.819326
0.804154
0.805781
0.597018
0.846997
0.825067
0.82664
0.81485
0.803214
0.701762
0.806415
0.90782
0.813504
0.800968
0.812796
0.782247
0.807186
0.8132
0.821217
0.81462
0.813135
0.81616
0.702308
0.777781
0.764506
0.812568
0.805278
0.800964
0.621216
0.805646
0.802577
0.708093
0.83713
0.817123
0.802153
0.807392
0.799354
0.817175
0.813879
0.813196
0.81278
0.709608
0.831644
0.800264
0.80734
0.842739
0.81755
0.816216
0.800126
0.753631
0.823774
0.787348
0.821366
0.789387
0.805567
0.820883
0.737499
0.817337
0.65021
0.871997
0.704245
0.84496
0.800733
0.875132
0.793647
0.801647
0.820601
0.83616
0.838373
0.825412
0.819757
0.814633
0.801065
0.804166
0.808214
0.725565
0.8272
0.800073
0.719726
0.830483
0.706782
0.79994
0.860286
0.805568
0.701193
0.797823
0.814002
0.705151
0.785653
0.819314
0.83181
0.806885
0.572347
0.728468
0.812368
0.801263
0.812829
0.800618
0.737152
0.813931
0.815638
0.812396
0.775305
0.803258
0.80448
0.803507
0.560284
0.812616
0.834068
0.579568
0.815085
0.816025
0.814615
0.818287
0.814339
0.824475
0.799018
0.795105
0.771036
0.82286
0.829629
0.825069
0.834798
0.765287
0.808919
0.72424
0.772348
0.808738
0.821005
0.813196
0.800963
0.858176
0.812834
0.800266
0.809509
0.816019
0.815108
0.836578
0.814411
0.812715
0.811966
0.813733
0.800078
0.820927
0.803754
0.822763
0.813379
0.575302
0.813426
0.834409
0.857961
0.838142
0.490388
0.816732
0.804473
0.496253
0.669188
0.642856
0.834249
0.807923
0.811636
0.81271
0.803201
0.816673
0.81092
0.534342
0.68629
0.818206
0.806613
0.815537
0.803499
0.810217
0.810819
0.820171
0.799469
0.692051
0.855813
0.803147
0.814698
0.813538
0.757717
0.485319
0.832838
0.813501
0.742024
0.802698
0.80614
0.590619
0.827474
0.814704
0.82766
0.818709
0.825908
0.804719
0.719225
0.643451
0.561903
0.825254
0.808447
0.782976
0.812879
0.779727
0.817816
0.873288
0.762308
0.821542
0.813444
0.825776
0.883539
0.81436
0.811748
0.80325
0.81385
0.691581
0.828148
0.799832
0.810095
0.80219
0.784222
0.854122
0.821975
0.840445
0.821456
0.757604
0.755852
0.803245
0.818032
0.803059
0.805233
0.802571
0.775578
0.814604
0.761504
0.821073
0.661959
0.813889
0.802946
0.735797
0.82321
0.817913
0.739922
0.801149
0.757147
0.880516
0.800713
0.812744
0.762613
0.800022
0.814189
0.803939
0.589707
0.820888
0.798607
0.801277
0.814443
0.825553
0.757052
0.805458
0.841534
0.826861
0.814062
0.835784
0.701269
0.700059
0.812829
0.744093
0.822151
0.771312
0.812736
0.802505
0.810345
0.751891
0.794177
0.764256
0.80981
0.803139
0.631085
0.778966
0.799224
0.848909
0.814285
0.828591
0.526187
0.82531
0.785091
0.858699
0.80093
0.817941
0.800219
0.785725
0.798685
0.825653
0.835724
0.821713
0.817045
0.7071
0.773764
0.815291
0.805368
0.809884
0.803898
0.707114
0.792773
0.803426
0.810583
0.827104
0.851176
0.831794
0.813377
0.799368
0.804177
0.801981
0.779595
0.611469
0.800256
0.731171
0.661789
0.822742
0.798786
0.777272
0.799918
0.754097
0.785268
0.811359
0.822115
0.803282
0.815931
0.817292
0.820615
0.8133
0.80842
0.71207
0.699301
0.640792
0.829219
0.869537
0.815316
0.841296
0.847795
0.863708
0.735524
0.81652
0.862979
0.810127
0.812773
0.816134
0.732687
0.812345
0.806583
0.806122
0.516955
0.81287
0.761113
0.813066
0.813765
0.803533
0.70571
0.813107
0.61047
0.824978
0.802225
0.822194
0.855124
0.80342
0.79535
0.820863
0.811492
0.805671
0.76219
0.509459
0.820827
0.803071
0.828846
0.825698
0.802026
0.80701
0.834417
0.720716
0.500013
0.886239
0.80052
0.815608
0.80431
0.710596
0.798566
0.799941
0.814981
0.735922
0.646387
0.883226
0.714055
0.836495
0.811895
0.832831
0.842614
0.792103
0.804733
0.813508
0.852745
0.738243
0.870676
0.813929
0.562622
0.802388
0.748956
0.85287
0.760207
0.804205
0.803943
0.799571
0.801562
0.80879
0.812808
0.855446
0.805917
0.802861
0.801302
0.799945
0.812141
0.816794
0.80261
0.812385
0.849162
0.803093
0.783388
0.802226
0.839497
0.724825
0.813539
0.813739
0.635833
0.713002
0.805526
0.822957
0.80348
0.511372
0.856213
0.813126
0.832908
0.805292
0.803305
0.801314
0.786174
0.58703
0.804276
0.81602
0.835949
0.820492
0.812852
0.798087
0.746824
0.80155
0.765682
0.787504
0.799267
0.790937
0.751059
0.800782
0.81138
0.810281
0.832152
0.848963
0.553003
0.841852
0.812743
0.820827
0.801946
0.822634
0.810976
0.894594
0.800181
0.866976
0.805669
0.759681
0.862091
0.802266
0.800231
0.824095
0.660279
0.645163
0.803385
0.803842
0.705494
0.654184
0.799889
0.823784
0.812933
0.822518
0.732828
0.817128
0.812746
0.826066
0.816878
0.811924
0.812764
0.754511
0.803826
0.815597
0.81123
0.676116
0.566244
0.812801
0.649885
0.721844
0.554896
0.841346
0.800058
0.526573
0.60061
0.827467
0.908052
0.818069
0.652192
0.814071
0.78637
0.80166
0.786323
0.820568
0.81003
0.788251
0.820985
0.800933
0.587469
0.817747
0.766598
0.815849
0.701138
0.82215
0.789572
0.813862
0.799979
0.662753
0.843472
0.806495
0.806538
0.493143
0.816752
0.800323
0.852053
0.711437
0.817007
0.583438
0.71869
0.801346
0.796602
0.732568
0.71541
0.716136
0.506574
0.588673
0.799916
0.517114
0.822529
0.519668
0.757121
0.671039
0.598569
0.540226
0.745357
0.803076
0.715385
0.821224
0.800894
0.802891
0.761124
0.889656
0.798976
0.824414
0.803416
0.812689
0.705866
0.807499
0.736617
0.821839
0.886014
0.83352
0.74763
0.82272
0.770421
0.879877
0.804184
0.758596
0.85064
0.776792
0.799915
0.805213
0.758163
0.744472
0.66477
0.804971
0.803016
0.817834
0.833433
0.611351
0.807834
0.537795
0.668478
0.615915
0.818431
0.82097
0.808909
0.803964
0.615542
0.872431
0.80267
0.80294
0.86348
0.812324
0.771965
0.812061
0.802357
0.817824
0.80314
0.716951
0.803314
0.654996
0.79894
0.804026
0.801524
0.639044
0.811467
0.810249
0.725608
0.81772
0.54887
0.576505
0.804132
0.69638
0.725861
0.571912
0.723478
0.813531
0.707859
0.772926
0.716789
0.812751
0.670082
0.762038
0.806411
0.810522
0.654317
0.80193
0.895136
0.796673
0.816715
0.584825
0.693695
0.800859
0.812845
0.813921
0.851619
0.81255
0.804236
0.803713
0.803328
0.713686
0.717619
0.615461
0.771389
0.532326
0.724029
0.809831
0.814323
0.806055
0.799194
0.53468
0.808978
0.803746
0.553711
0.542985
0.74652
0.803561
0.806106
0.549104
0.79817
0.56938
0.720266
0.607607
0.813481
0.8022
0.596861
0.608132
0.867862
0.809994
0.76534
0.717719
0.621358
0.655206
0.710033
0.815932
0.759707
0.765506
0.623861
0.753786
0.809224
0.815281
0.812354
0.815387
0.86547
0.754597
0.818855
0.803315
0.851239
0.812756
0.802764
0.812982
0.722704
0.812869
0.811911
0.815104
0.81107
0.815812
0.803263
0.817848
0.810303
0.809653
0.817188
0.8001
0.816515
0.818875
0.667352
0.81853
0.868381
0.818089
0.792902
0.645784
0.85854
0.81871
0.824818
0.799474
0.811109
0.757507
0.8525
0.558604
0.726454
0.809843
0.815582
0.803862
0.803351
0.831986
0.804948
0.805155
0.815176
0.780653
0.838497
0.841895
0.81514
0.664194
0.611732
0.815681
0.81654
0.788222
0.849581
0.847213
0.810764
0.813548
0.777685
0.813999
0.817753
0.814023
0.818697
0.813012
0.815738
0.850997
0.815884
0.814419
0.817472
0.817687
0.784856
0.814036
0.803979
0.804048
0.80455
0.818489
0.811382
0.78828
0.753995
0.812574
0.806262
0.808688
0.80636
0.857733
0.803287
0.813907
0.812593
0.805133
0.555341
0.803873
0.812636
0.814932
0.810292
0.812679
0.813202
0.812921
0.810158
0.864358
0.501123
0.812708
0.841609
0.812546
0.802943
0.808381
0.814909
0.839622
0.800378
0.801136
0.812553
0.706561
0.812726
0.808154
0.807272
0.812452
0.812779
0.812923
0.813258
0.511398
0.811838
0.715546
0.885817
0.820982
0.733483
0.670687
0.815272
0.803434
0.818646
0.64636
0.801623
0.813229
0.64785
0.799782
0.804073
0.815344
0.806216
0.856695
0.809831
0.606765
0.800774
0.775175
0.811192
0.889048
0.803219
0.815491
0.819259
0.832155
0.813296
0.822322
0.836283
0.634828
0.802558
0.65565
0.813647
0.813546
0.712652
0.813431
0.804741
0.71321
0.814845
0.701005
0.861032
0.784024
0.8142
0.812782
0.813326
0.667717
0.813552
0.633167
0.800142
0.792337
0.822218
0.815087
0.71587
0.766687
0.829981
0.81265
0.821243
0.821825
0.813334
0.825257
0.799433
0.551874
0.754917
0.759116
0.731517
0.837545
0.822261
0.834288
0.775936
0.80275
0.812918
0.812839
0.812843
0.774582
0.563609
0.803194
0.528124
0.808133
0.824183
0.799632
0.803746
0.81287
0.805993
0.782543
0.732126
0.813282
0.859104
0.813628
0.799224
0.73696
0.809516
0.788686
0.833667
0.503384
0.795955
0.805816
0.798804
0.688668
0.812733
0.810674
0.856938
0.568879
0.807313
0.80326
0.812718
0.61219
0.812978
0.803324
0.803392
0.803016
0.813091
0.81319
0.816014
0.812928
0.718033
0.804485
0.803191
0.812876
0.89614
0.813036
0.773909
0.84107
0.799165
0.803126
0.601169
0.812769
0.803348
0.825565
0.801943
0.866183
0.814751
0.853295
0.800269
0.820548
0.777831
0.558062
0.752594
0.794163
0.803847
0.813915
0.8137
0.555276
0.861744
0.857785
0.768375
0.757638
0.738492
0.811975
0.848312
0.812807
0.813649
0.812842
0.804259
0.726771
0.803488
0.799039
0.764227
0.824179
0.822911
0.861802
0.815552
0.812853
0.523518
0.808869
0.812813
0.80065
0.773899
0.818043
0.803104
0.81277
0.826803
0.798424
0.803533
0.801173
0.81509
0.839051
0.802301
0.799099
0.801416
0.766098
0.819772
0.566863
0.86834
0.803673
0.545507
0.803098
0.80306
0.81948
0.590909
0.605978
0.801494
0.803561
0.800783
0.860688
0.779865
0.814539
0.802924
0.865589
0.804698
0.804436
0.826251
0.815855
0.820004
0.821183
0.82023
0.86744
0.729173
0.852098
0.817098
0.653539
0.802487
0.80317
0.803622
0.821025
0.823415
0.803917
0.801024
0.799986
0.822582
0.803146
0.803588
0.799593
0.824292
0.803957
0.801962
0.806058
0.827779
0.800465
0.801464
0.824173
0.799522
0.815271
0.651134
0.826297
0.849786
0.804822
0.819471
0.803212
0.828659
0.837417
0.803386
0.821378
0.800481
0.806902
0.789526
0.802127
0.803106
0.806338
0.805851
0.804444
0.818441
0.814632
0.811208
0.831322
0.802108
0.802199
0.799836
0.788981
0.833706
0.803126
0.819199
0.815094
0.807063
0.804975
0.80294
0.838832
0.864601
0.799503
0.67883
0.801139
0.842076
0.816482
0.805048
0.804448
0.819643
0.844526
0.600905
0.828659
0.794412
0.850242
0.818625
0.811961
0.813227
0.808156
0.803939
0.812731
0.808721
0.591678
0.847914
0.794549
0.81406
0.854525
0.819173
0.763106
0.808587
0.814332
0.815352
0.802943
0.66156
0.80912
0.863098
0.802507
0.800656
0.775324
0.871174
0.800386
0.877028
0.806616
0.817053
0.820509
0.802144
0.803765
0.812473
0.815767
0.803393
0.813197
0.816625
0.881311
0.820648
0.809272
0.800061
0.828328
0.810454
0.838745
0.808751
0.806921
0.812032
0.816433
0.829833
0.813534
0.822438
0.832441
0.814076
0.69946
0.690396
0.812912
0.817632
0.80373
0.812994
0.513587
0.854818
0.7997
0.806205
0.813814
0.813356
0.803938
0.812349
0.800411
0.801154
0.807957
0.814646
0.756779
0.784571
0.82284
0.842563
0.834732
0.800189
0.804985
0.803342
0.812881
0.805649
0.799453
0.799727
0.80096
0.810831
0.797777
0.802673
0.835409
0.831221
0.729654
0.659996
0.807547
0.698301
0.79942
0.571589
0.804385
0.806884
0.803035
0.818052
0.833668
0.813796
0.812721
0.810236
0.803822
0.88148
0.816149
0.804719
0.772195
0.585362
0.810213
0.806544
0.769293
0.81429
0.813745
0.791433
0.800675
0.80401
0.623646
0.830371
0.803488
0.781397
0.77925
0.852651
0.809964
0.802807
0.802524
0.81012
0.811026
0.518275
0.801737
0.839412
0.813795
0.798538
0.588488
0.814462
0.813941
0.812808
0.833643
0.813788
0.803898
0.821786
0.8055
0.575592
0.808596
0.736386
0.798476
0.813502
0.722098
0.814801
0.845872
0.831551
0.66436
0.890869
0.78554
0.77732
0.796841
0.779489
0.808555
0.84984
0.807899
0.802836
0.813414
0.808738
0.782562
0.78588
0.813753
0.808234
0.83478
0.821168
0.835613
0.801192
0.799595
0.812906
0.856551
0.81636
0.818266
0.813209
0.607185
0.795488
0.823792
0.829271
0.865844
0.812461
0.81885
0.508302
0.809617
0.800529
0.812475
0.814635
0.847517
0.812911
0.81106
0.881459
0.764453
0.812503
0.813099
0.8089
0.805185
0.814097
0.655781
0.800471
0.849459
0.833447
0.810505
0.813444
0.813229
0.809539
0.69869
0.812378
0.800092
0.838486
0.81836
0.811503
0.83124
0.792623
0.811432
0.817699
0.80871
0.819175
0.744117
0.854613
0.81885
0.813678
0.812914
0.812561
0.815597
0.817039
0.812607
0.810666
0.840997
0.818479
0.800085
0.825219
0.826855
0.815936
0.814409
0.800298
0.801466
0.812903
0.818909
0.829338
0.812653
0.816338
0.799755
0.809838
0.812689
0.812657
0.802481
0.814534
0.81319
0.803211
0.812713
0.83557
0.799997
0.809308
0.82142
0.559713
0.814081
0.818048
0.815404
0.814886
0.821858
0.828733
0.815497
0.818719
0.701329
0.812914
0.801285
0.81549
0.818893
0.834996
0.821454
0.81546
0.829273
0.824835
0.810533
0.819148
0.819421
0.80411
0.813013
0.815477
0.819385
0.832019
0.812487
0.815571
0.802702
0.812786
0.812908
0.52215
0.627394
0.814312
0.821328
0.801672
0.822363
0.81578
0.841788
0.708016
0.813608
0.730319
0.8173
0.810189
0.813018
0.829261
0.813518
0.804784
0.812771
0.829998
0.839175
0.812655
0.719096
0.819204
0.815906
0.799859
0.803018
0.815181
0.855863
0.812503
0.813231
0.849628
0.828917
0.8432
0.573031
0.829012
0.813808
0.810771
0.817278
0.85038
0.817643
0.718303
0.799475
0.831684
0.799699
0.799665
0.805349
0.747751
0.813256
0.814214
0.725291
0.814226
0.827263
0.813176
0.8139
0.799153
0.818257
0.812837
0.823436
0.808674
0.808093
0.814849
0.705279
0.818957
0.813948
0.812821
0.639685
0.718855
0.599205
0.823198
0.529072
0.853687
0.727236
0.842719
0.812384
0.722508
0.82133
0.815759
0.742469
0.807616
0.818233
0.794385
0.8164
0.815735
0.815665
0.812838
0.807759
0.803647
0.737209
0.836021
0.820054
0.816486
0.799164
0.815361
0.801924
0.815879
0.813321
0.854484
0.817652
0.496554
0.813179
0.818669
0.818542
0.778007
0.815673
0.806699
0.818506
0.845231
0.59624
0.809024
0.799234
0.81519
0.817498
0.817568
0.812306
0.818479
0.813731
0.814455
0.803058
0.814151
0.846032
0.813802
0.791978
0.811355
0.622373
0.718761
0.812916
0.816869
0.802901
0.822188
0.735425
0.803143
0.803178
0.820088
0.616604
0.817471
0.799281
0.815284
0.864519
0.785448
0.821834
0.817853
0.822668
0.813881
0.769537
0.802405
0.813426
0.902271
0.82709
0.816299
0.832137
0.809465
0.868051
0.719434
0.684931
0.85222
0.802691
0.657418
0.850186
0.786007
0.83192