# vtk DataFile Version 1.0
unstructured grid
ascii
DATASET UNSTRUCTURED_GRID
points 3920 float
-1 0 0
-1 1 0
2 0 0
2 1 0
0 0 0
1 0 0
-1 1 0.1
-1 0 0.1
0 0 0.1
1 0 0.1
2 0 0.1
2 1 0.1
-0.98 0 0
-0.96 0 0
-0.94 0 0
-0.92 0 0
-0.9 0 0
-0.88 0 0
-0.86 0 0
-0.84 0 0
-0.82 0 0
-0.8 0 0
-0.78 0 0
-0.76 0 0
-0.74 0 0
-0.72 0 0
-0.7 0 0
-0.68 0 0
-0.66 0 0
-0.64 0 0
-0.62 0 0
-0.6 0 0
-0.58 0 0
-0.56 0 0
-0.54 0 0
-0.52 0 0
-0.5 0 0
-0.48 0 0
-0.46 0 0
-0.44 0 0
-0.42 0 0
-0.4 0 0
-0.38 0 0
-0.36 0 0
-0.34 0 0
-0.32 0 0
-0.3 0 0
-0.28 0 0
-0.26 0 0
-0.24 0 0
-0.22 0 0
-0.2 0 0
-0.18 0 0
-0.16 0 0
-0.14 0 0
-0.12 0 0
-0.1 0 0
-0.08 0 0
-0.06 0 0
-0.04 0 0
-0.02 0 0
1.02 0 0
1.04 0 0
1.06 0 0
1.08 0 0
1.1 0 0
1.12 0 0
1.14 0 0
1.16 0 0
1.18 0 0
1.2 0 0
1.22 0 0
1.24 0 0
1.26 0 0
1.28 0 0
1.3 0 0
1.32 0 0
1.34 0 0
1.36 0 0
1.38 0 0
1.4 0 0
1.42 0 0
1.44 0 0
1.46 0 0
1.48 0 0
1.5 0 0
1.52 0 0
1.54 0 0
1.56 0 0
1.58 0 0
1.6 0 0
1.62 0 0
1.64 0 0
1.66 0 0
1.68 0 0
1.7 0 0
1.72 0 0
1.74 0 0
1.76 0 0
1.78 0 0
1.8 0 0
1.82 0 0
1.84 0 0
1.86 0 0
1.88 0 0
1.9 0 0
1.92 0 0
1.94 0 0
1.96 0 0
1.98 0 0
2 0.0199133 0
2 0.0414128 0
2 0.0646247 0
2 0.0896856 0
2 0.116743 0
2 0.145955 0
2 0.177494 0
2 0.211545 0
2 0.248309 0
2 0.288001 0
2 0.330854 0
2 0.377121 0
2 0.427073 0
2 0.481004 0
2 0.539231 0
2 0.602096 0
2 0.669968 0
2 0.743247 0
2 0.822362 0
2 0.907779 0
1.9 1 0
1.8 1 0
1.7 1 0
1.6 1 0
1.5 1 0
1.4 1 0
1.3 1 0
1.2 1 0
1.1 1 0
1 1 0
0.9 1 0
0.8 1 0
0.7 1 0
0.6 1 0
0.5 1 0
0.4 1 0
0.3 1 0
0.2 1 0
0.1 1 0
3.69793e-12 1 0
-0.1 1 0
-0.2 1 0
-0.3 1 0
-0.4 1 0
-0.5 1 0
-0.6 1 0
-0.7 1 0
-0.8 1 0
-0.9 1 0
-1 0.907779 0
-1 0.822362 0
-1 0.743247 0
-1 0.669968 0
-1 0.602096 0
-1 0.539231 0
-1 0.481004 0
-1 0.427073 0
-1 0.377121 0
-1 0.330854 0
-1 0.288001 0
-1 0.248309 0
-1 0.211545 0
-1 0.177494 0
-1 0.145955 0
-1 0.116743 0
-1 0.0896856 0
-1 0.0646247 0
-1 0.0414128 0
-1 0.0199133 0
0.0182781 0.00745351 0
0.0366672 0.0146286 0
0.0551632 0.0215237 0
0.0737617 0.0281372 0
0.0924585 0.0344675 0
0.111249 0.0405131 0
0.13013 0.0462728 0
0.149095 0.0517451 0
0.168142 0.0569289 0
0.187265 0.0618228 0
0.20646 0.0664258 0
0.225723 0.0707368 0
0.245049 0.0747549 0
0.264434 0.078479 0
0.283873 0.0819084 0
0.303362 0.0850422 0
0.322896 0.0878798 0
0.342472 0.0904204 0
0.362083 0.0926635 0
0.381726 0.0946086 0
0.401397 0.0962552 0
0.42109 0.0976029 0
0.440802 0.0986514 0
0.460527 0.0994006 0
0.480261 0.0998501 0
0.5 0.1 0
0.519739 0.0998501 0
0.539473 0.0994006 0
0.559198 0.0986514 0
0.57891 0.0976029 0
0.598603 0.0962552 0
0.618274 0.0946086 0
0.637917 0.0926635 0
0.657528 0.0904204 0
0.677104 0.0878798 0
0.696638 0.0850422 0
0.716127 0.0819084 0
0.735566 0.078479 0
0.754951 0.0747549 0
0.774277 0.0707368 0
0.79354 0.0664258 0
0.812735 0.0618228 0
0.831858 0.0569289 0
0.850905 0.0517451 0
0.86987 0.0462728 0
0.888751 0.0405131 0
0.907542 0.0344675 0
0.926238 0.0281372 0
0.944837 0.0215237 0
0.963333 0.0146286 0
0.981722 0.00745351 0
-1 0.907779 0.1
-1 0.822362 0.1
-1 0.743247 0.1
-1 0.669968 0.1
-1 0.602096 0.1
-1 0.539231 0.1
-1 0.481004 0.1
-1 0.427073 0.1
-1 0.377121 0.1
-1 0.330854 0.1
-1 0.288001 0.1
-1 0.248309 0.1
-1 0.211545 0.1
-1 0.177494 0.1
-1 0.145955 0.1
-1 0.116743 0.1
-1 0.0896856 0.1
-1 0.0646247 0.1
-1 0.0414128 0.1
-1 0.0199133 0.1
-0.98 0 0.1
-0.96 0 0.1
-0.94 0 0.1
-0.92 0 0.1
-0.9 0 0.1
-0.88 0 0.1
-0.86 0 0.1
-0.84 0 0.1
-0.82 0 0.1
-0.8 0 0.1
-0.78 0 0.1
-0.76 0 0.1
-0.74 0 0.1
-0.72 0 0.1
-0.7 0 0.1
-0.68 0 0.1
-0.66 0 0.1
-0.64 0 0.1
-0.62 0 0.1
-0.6 0 0.1
-0.58 0 0.1
-0.56 0 0.1
-0.54 0 0.1
-0.52 0 0.1
-0.5 0 0.1
-0.48 0 0.1
-0.46 0 0.1
-0.44 0 0.1
-0.42 0 0.1
-0.4 0 0.1
-0.38 0 0.1
-0.36 0 0.1
-0.34 0 0.1
-0.32 0 0.1
-0.3 0 0.1
-0.28 0 0.1
-0.26 0 0.1
-0.24 0 0.1
-0.22 0 0.1
-0.2 0 0.1
-0.18 0 0.1
-0.16 0 0.1
-0.14 0 0.1
-0.12 0 0.1
-0.1 0 0.1
-0.08 0 0.1
-0.06 0 0.1
-0.04 0 0.1
-0.02 0 0.1
0.0182781 0.00745351 0.1
0.0366672 0.0146286 0.1
0.0551632 0.0215237 0.1
0.0737617 0.0281372 0.1
0.0924585 0.0344675 0.1
0.111249 0.0405131 0.1
0.13013 0.0462728 0.1
0.149095 0.0517451 0.1
0.168142 0.0569289 0.1
0.187265 0.0618228 0.1
0.20646 0.0664258 0.1
0.225723 0.0707368 0.1
0.245049 0.0747549 0.1
0.264434 0.078479 0.1
0.283873 0.0819084 0.1
0.303362 0.0850422 0.1
0.322896 0.0878798 0.1
0.342472 0.0904204 0.1
0.362083 0.0926635 0.1
0.381726 0.0946086 0.1
0.401397 0.0962552 0.1
0.42109 0.0976029 0.1
0.440802 0.0986514 0.1
0.460527 0.0994006 0.1
0.480261 0.0998501 0.1
0.5 0.1 0.1
0.519739 0.0998501 0.1
0.539473 0.0994006 0.1
0.559198 0.0986514 0.1
0.57891 0.0976029 0.1
0.598603 0.0962552 0.1
0.618274 0.0946086 0.1
0.637917 0.0926635 0.1
0.657528 0.0904204 0.1
0.677104 0.0878798 0.1
0.696638 0.0850422 0.1
0.716127 0.0819084 0.1
0.735566 0.078479 0.1
0.754951 0.0747549 0.1
0.774277 0.0707368 0.1
0.79354 0.0664258 0.1
0.812735 0.0618228 0.1
0.831858 0.0569289 0.1
0.850905 0.0517451 0.1
0.86987 0.0462728 0.1
0.888751 0.0405131 0.1
0.907542 0.0344675 0.1
0.926238 0.0281372 0.1
0.944837 0.0215237 0.1
0.963333 0.0146286 0.1
0.981722 0.00745351 0.1
1.02 0 0.1
1.04 0 0.1
1.06 0 0.1
1.08 0 0.1
1.1 0 0.1
1.12 0 0.1
1.14 0 0.1
1.16 0 0.1
1.18 0 0.1
1.2 0 0.1
1.22 0 0.1
1.24 0 0.1
1.26 0 0.1
1.28 0 0.1
1.3 0 0.1
1.32 0 0.1
1.34 0 0.1
1.36 0 0.1
1.38 0 0.1
1.4 0 0.1
1.42 0 0.1
1.44 0 0.1
1.46 0 0.1
1.48 0 0.1
1.5 0 0.1
1.52 0 0.1
1.54 0 0.1
1.56 0 0.1
1.58 0 0.1
1.6 0 0.1
1.62 0 0.1
1.64 0 0.1
1.66 0 0.1
1.68 0 0.1
1.7 0 0.1
1.72 0 0.1
1.74 0 0.1
1.76 0 0.1
1.78 0 0.1
1.8 0 0.1
1.82 0 0.1
1.84 0 0.1
1.86 0 0.1
1.88 0 0.1
1.9 0 0.1
1.92 0 0.1
1.94 0 0.1
1.96 0 0.1
1.98 0 0.1
2 0.0199133 0.1
2 0.0414128 0.1
2 0.0646247 0.1
2 0.0896856 0.1
2 0.116743 0.1
2 0.145955 0.1
2 0.177494 0.1
2 0.211545 0.1
2 0.248309 0.1
2 0.288001 0.1
2 0.330854 0.1
2 0.377121 0.1
2 0.427073 0.1
2 0.481004 0.1
2 0.539231 0.1
2 0.602096 0.1
2 0.669968 0.1
2 0.743247 0.1
2 0.822362 0.1
2 0.907779 0.1
1.9 1 0.1
1.8 1 0.1
1.7 1 0.1
1.6 1 0.1
1.5 1 0.1
1.4 1 0.1
1.3 1 0.1
1.2 1 0.1
1.1 1 0.1
1 1 0.1
0.9 1 0.1
0.8 1 0.1
0.7 1 0.1
0.6 1 0.1
0.5 1 0.1
0.4 1 0.1
0.3 1 0.1
0.2 1 0.1
0.1 1 0.1
3.69793e-12 1 0.1
-0.1 1 0.1
-0.2 1 0.1
-0.3 1 0.1
-0.4 1 0.1
-0.5 1 0.1
-0.6 1 0.1
-0.7 1 0.1
-0.8 1 0.1
-0.9 1 0.1
1.08758 0.0158154 0
-0.0898513 0.0203294 0
0.0966181 0.0537636 0
0.90205 0.0548881 0
1.21055 0.0202058 0
-0.209811 0.0159577 0
1.3305 0.0176902 0
-0.33 0.0173205 0
1.45324 0.0148141 0
-0.448654 0.0159854 0
1.56842 0.0191785 0
-0.569936 0.0166364 0
0.193292 0.0805369 0
0.805051 0.0813623 0
0.709096 0.100353 0
0.288591 0.0996656 0
0.390184 0.111848 0
0.61033 0.111742 0
0.488809 0.116278 0
1.67175 0.0169692 0
-0.67 0.0169809 0
-0.955017 0.454039 0
1.95131 0.44569 0
1.74981 0.0168753 0
-0.75 0.0173205 0
-0.968032 0.266538 0
1.96871 0.266267 0
0.978232 0.0305687 0
0.0208675 0.026451 0
-0.150454 0.91842 0
1.13854 0.907437 0
1.45012 0.904365 0
-0.445923 0.908903 0
-0.853423 0.0157019 0
1.84881 0.016319 0
0.853689 0.915652 0
0.153944 0.912184 0
0.545151 0.914125 0
0.549913 0.115152 0
1.51 0.0173205 0
-0.506989 0.01651 0
1.27 0.0173205 0
1.14976 0.0173333 0
-0.268171 0.0206442 0
-0.150501 0.0153244 0
-0.391384 0.0153993 0
1.38886 0.0171544 0
-0.973694 0.161724 0
1.97441 0.162392 0
-0.945221 0.633523 0
1.94544 0.63312 0
1.91008 0.0186068 0
-0.91 0.0169616 0
-0.030664 0.0194327 0
1.03074 0.0165456 0
-0.966065 0.353575 0
1.96128 0.359765 0
1.93879 0.781254 0
-0.937057 0.781882 0
-0.980746 0.080709 0
1.9772 0.0760699 0
0.058735 0.0409372 0
0.355202 0.913001 0
0.86356 0.0661005 0
0.134223 0.0651111 0
0.941972 0.0397386 0
-0.653034 0.915003 0
1.65328 0.904589 0
0.770126 0.0881325 0
0.232946 0.0902008 0
0.330582 0.105648 0
0.670612 0.108365 0
0.428707 0.116145 0
1.80993 0.016629 0
-0.810168 0.0172178 0
-0.71 0.0173205 0
1.63047 0.0175504 0
1.70842 0.0169661 0
-0.628824 0.0181787 0
-0.949815 0.0133898 0
1.95 0.0173205 0
1.85542 0.907891 0
-0.85 0.913397 0
1.9833 0.0307692 0
-0.983315 0.0309709 0
-0.750025 0.916468 0
-0.701107 0.836904 0
-0.607741 0.836428 0
-0.656448 0.759827 0
-0.572936 0.758144 0
-0.61411 0.691195 0
-0.539534 0.689068 0
-0.578542 0.626111 0
-0.507461 0.624216 0
-0.544001 0.566638 0
-0.477696 0.564279 0
-0.511582 0.51001 0
-0.451689 0.507147 0
-0.481834 0.457732 0
-0.426137 0.454624 0
-0.453236 0.407539 0
-0.398845 0.406233 0
-0.507958 0.409496 0
-0.368427 0.460177 0
-0.344602 0.405209 0
-0.315696 0.447824 0
-0.294128 0.402169 0
-0.262844 0.444518 0
-0.241968 0.388746 0
-0.209878 0.439557 0
-0.185184 0.391135 0
-0.156687 0.437338 0
-0.133719 0.390776 0
-0.104405 0.434306 0
-0.0818745 0.388334 0
-0.0528785 0.431165 0
-0.0305984 0.385639 0
-0.00180552 0.427863 0
0.0194564 0.382608 0
0.0485809 0.42449 0
0.0701962 0.37973 0
0.0985483 0.421145 0
0.119893 0.377339 0
0.147837 0.417911 0
0.172552 0.36751 0
0.197018 0.412597 0
0.221203 0.37141 0
0.24512 0.409646 0
-0.48178 0.364657 0
-0.531053 0.364782 0
-0.0599102 0.344151 0
-0.324909 0.359566 0
0.266181 0.368462 0
0.292132 0.407649 0
0.311992 0.365779 0
0.338918 0.404821 0
0.357567 0.355909 0
0.384723 0.40053 0
0.404675 0.359681 0
0.430617 0.398558 0
0.450457 0.35827 0
0.474237 0.395182 0
0.496746 0.34898 0
0.520548 0.397931 0
0.542071 0.353121 0
0.566011 0.389914 0
0.585061 0.350856 0
0.609352 0.38696 0
0.629069 0.348168 0
0.655979 0.391217 0
0.67472 0.346182 0
0.699346 0.381414 0
0.719333 0.341965 0
0.743718 0.377547 0
0.764028 0.339036 0
0.788201 0.373582 0
0.807659 0.336101 0
0.832821 0.372249 0
0.852309 0.334017 0
0.877785 0.370339 0
0.897875 0.331141 0
0.922904 0.366281 0
0.943173 0.327335 0
0.968282 0.363358 0
0.989029 0.324222 0
1.01391 0.361511 0
1.03465 0.321428 0
1.05949 0.358447 0
1.08389 0.312052 0
1.10575 0.355104 0
1.12889 0.31562 0
1.15067 0.353235 0
1.17157 0.312819 0
1.19626 0.349369 0
1.21618 0.309863 0
1.2416 0.346914 0
1.26131 0.30715 0
1.28691 0.344312 0
1.30571 0.303752 0
1.33144 0.341222 0
1.35018 0.300911 0
1.3758 0.338308 0
1.39501 0.298931 0
1.42015 0.335235 0
1.43904 0.296349 0
1.46355 0.330194 0
1.48256 0.293347 0
1.50685 0.326967 0
1.52589 0.29055 0
1.54996 0.325305 0
1.56909 0.287929 0
[...]
CELL_DATA 3694
SCALARS rho float
LOOKUP_TABLE default
0.929107
0.919457
0.887259
0.944813
0.952907
0.891386
0.908506
0.869315
0.950304
0.857045
0.947898
0.947927
0.945928
0.911173
0.869077
0.935587
0.847936
0.863042
0.937182
0.957969
0.950952
0.951988
0.925709
0.890398
0.925275
0.945535
0.920402
0.915808
0.942805
0.815696
0.814604
0.919672
0.862576
0.93705
0.876807
0.948054
0.954343
0.9521
0.952611
0.929152
0.885098
0.930933
0.94172
0.937515
0.93219
0.944547
0.890594
0.915842
0.91772
0.927201
0.893335
0.831147
0.957135
0.919353
0.917341
0.954958
0.875027
0.951464
0.94085
0.933506
0.921131
0.942448
0.95697
0.863323
0.957726
0.954603
0.916008
0.943333
0.919189
0.96148
0.822187
0.916894
0.951982
0.850579
0.952776
0.833499
0.93444
0.831617
0.94821
0.890263
0.922862
0.933058
0.818258
0.9288
0.950474
0.834463
0.951292
0.922738
0.920167
0.951787
0.945971
0.855011
0.934803
0.950545
0.915383
0.905658
0.92475
0.948493
0.947625
0.95642
0.945281
0.938084
0.916585
0.95052
0.95052
0.94246
0.948368
0.907714
0.920404
0.948909
0.915051
0.927197
0.916959
0.951224
0.964142
0.851267
0.946477
0.947653
0.820303
0.848811
0.926515
0.940049
0.951461
0.937978
0.912372
0.924107
0.949145
0.941493
0.956082
0.92663
0.926756
0.931349
0.917339
0.9178
0.89194
0.944057
0.894011
0.820282
0.813257
0.945571
0.948554
0.928125
0.948364
0.944051
0.924484
0.916688
0.915917
0.823113
0.945837
0.926254
0.923274
0.832802
0.907266
0.939808
0.919007
0.938297
0.922871
0.941308
0.906899
0.921527
0.942663
0.911693
0.916533
0.929762
0.958092
0.906116
0.930338
0.863569
0.902125
0.915971
0.858363
0.918849
0.961357
0.905241
0.916352
0.918209
0.955447
0.955478
0.951719
0.920789
0.949184
0.919694
0.953534
0.922137
0.91201
0.847893
0.90871
0.952347
0.892079
0.959637
0.930305
0.913828
0.942059
0.824593
0.924011
0.948771
0.927211
0.957305
0.929465
0.923859
0.924249
0.943441
0.954977
0.94185
0.933316
0.945091
0.920796
0.882577
0.930907
0.837901
0.923959
0.944097
0.900186
0.918684
0.953138
0.938081
0.954681
0.931982
0.95307
0.95163
0.945698
0.948662
0.939269
0.925512
0.953619
0.909372
0.923086
0.950023
0.95965
0.954367
0.950866
0.932998
0.923423
0.948247
0.955846
0.948094
0.92894
0.947045
0.918935
0.944423
0.900754
0.950409
0.917569
0.91109
0.936441
0.93134
0.819682
0.936202
0.943464
0.953443
0.930548
0.909876
0.930843
0.890732
0.912603
0.946675
0.917616
0.842075
0.955034
0.942628
0.90793
0.943904
0.936726
0.947929
0.944566
0.83031
0.93285
0.94942
0.941982
0.9352
0.814088
0.955812
0.924126
0.822468
0.917786
0.942331
0.917027
0.902304
0.948548
0.94103
0.950983
0.93556
0.922875
0.944568
0.944072
0.950957
0.923608
0.943942
0.942555
0.906892
0.820941
0.963783
0.90998
0.936669
0.956319
0.952404
0.942184
0.91499
0.924828
0.942496
0.869794
0.858739
0.933552
0.953996
0.932215
0.924461
0.918468
0.835244
0.911015
0.950965
0.953865
0.921599
0.944245
0.949475
0.939205
0.92106
0.905256
0.951207
0.952661
0.917175
0.919284
0.926347
0.927832
0.924613
0.95082
0.941356
0.877597
0.925273
0.920067
0.952059
0.950404
0.933966
0.938267
0.943472
0.94464
0.948169
0.948365
0.862201
0.910247
0.902289
0.909778
0.817528
0.925173
0.922491
0.918353
0.894845
0.949918
0.913977
0.930606
0.922976
0.94246
0.950951
0.950462
0.831054
0.922542
0.924228
0.912654
0.92665
0.916211
0.873141
0.919161
0.930439
0.92396
0.914552
0.949035
0.947706
0.948703
0.891244
0.915729
0.937616
0.909432
0.957869
0.934157
0.914226
0.887267
0.927061
0.912399
0.859001
0.905291
0.92378
0.925895
0.935701
0.941801
0.952834
0.949115
0.948888
0.950452
0.953956
0.841401
0.93767
0.931425
0.919317
0.950324
0.935265
0.931232
0.919783
0.944642
0.959479
0.950355
0.92173
0.93995
0.944204
0.922217
0.936605
0.950442
0.918414
0.908561
0.956521
0.939732
0.895951
0.963157
0.927292
0.950734
0.948236
0.940017
0.916956
0.946984
0.92532
0.815112
0.921616
0.950938
0.924064
0.942054
0.907816
0.942897
0.939161
0.946817
0.852038
0.894235
0.952695
0.869582
0.923342
0.929568
0.820161
0.943136
0.949783
0.949353
0.964758
0.95387
0.918076
0.955124
0.922228
0.952229
0.956514
0.947149
0.90896
0.94407
0.917233
0.958404
0.951207
0.85167
0.903437
0.919
0.926445
0.906924
0.833227
0.926434
0.942135
0.936778
0.894655
0.932299
0.94814
0.92532
0.962698
0.817132
0.959405
0.948746
0.908133
0.872675
0.921973
0.948392
0.948467
0.917767
0.84314
0.918529
0.924937
0.910555
0.904227
0.945136
0.948929
0.947319
0.908132
0.951543
0.954302
0.926205
0.90753
0.923043
0.948915
0.918514
0.897263
0.950667
0.830078
0.887219
0.904441
0.955359
0.938341
0.94219
0.948697
0.954637
0.957365
0.949063
0.946648
0.923171
0.830575
0.958625
0.950817
0.922175
0.830071
0.835244
0.964913
0.958286
0.949718
0.813281
0.929283
0.933808
0.945773
0.926721
0.903575
0.860761
0.929448
0.924478
0.876195
0.947755
0.928795
0.940433
0.944806
0.943289
0.950239
0.907702
0.949908
0.920738
0.931583
0.877189
0.950493
0.951963
0.870613
0.924759
0.925325
0.94287
0.928039
0.933129
0.905132
0.944093
0.950334
0.952772
0.855218
0.949252
0.95135
0.93073
0.956979
0.85797
0.927338
0.952577
0.945166
0.950044
0.950994
0.925403
0.926411
0.943574
0.851825
0.958924
0.849881
0.945817
0.909464
0.948175
0.947947
0.921071
0.949664
0.899899
0.943517
0.926445
0.957899
0.913544
0.84379
0.94803
0.910963
0.918565
0.906873
0.931238
0.901898
0.892993
0.943
0.858759
0.954275
0.949839
0.888406
0.858914
0.94947
0.906969
0.947131
0.879775
0.922953
0.950257
0.916498
0.944059
0.947579
0.95494
0.95077
0.944539
0.946724
0.944259
0.891466
0.863095
0.946804
0.92227
0.950604
0.845391
0.923808
0.900521
0.943686
0.944433
0.950487
0.946638
0.946542
0.943379
0.953276
0.9243
0.907248
0.94638
0.872372
0.902073
0.923917
0.925277
0.943062
0.944842
0.928321
0.920786
0.927294
0.881996
0.906964
0.870515
0.950936
0.951468
0.943625
0.942948
0.949444
0.950814
0.905632
0.918824
0.92193
0.946306
0.928154
0.922735
0.811226
0.924891
0.953787
0.942411
0.943183
0.928437
0.900699
0.931061
0.902522
0.923614
0.952759
0.963948
0.933087
0.948759
0.96005
0.925055
0.947683
0.930577
0.928045
0.936048
0.914655
0.960728
0.921982
0.929465
0.91555
0.887539
0.815027
0.940783
0.943854
0.92344
0.949314
0.874618
0.923089
0.957012
0.826677
0.909899
0.920322
0.946345
0.9507
0.943772
0.929901
0.925344
0.939853
0.944418
0.91894
0.94601
0.951176
0.953606
0.935903
0.95159
0.925345
0.887989
0.914595
0.921416
0.944929
0.935985
0.945468
0.94204
0.945415
0.944313
0.942107
0.905553
0.81114
0.942357
0.930288
0.923922
0.945716
0.945707
0.916892
0.911386
0.929823
0.915109
0.936282
0.92215
0.945288
0.810105
0.943574
0.944382
0.912106
0.946371
0.951612
0.953363
0.931947
0.941485
0.925445
0.937762
0.950434
0.908431
0.907643
0.944353
0.897034
0.950433
0.884605
0.928651
0.939759
0.923873
0.925138
0.853062
0.955084
0.92388
0.918107
0.952244
0.950287
0.948649
0.924275
0.910378
0.92309
0.965342
0.946314
0.950445
0.908352
0.924286
0.912189
0.884613
0.814415
0.917338
0.924069
0.951293
0.935002
0.867424
0.923597
0.94596
0.919267
0.942452
0.933998
0.947494
0.824582
0.951373
0.931657
0.945475
0.942771
0.923923
0.907301
0.932055
0.949582
0.921886
0.941863
0.922316
0.884753
0.952613
0.917698
0.948989
0.809641
0.936219
0.908105
0.909955
0.931156
0.903229
0.949158
0.949242
0.951311
0.930297
0.946934
0.921588
0.808973
0.949578
0.953399
0.92221
0.928307
0.945989
0.949084
0.925159
0.938158
0.937955
0.914401
0.926512
0.920956
0.94858
0.915379
0.826928
0.91954
0.921334
0.949787
0.924681
0.933184
0.910119
0.95592
0.939195
0.950018
0.937511
0.942118
0.819195
0.941362
0.836023
0.905148
0.950437
0.930509
0.92736
0.832415
0.949479
0.906729
0.868137
0.950072
0.950202
0.949896
0.949979
0.924095
0.946272
0.925235
0.923898
0.950044
0.919395
0.950282
0.949967
0.828528
0.949736
0.949665
0.924289
0.927193
0.951832
0.94186
0.903189
0.949395
0.9657
0.951108
0.948712
0.94743
0.944536
0.90511
0.949253
0.951022
0.919359
0.924567
0.957356
0.932036
0.828296
0.935056
0.939801
0.948946
0.939097
0.949463
0.947662
0.964717
0.830751
0.89754
0.949206
0.83133
0.946092
0.912754
0.924042
0.946482
0.950195
0.923406
0.924757
0.946895
0.945289
0.935227
0.919063
0.951418
0.923269
0.950742
0.86788
0.930467
0.823813
0.823055
0.928962
0.950652
0.918033
0.926767
0.856404
0.929866
0.882704
0.951062
0.917827
0.942913
0.867201
0.866061
0.950565
0.944747
0.928441
0.94672
0.923669
0.899549
0.942517
0.862383
0.93915
0.93357
0.932677
0.944573
0.908176
0.942346
0.912525
0.919931
0.865442
0.950073
0.942804
0.84559
0.944309
0.947882
0.930432
0.931309
0.961137
0.829024
0.953357
0.924849
0.905842
0.925555
0.942651
0.919409
0.932815
0.906974
0.949765
0.942173
0.949935
0.820162
0.926391
0.923372
0.938003
0.92242
0.922409
0.942316
0.946313
0.949958
0.909122
0.938155
0.950512
0.873058
0.917281
0.920978
0.869555
0.933559
0.919111
0.820908
0.935372
0.951602
0.920889
0.866103
0.945525
0.955791
0.92233
0.834537
0.848661
0.897496
0.905894
0.944946
0.944732
0.935687
0.917326
0.94452
0.945131
0.825202
0.876173
0.918491
0.940531
0.916704
0.946032
0.945996
0.92382
0.948953
0.965501
0.921198
0.93442
0.949544
0.929593
0.957692
0.947704
0.942747
0.950825
0.909483
0.923949
0.920851
0.953081
0.95606
0.903557
0.904375
0.951194
0.953919
0.927185
0.954764
0.955726
0.952287
0.953399
0.921966
0.954896
0.953565
0.928621
0.920191
0.948494
0.950148
0.951941
0.863684
0.939298
0.929614
0.906128
0.928506
0.931211
0.927089
0.904502
0.94922
0.95302
0.954141
0.910965
0.93214
0.952465
0.932463
0.950941
0.956767
0.955392
0.944035
0.812195
0.951431
0.948065
0.947885
0.84092
0.914056
0.963176
0.950449
0.958796
0.947358
0.837727
0.937044
0.930085
0.942819
0.948887
0.950724
0.903514
0.923995
0.848294
0.89068
0.944879
0.896725
0.945268
0.935263
0.93545
0.883557
0.924537
0.93339
0.921228
0.928438
0.942751
0.923904
0.868513
0.926075
0.9382
0.929047
0.949956
0.928813
0.938367
0.94937
0.941939
0.94667
0.94709
0.941228
0.949834
0.923136
0.836793
0.933847
0.923953
0.943289
0.940037
0.93932
0.949527
0.912462
0.94932
0.899475
0.827914
0.925783
0.819128
0.827174
0.956414
0.948412
0.922809
0.931889
0.906143
0.923747
0.905994
0.942208
0.889544
0.948759
0.904143
0.946227
0.923289
0.943637
0.894623
0.949362
0.884134
0.949476
0.814063
0.945803
0.949928
0.947816
0.949666
0.929402
0.950014
0.945368
0.905034
0.943398
0.919077
0.882592
0.961502
0.951009
0.94973
0.964953
0.946533
0.946137
0.947439
0.949711
0.94976
0.925005
0.940247
0.866076
0.855236
0.950376
0.94548
0.947201
0.944323
0.950227
0.935378
0.886919
0.950132
0.91618
0.929417
0.933206
0.944073
0.950078
0.950585
0.926651
0.911775
0.919969
0.842599
0.919032
0.858908
0.950031
0.950268
0.950199
0.845213
0.904007
0.845972
0.832111
0.949373
0.956435
0.949252
0.924243
0.950028
0.948978
0.946287
0.949963
0.934256
0.924016
0.949433
0.912153
0.888661
0.920397
0.950403
0.949772
0.94407
0.946967
0.942627
0.949435
0.944875
0.94968
0.934113
0.862016
0.866806
0.901026
0.948709
0.944595
0.834206
0.94839
0.947652
0.934729
0.850982
0.906714
0.880236
0.943744
0.931266
0.930432
0.884863
0.931928
0.957274
0.909443
0.824972
0.955811
0.954476
0.920051
0.953321
0.835299
0.948951
0.95098
0.949466
0.864983
0.949211
0.927257
0.951695
0.928981
0.839012
0.925446
0.9507
0.918565
0.872431
0.941911
0.927893
0.94453
0.944751
0.949473
0.905161
0.947631
0.946143
0.952653
0.934702
0.956512
0.902083
0.919446
0.949723
0.955081
0.950205
0.892414
0.817264
0.878681
0.950874
0.926623
0.946996
0.923931
0.932029
0.848606
0.903476
0.946772
0.94996
0.948789
0.919932
0.922691
0.915294
0.926887
0.945582
0.918054
0.832057
0.927922
0.815392
0.933357
0.822929
0.948156
0.947732
0.888753
0.914147
0.945204
0.941232
0.944949
0.856072
0.872752
0.948393
0.95174
0.93479
0.951959
0.865895
0.930227
0.944743
0.869343
0.922868
0.942169
0.944312
0.955395
0.945143
0.808644
0.944537
0.934151
0.90646
0.942517
0.900466
0.94738
0.944701
0.864638
0.957
0.947493
0.941943
0.945344
0.833436
0.948158
0.930253
0.849364
0.945822
0.955004
0.914271
0.945159
0.945942
0.84876
0.861255
0.93724
0.939835
0.945093
0.945162
0.918963
0.945398
0.923051
0.931281
0.955894
0.952848
0.935403
0.943344
0.943704
0.928971
0.942668
0.87429
0.812166
0.840564
0.947115
0.962792
0.837444
0.853192
0.914497
0.957366
0.938406
0.950623
0.948501
0.932137
0.947358
0.815324
0.928607
0.864747
0.925073
0.949532
0.867228
0.918691
0.966943
0.919815
0.927262
0.89499
0.933776
0.915837
0.827346
0.8295
0.915938
0.897408
0.925276
0.839472
0.928308
0.94976
0.95171
0.968229
0.919311
0.940476
0.913499
0.854912
0.941355
0.933561
0.922678
0.939763
0.927401
0.882641
0.844036
0.884206
0.920987
0.911488
0.921906
0.909812
0.951921
0.95022
0.924145
0.922774
0.948088
0.947758
0.951337
0.915746
0.950959
0.894606
0.950122
0.924912
0.842745
0.928926
0.840029
0.820297
0.924741
0.881672
0.942884
0.943112
0.841203
0.935536
0.943757
0.920105
0.920608
0.827252
0.942984
0.96564
0.942686
0.945564
0.966802
0.962368
0.952385
0.917579
0.842793
0.924753
0.935048
0.946201
0.924429
0.92597
0.922981
0.841594
0.915209
0.920055
0.81741
0.916513
0.913066
0.953991
0.939077
0.93343
0.954405
0.936166
0.927122
0.911145
0.930844
0.941714
0.951356
0.963543
0.954744
0.945018
0.943973
0.820014
0.928299
0.943983
0.9216
0.932977
0.942718
0.930038
0.935685
0.945871
0.940989
0.898292
0.82686
0.948997
0.9328
0.963105
0.909673
0.904295
0.836455
0.947462
0.925854
0.921749
0.836887
0.955065
0.870502
0.810645
0.90702
0.908527
0.935368
0.948321
0.943625
0.926331
0.822976
0.948689
0.923868
0.947779
0.824639
0.941825
0.811029
0.944695
0.809044
0.941894
0.810174
0.937083
0.854878
0.961983
0.941995
0.809267
0.915533
0.922171
0.945512
0.909479
0.949574
0.920084
0.954941
0.949245
0.847843
0.924841
0.941766
0.947619
0.942069
0.808494
0.949598
0.960714
0.878131
0.920909
0.950096
0.937966
0.882076
0.837724
0.951603
0.930764
0.811799
0.952173
0.951816
0.948816
0.944908
0.935669
0.922568
0.870573
0.954791
0.89254
0.950266
0.900286
0.896407
0.903997
0.942119
0.917249
0.837948
0.92114
0.907571
0.936173
0.917632
0.913368
0.948414
0.910935
0.812015
0.941704
0.831912
0.811725
0.908444
0.914157
0.942167
0.919228
0.902896
0.846277
0.942097
0.80792
0.868024
0.92403
0.954474
0.896859
0.920321
0.818753
0.948131
0.890152
0.93145
0.923251
0.947423
0.923575
0.863038
0.810434
0.875727
0.93205
0.959442
0.883093
0.814324
0.922906
0.954076
0.942655
0.951135
0.938085
0.950628
0.923924
0.949224
0.924335
0.910929
0.953635
0.823585
0.922408
0.953184
0.950578
0.946189
0.952686
0.944362
0.922718
0.947891
0.91997
0.924926
0.942788
0.952153
0.921821
0.949712
0.91433
0.951651
0.914185
0.946885
0.820602
0.909517
0.950708
0.940509
0.93753
0.905482
0.94314
0.957462
0.92172
0.958407
0.8752
0.925906
0.956649
0.949963
0.955954
0.923928
0.92175
0.955284
0.920029
0.954668
0.943091
0.954073
0.926234
0.953524
0.920045
0.952991
0.95245
0.927185
0.963411
0.951924
0.95142
0.936327
0.936103
0.832091
0.903878
0.948934
0.950932
0.945202
0.927685
0.953223
0.942102
0.807057
0.95045
0.83909
0.920481
0.917434
0.941288
0.943343
0.928924
0.947656
0.934752
0.909679
0.944035
0.94493
0.92876
0.922107
0.930846
0.950915
0.829758
0.857627
0.913658
0.945981
0.929078
0.933005
0.812616
0.941662
0.932876
0.946018
0.903123
0.971195
0.921365
0.908773
0.933204
0.928769
0.942182
0.945378
0.944906
0.909206
0.951122
0.930749
0.878445
0.951213
0.942527
0.943451
0.928014
0.888417
0.902719
0.928261
0.935647
0.943825
0.935774
0.928361
0.949993
0.94403
0.925722
0.850524
0.940567
0.922837
0.946255
0.92256
0.919583
0.945819
0.948802
0.910611
0.916138
0.938113
0.942513
0.912315
0.846631
0.908256
0.912735
0.903904
0.883952
0.899296
0.951506
0.945765
0.8893
0.941211
0.8944
0.926751
0.950947
0.95021
0.942161
0.942112
0.947421
0.85844
0.923974
0.932789
0.94377
0.929463
0.873297
0.94642
0.925361
0.941659
0.902403
0.906413
0.918224
0.878428
0.947196
0.948249
0.947772
0.880635
0.950841
0.94971
0.845715
0.905938
0.945675
0.946747
0.913939
0.949978
0.894683
0.892596
0.821917
0.850809
0.949235
0.943125
0.856053
0.939855
0.949483
0.947999
0.921861
0.94218
0.905036
0.929301
0.92945
0.94415
0.944036
0.934764
0.915669
0.942216
0.942177
0.953255
0.945545
0.908267
0.937691
0.918846
0.947157
0.921654
0.941678
0.940262
0.92417
0.822241
0.955296
0.934837
0.895099
0.83954
0.947188
0.945124
0.92181
0.829148
0.905377
0.865137
0.839238
0.882015
0.906634
0.824369
0.860279
0.874267
0.926598
0.930388
0.870037
0.939153
0.945065
0.927095
0.923814
0.94407
0.901359
0.933766
0.959388
0.942706
0.942294
0.917934
0.891987
0.816113
0.82402
0.815875
0.918471
0.858103
0.944317
0.915424
0.920628
0.932695
0.942538
0.943443
0.950594
0.946288
0.945842
0.947469
0.878863
0.943791
0.946644
0.94812
0.939032
0.880182
0.839782
0.921299
0.927286
0.921092
0.946701
0.961818
0.947628
0.913269
0.941283
0.833267
0.925413
0.947411
0.948881
0.952474
0.927832
0.962379
0.884806
0.946335
0.908103
0.930059
0.953698
0.816188
0.942471
0.911538
0.949159
0.840023
0.947391
0.814071
0.948684
0.946603
0.924108
0.897467
0.81168
0.954365
0.961837
0.932888
0.946033
0.919218
0.932874
0.82263
0.850992
0.925383
0.949492
0.812749
0.844105
0.950832
0.949796
0.912397
0.921753
0.827953
0.95021
0.950483
0.92022
0.92553
0.950295
0.931578
0.960737
0.925604
0.954515
0.950262
0.9168
0.921336
0.946387
0.931044
0.807824
0.933635
0.945223
0.940216
0.928346
0.944611
0.914794
0.807371
0.937651
0.944613
0.947854
0.845556
0.942588
0.932337
0.934876
0.937386
0.943672
0.949706
0.949799
0.912808
0.946392
0.944617
0.928374
0.935606
0.945509
0.919611
0.894355
0.918281
0.898235
0.902028
0.959902
0.871528
0.918521
0.954495
0.90562
0.95037
0.959673
0.914406
0.879108
0.946198
0.910486
0.905309
0.915053
0.893222
0.899479
0.886264
0.918916
0.909158
0.929844
0.922098
0.912387
0.947832
0.948514
0.915612
0.951298
0.815012
0.878924
0.947089
0.947815
0.950058
0.812418
0.936723
0.926596
0.948896
0.947328
0.927508
0.945588
0.954323
0.944324
0.96059
0.931742
0.950378
0.94258
0.88479
0.911245
0.852888
0.937028
0.95145
0.906603
0.945167
0.954018
0.943446
0.949709
0.830767
0.942257
0.950054
0.875453
0.935397
0.948153
0.925523
0.903278
0.941948
0.910807
0.925405
0.937236
0.953668
0.953738
0.947615
0.958621
0.910038
0.957955
0.924647
0.953259
0.952812
0.948458
0.923541
0.942966
0.952326
0.946931
0.886696
0.927758
0.9371
0.905598
0.950252
0.957672
0.874852
0.956883
0.951843
0.813122
0.922164
0.945444
0.951351
0.956151
0.842928
0.950592
0.812113
0.95553
0.841144
0.950586
0.954906
0.954298
0.936283
0.952571
0.939892
0.919904
0.921533
0.909044
0.953738
0.953224
0.922802
0.923311
0.950452
0.952694
0.946535
0.910558
0.95216
0.951652
0.951163
0.950206
0.926488
0.93501
0.920754
0.923749
0.950689
0.829476
0.955261
0.970614
0.921971
0.94944
0.915105
0.94196
0.924211
0.924797
0.933417
0.927677
0.920583
0.920576
0.815159
0.943853
0.918444
0.925664
0.948333
0.931454
0.928398
0.920903
0.950409
0.928473
0.945603
0.955214
0.929197
0.946795
0.946484
0.946045
0.928077
0.881066
0.926835
0.944023
0.915305
0.950322
0.916958
0.886514
0.921319
0.809045
0.926743
0.924024
0.921033
0.917659
0.913957
0.91015
0.901477
0.891731
0.90599
0.926314
0.896705
0.809515
0.910994
0.857625
0.945554
0.928303
0.842348
0.927199
0.96792
0.950577
0.90555
0.930114
0.886806
0.932348
0.922329
0.860882
0.86315
0.932186
0.918211
0.945011
0.827509
0.848073
0.923476
0.941798
0.948218
0.934566
0.925957
0.93934
0.85321
0.94601
0.915067
0.936936
0.924712
0.898596
0.943054
0.849288
0.94206
0.812935
0.982151
0.960909
0.95082
0.942079
0.916358
0.957354
0.930971
0.937397
0.948611
0.972604
0.942639
0.815181
0.905561
0.942885
0.81896
0.943151
0.822821
0.956379
0.902152
0.954931
0.886729
0.902169
0.93323
0.888942
0.95006
0.828807
0.948691
0.919396
0.901877
0.91181
0.94342
0.898593
0.818982
0.929954
0.955458
0.938632
0.897871
0.945155
0.943666
0.942993
0.924788
0.860513
0.897195
0.83449
0.943974
0.83839
0.838855
0.842398
0.944581
0.953753
0.812995
0.854308
0.945543
0.858329
0.945871
0.930221
0.862342
0.946208
0.945647
0.946554
0.869933
0.946905
0.915523
0.873673
0.947259
0.828238
0.877376
0.947609
0.926217
0.943239
0.81078
0.942323
0.933953
0.950477
0.943601
0.962461
0.820823
0.888268
0.948688
0.928885
0.884698
0.881072
0.953469
0.948056
0.948324
0.950326
0.958106
0.954106
0.948504
0.93794
0.95875
0.943027
0.898325
0.949793
0.947404
0.901398
0.943594
0.858788
0.945968
0.929724
0.919732