# vtk DataFile Version 1.0
unstructured grid
ascii
DATASET UNSTRUCTURED_GRID
points 3920 float
-1 0 0
-1 1 0
2 0 0
2 1 0
0 0 0
1 0 0
-1 1 0.1
-1 0 0.1
0 0 0.1
1 0 0.1
2 0 0.1
2 1 0.1
-0.98 0 0
-0.96 0 0
-0.94 0 0
-0.92 0 0
-0.9 0 0
-0.88 0 0
-0.86 0 0
-0.84 0 0
-0.82 0 0
-0.8 0 0
-0.78 0 0
-0.76 0 0
-0.74 0 0
-0.72 0 0
-0.7 0 0
-0.68 0 0
-0.66 0 0
-0.64 0 0
-0.62 0 0
-0.6 0 0
-0.58 0 0
-0.56 0 0
-0.54 0 0
-0.52 0 0
-0.5 0 0
-0.48 0 0
-0.46 0 0
-0.44 0 0
-0.42 0 0
-0.4 0 0
-0.38 0 0
-0.36 0 0
-0.34 0 0
-0.32 0 0
-0.3 0 0
-0.28 0 0
-0.26 0 0
-0.24 0 0
-0.22 0 0
-0.2 0 0
-0.18 0 0
-0.16 0 0
-0.14 0 0
-0.12 0 0
-0.1 0 0
-0.08 0 0
-0.06 0 0
-0.04 0 0
-0.02 0 0
1.02 0 0
1.04 0 0
1.06 0 0
1.08 0 0
1.1 0 0
1.12 0 0
1.14 0 0
1.16 0 0
1.18 0 0
1.2 0 0
1.22 0 0
1.24 0 0
1.26 0 0
1.28 0 0
1.3 0 0
1.32 0 0
1.34 0 0
1.36 0 0
1.38 0 0
1.4 0 0
1.42 0 0
1.44 0 0
1.46 0 0
1.48 0 0
1.5 0 0
1.52 0 0
1.54 0 0
1.56 0 0
1.58 0 0
1.6 0 0
1.62 0 0
1.64 0 0
1.66 0 0
1.68 0 0
1.7 0 0
1.72 0 0
1.74 0 0
1.76 0 0
1.78 0 0
1.8 0 0
1.82 0 0
1.84 0 0
1.86 0 0
1.88 0 0
1.9 0 0
1.92 0 0
1.94 0 0
1.96 0 0
1.98 0 0
2 0.0199133 0
2 0.0414128 0
2 0.0646247 0
2 0.0896856 0
2 0.116743 0
2 0.145955 0
2 0.177494 0
2 0.211545 0
2 0.248309 0
2 0.288001 0
2 0.330854 0
2 0.377121 0
2 0.427073 0
2 0.481004 0
2 0.539231 0
2 0.602096 0
2 0.669968 0
2 0.743247 0
2 0.822362 0
2 0.907779 0
1.9 1 0
1.8 1 0
1.7 1 0
1.6 1 0
1.5 1 0
1.4 1 0
1.3 1 0
1.2 1 0
1.1 1 0
1 1 0
0.9 1 0
0.8 1 0
0.7 1 0
0.6 1 0
0.5 1 0
0.4 1 0
0.3 1 0
0.2 1 0
0.1 1 0
3.69793e-12 1 0
-0.1 1 0
-0.2 1 0
-0.3 1 0
-0.4 1 0
-0.5 1 0
-0.6 1 0
-0.7 1 0
-0.8 1 0
-0.9 1 0
-1 0.907779 0
-1 0.822362 0
-1 0.743247 0
-1 0.669968 0
-1 0.602096 0
-1 0.539231 0
-1 0.481004 0
-1 0.427073 0
-1 0.377121 0
-1 0.330854 0
-1 0.288001 0
-1 0.248309 0
-1 0.211545 0
-1 0.177494 0
-1 0.145955 0
-1 0.116743 0
-1 0.0896856 0
-1 0.0646247 0
-1 0.0414128 0
-1 0.0199133 0
0.0182781 0.00745351 0
0.0366672 0.0146286 0
0.0551632 0.0215237 0
0.0737617 0.0281372 0
0.0924585 0.0344675 0
0.111249 0.0405131 0
0.13013 0.0462728 0
0.149095 0.0517451 0
0.168142 0.0569289 0
0.187265 0.0618228 0
0.20646 0.0664258 0
0.225723 0.0707368 0
0.245049 0.0747549 0
0.264434 0.078479 0
0.283873 0.0819084 0
0.303362 0.0850422 0
0.322896 0.0878798 0
0.342472 0.0904204 0
0.362083 0.0926635 0
0.381726 0.0946086 0
0.401397 0.0962552 0
0.42109 0.0976029 0
0.440802 0.0986514 0
0.460527 0.0994006 0
0.480261 0.0998501 0
0.5 0.1 0
0.519739 0.0998501 0
0.539473 0.0994006 0
0.559198 0.0986514 0
0.57891 0.0976029 0
0.598603 0.0962552 0
0.618274 0.0946086 0
0.637917 0.0926635 0
0.657528 0.0904204 0
0.677104 0.0878798 0
0.696638 0.0850422 0
0.716127 0.0819084 0
0.735566 0.078479 0
0.754951 0.0747549 0
0.774277 0.0707368 0
0.79354 0.0664258 0
0.812735 0.0618228 0
0.831858 0.0569289 0
0.850905 0.0517451 0
0.86987 0.0462728 0
0.888751 0.0405131 0
0.907542 0.0344675 0
0.926238 0.0281372 0
0.944837 0.0215237 0
0.963333 0.0146286 0
0.981722 0.00745351 0
-1 0.907779 0.1
-1 0.822362 0.1
-1 0.743247 0.1
-1 0.669968 0.1
-1 0.602096 0.1
-1 0.539231 0.1
-1 0.481004 0.1
-1 0.427073 0.1
-1 0.377121 0.1
-1 0.330854 0.1
-1 0.288001 0.1
-1 0.248309 0.1
-1 0.211545 0.1
-1 0.177494 0.1
-1 0.145955 0.1
-1 0.116743 0.1
-1 0.0896856 0.1
-1 0.0646247 0.1
-1 0.0414128 0.1
-1 0.0199133 0.1
-0.98 0 0.1
-0.96 0 0.1
-0.94 0 0.1
-0.92 0 0.1
-0.9 0 0.1
-0.88 0 0.1
-0.86 0 0.1
-0.84 0 0.1
-0.82 0 0.1
-0.8 0 0.1
-0.78 0 0.1
-0.76 0 0.1
-0.74 0 0.1
-0.72 0 0.1
-0.7 0 0.1
-0.68 0 0.1
-0.66 0 0.1
-0.64 0 0.1
-0.62 0 0.1
-0.6 0 0.1
-0.58 0 0.1
-0.56 0 0.1
-0.54 0 0.1
-0.52 0 0.1
-0.5 0 0.1
-0.48 0 0.1
-0.46 0 0.1
-0.44 0 0.1
-0.42 0 0.1
-0.4 0 0.1
-0.38 0 0.1
-0.36 0 0.1
-0.34 0 0.1
-0.32 0 0.1
-0.3 0 0.1
-0.28 0 0.1
-0.26 0 0.1
-0.24 0 0.1
-0.22 0 0.1
-0.2 0 0.1
-0.18 0 0.1
-0.16 0 0.1
-0.14 0 0.1
-0.12 0 0.1
-0.1 0 0.1
-0.08 0 0.1
-0.06 0 0.1
-0.04 0 0.1
-0.02 0 0.1
0.0182781 0.00745351 0.1
0.0366672 0.0146286 0.1
0.0551632 0.0215237 0.1
0.0737617 0.0281372 0.1
0.0924585 0.0344675 0.1
0.111249 0.0405131 0.1
0.13013 0.0462728 0.1
0.149095 0.0517451 0.1
0.168142 0.0569289 0.1
0.187265 0.0618228 0.1
0.20646 0.0664258 0.1
0.225723 0.0707368 0.1
0.245049 0.0747549 0.1
0.264434 0.078479 0.1
0.283873 0.0819084 0.1
0.303362 0.0850422 0.1
0.322896 0.0878798 0.1
0.342472 0.0904204 0.1
0.362083 0.0926635 0.1
0.381726 0.0946086 0.1
0.401397 0.0962552 0.1
0.42109 0.0976029 0.1
0.440802 0.0986514 0.1
0.460527 0.0994006 0.1
0.480261 0.0998501 0.1
0.5 0.1 0.1
0.519739 0.0998501 0.1
0.539473 0.0994006 0.1
0.559198 0.0986514 0.1
0.57891 0.0976029 0.1
0.598603 0.0962552 0.1
0.618274 0.0946086 0.1
0.637917 0.0926635 0.1
0.657528 0.0904204 0.1
0.677104 0.0878798 0.1
0.696638 0.0850422 0.1
0.716127 0.0819084 0.1
0.735566 0.078479 0.1
0.754951 0.0747549 0.1
0.774277 0.0707368 0.1
0.79354 0.0664258 0.1
0.812735 0.0618228 0.1
0.831858 0.0569289 0.1
0.850905 0.0517451 0.1
0.86987 0.0462728 0.1
0.888751 0.0405131 0.1
0.907542 0.0344675 0.1
0.926238 0.0281372 0.1
0.944837 0.0215237 0.1
0.963333 0.0146286 0.1
0.981722 0.00745351 0.1
1.02 0 0.1
1.04 0 0.1
1.06 0 0.1
1.08 0 0.1
1.1 0 0.1
1.12 0 0.1
1.14 0 0.1
1.16 0 0.1
1.18 0 0.1
1.2 0 0.1
1.22 0 0.1
1.24 0 0.1
1.26 0 0.1
1.28 0 0.1
1.3 0 0.1
1.32 0 0.1
1.34 0 0.1
1.36 0 0.1
1.38 0 0.1
1.4 0 0.1
1.42 0 0.1
1.44 0 0.1
1.46 0 0.1
1.48 0 0.1
1.5 0 0.1
1.52 0 0.1
1.54 0 0.1
1.56 0 0.1
1.58 0 0.1
1.6 0 0.1
1.62 0 0.1
1.64 0 0.1
1.66 0 0.1
1.68 0 0.1
1.7 0 0.1
1.72 0 0.1
1.74 0 0.1
1.76 0 0.1
1.78 0 0.1
1.8 0 0.1
1.82 0 0.1
1.84 0 0.1
1.86 0 0.1
1.88 0 0.1
1.9 0 0.1
1.92 0 0.1
1.94 0 0.1
1.96 0 0.1
1.98 0 0.1
2 0.0199133 0.1
2 0.0414128 0.1
2 0.0646247 0.1
2 0.0896856 0.1
2 0.116743 0.1
2 0.145955 0.1
2 0.177494 0.1
2 0.211545 0.1
2 0.248309 0.1
2 0.288001 0.1
2 0.330854 0.1
2 0.377121 0.1
2 0.427073 0.1
2 0.481004 0.1
2 0.539231 0.1
2 0.602096 0.1
2 0.669968 0.1
2 0.743247 0.1
2 0.822362 0.1
2 0.907779 0.1
1.9 1 0.1
1.8 1 0.1
1.7 1 0.1
1.6 1 0.1
1.5 1 0.1
1.4 1 0.1
1.3 1 0.1
1.2 1 0.1
1.1 1 0.1
1 1 0.1
0.9 1 0.1
0.8 1 0.1
0.7 1 0.1
0.6 1 0.1
0.5 1 0.1
0.4 1 0.1
0.3 1 0.1
0.2 1 0.1
0.1 1 0.1
3.69793e-12 1 0.1
-0.1 1 0.1
-0.2 1 0.1
-0.3 1 0.1
-0.4 1 0.1
-0.5 1 0.1
-0.6 1 0.1
-0.7 1 0.1
-0.8 1 0.1
-0.9 1 0.1
1.08758 0.0158154 0
-0.0898513 0.0203294 0
0.0966181 0.0537636 0
0.90205 0.0548881 0
1.21055 0.0202058 0
-0.209811 0.0159577 0
1.3305 0.0176902 0
-0.33 0.0173205 0
1.45324 0.0148141 0
-0.448654 0.0159854 0
1.56842 0.0191785 0
-0.569936 0.0166364 0
0.193292 0.0805369 0
0.805051 0.0813623 0
0.709096 0.100353 0
0.288591 0.0996656 0
0.390184 0.111848 0
0.61033 0.111742 0
0.488809 0.116278 0
1.67175 0.0169692 0
-0.67 0.0169809 0
-0.955017 0.454039 0
1.95131 0.44569 0
1.74981 0.0168753 0
-0.75 0.0173205 0
-0.968032 0.266538 0
1.96871 0.266267 0
0.978232 0.0305687 0
0.0208675 0.026451 0
-0.150454 0.91842 0
1.13854 0.907437 0
1.45012 0.904365 0
-0.445923 0.908903 0
-0.853423 0.0157019 0
1.84881 0.016319 0
0.853689 0.915652 0
0.153944 0.912184 0
0.545151 0.914125 0
0.549913 0.115152 0
1.51 0.0173205 0
-0.506989 0.01651 0
1.27 0.0173205 0
1.14976 0.0173333 0
-0.268171 0.0206442 0
-0.150501 0.0153244 0
-0.391384 0.0153993 0
1.38886 0.0171544 0
-0.973694 0.161724 0
1.97441 0.162392 0
-0.945221 0.633523 0
1.94544 0.63312 0
1.91008 0.0186068 0
-0.91 0.0169616 0
-0.030664 0.0194327 0
1.03074 0.0165456 0
-0.966065 0.353575 0
1.96128 0.359765 0
1.93879 0.781254 0
-0.937057 0.781882 0
-0.980746 0.080709 0
1.9772 0.0760699 0
0.058735 0.0409372 0
0.355202 0.913001 0
0.86356 0.0661005 0
0.134223 0.0651111 0
0.941972 0.0397386 0
-0.653034 0.915003 0
1.65328 0.904589 0
0.770126 0.0881325 0
0.232946 0.0902008 0
0.330582 0.105648 0
0.670612 0.108365 0
0.428707 0.116145 0
1.80993 0.016629 0
-0.810168 0.0172178 0
-0.71 0.0173205 0
1.63047 0.0175504 0
1.70842 0.0169661 0
-0.628824 0.0181787 0
-0.949815 0.0133898 0
1.95 0.0173205 0
1.85542 0.907891 0
-0.85 0.913397 0
1.9833 0.0307692 0
-0.983315 0.0309709 0
-0.750025 0.916468 0
-0.701107 0.836904 0
-0.607741 0.836428 0
-0.656448 0.759827 0
-0.572936 0.758144 0
-0.61411 0.691195 0
-0.539534 0.689068 0
-0.578542 0.626111 0
-0.507461 0.624216 0
-0.544001 0.566638 0
-0.477696 0.564279 0
-0.511582 0.51001 0
-0.451689 0.507147 0
-0.481834 0.457732 0
-0.426137 0.454624 0
-0.453236 0.407539 0
-0.398845 0.406233 0
-0.507958 0.409496 0
-0.368427 0.460177 0
-0.344602 0.405209 0
-0.315696 0.447824 0
-0.294128 0.402169 0
-0.262844 0.444518 0
-0.241968 0.388746 0
-0.209878 0.439557 0
-0.185184 0.391135 0
-0.156687 0.437338 0
-0.133719 0.390776 0
-0.104405 0.434306 0
-0.0818745 0.388334 0
-0.0528785 0.431165 0
-0.0305984 0.385639 0
-0.00180552 0.427863 0
0.0194564 0.382608 0
0.0485809 0.42449 0
0.0701962 0.37973 0
0.0985483 0.421145 0
0.119893 0.377339 0
0.147837 0.417911 0
0.172552 0.36751 0
0.197018 0.412597 0
0.221203 0.37141 0
0.24512 0.409646 0
-0.48178 0.364657 0
-0.531053 0.364782 0
-0.0599102 0.344151 0
-0.324909 0.359566 0
0.266181 0.368462 0
0.292132 0.407649 0
0.311992 0.365779 0
0.338918 0.404821 0
0.357567 0.355909 0
0.384723 0.40053 0
0.404675 0.359681 0
0.430617 0.398558 0
0.450457 0.35827 0
0.474237 0.395182 0
0.496746 0.34898 0
0.520548 0.397931 0
0.542071 0.353121 0
0.566011 0.389914 0
0.585061 0.350856 0
0.609352 0.38696 0
0.629069 0.348168 0
0.655979 0.391217 0
0.67472 0.346182 0
0.699346 0.381414 0
0.719333 0.341965 0
0.743718 0.377547 0
0.764028 0.339036 0
0.788201 0.373582 0
0.807659 0.336101 0
0.832821 0.372249 0
0.852309 0.334017 0
0.877785 0.370339 0
0.897875 0.331141 0
0.922904 0.366281 0
0.943173 0.327335 0
0.968282 0.363358 0
0.989029 0.324222 0
1.01391 0.361511 0
1.03465 0.321428 0
1.05949 0.358447 0
1.08389 0.312052 0
1.10575 0.355104 0
1.12889 0.31562 0
1.15067 0.353235 0
1.17157 0.312819 0
1.19626 0.349369 0
1.21618 0.309863 0
1.2416 0.346914 0
1.26131 0.30715 0
1.28691 0.344312 0
1.30571 0.303752 0
1.33144 0.341222 0
1.35018 0.300911 0
1.3758 0.338308 0
1.39501 0.298931 0
1.42015 0.335235 0
1.43904 0.296349 0
1.46355 0.330194 0
1.48256 0.293347 0
1.50685 0.326967 0
1.52589 0.29055 0
1.54996 0.325305 0
1.56909 0.287929 0
[...]
CELL_DATA 3694
SCALARS rho float
LOOKUP_TABLE default
0.789487
0.765648
0.811633
0.88641
0.852556
0.811865
0.813056
0.807453
0.864914
0.808205
0.872814
0.872753
0.8393
0.812791
0.807889
0.805502
0.808022
0.808696
0.808976
0.861045
0.850162
0.862765
0.788669
0.811852
0.787164
0.838585
0.78289
0.814706
0.836259
0.803172
0.803182
0.781118
0.808913
0.828363
0.809494
0.836734
0.85087
0.861308
0.852265
0.804575
0.811128
0.823142
0.834546
0.82877
0.818137
0.887181
0.809276
0.769747
0.761932
0.795848
0.812259
0.806854
0.85888
0.815153
0.76939
0.851835
0.809278
0.853607
0.833219
0.800213
0.813819
0.895621
0.860327
0.806905
0.86316
0.858418
0.815491
0.891036
0.782214
0.869478
0.805932
0.816211
0.862793
0.808223
0.860038
0.807047
0.822524
0.805032
0.872512
0.812042
0.789813
0.824047
0.805236
0.803647
0.857021
0.805203
0.853385
0.789684
0.78361
0.847462
0.831992
0.807936
0.825549
0.848145
0.757236
0.813995
0.780924
0.870942
0.87726
0.859311
0.883341
0.810541
0.775133
0.862406
0.856171
0.895559
0.871357
0.814426
0.782887
0.868954
0.814131
0.796444
0.775983
0.845659
0.874731
0.807599
0.83334
0.877401
0.80575
0.807409
0.80086
0.828254
0.858417
0.810766
0.766313
0.802393
0.868424
0.818393
0.855925
0.787809
0.801842
0.816087
0.816357
0.810039
0.809438
0.826459
0.812238
0.805468
0.802591
0.882376
0.870764
0.787565
0.871122
0.888601
0.801901
0.7715
0.758477
0.803536
0.879915
0.820139
0.801852
0.806618
0.745486
0.815426
0.777705
0.811023
0.775911
0.819013
0.738619
0.813014
0.836103
0.748447
0.811072
0.790776
0.863654
0.743374
0.822924
0.807374
0.811393
0.758159
0.809755
0.764585
0.869445
0.74423
0.814355
0.771396
0.858696
0.860773
0.858095
0.786173
0.86782
0.781162
0.861077
0.788181
0.748828
0.808279
0.754748
0.861145
0.812196
0.865962
0.812341
0.768117
0.897175
0.803809
0.798239
0.846376
0.819702
0.859221
0.790327
0.801376
0.806305
0.825195
0.860718
0.834283
0.823515
0.884595
0.770189
0.810884
0.794394
0.807259
0.791272
0.826033
0.813207
0.814956
0.861309
0.810765
0.860621
0.797003
0.861495
0.854746
0.88045
0.846416
0.83124
0.790416
0.860948
0.756892
0.811585
0.848643
0.866142
0.857984
0.859922
0.812606
0.80212
0.871734
0.858865
0.872228
0.7895
0.834934
0.777874
0.827225
0.813058
0.854196
0.766255
0.814947
0.806624
0.814883
0.80568
0.805754
0.890222
0.854624
0.807861
0.760117
0.817671
0.809794
0.750237
0.831632
0.810294
0.808169
0.852395
0.894397
0.740456
0.888174
0.821433
0.836228
0.885077
0.806411
0.822782
0.841893
0.835056
0.803492
0.804663
0.861041
0.8182
0.805982
0.813691
0.896143
0.777584
0.72902
0.870472
0.83182
0.863647
0.81812
0.783932
0.885087
0.887427
0.851328
0.791658
0.825807
0.895053
0.747208
0.805681
0.872015
0.757185
0.807825
0.859602
0.848948
0.896684
0.770355
0.818432
0.89536
0.809609
0.807833
0.821426
0.850528
0.823337
0.804752
0.816314
0.807009
0.747078
0.864677
0.860749
0.772005
0.826652
0.868225
0.827102
0.769553
0.747805
0.864154
0.859838
0.816838
0.781859
0.781749
0.785246
0.799358
0.864226
0.818126
0.810356
0.799297
0.784421
0.860964
0.85621
0.824683
0.811135
0.890185
0.88644
0.871949
0.870991
0.809479
0.814858
0.812017
0.759805
0.805302
0.819694
0.786456
0.815544
0.812301
0.867087
0.812132
0.818359
0.812671
0.895404
0.864712
0.865762
0.804217
0.784365
0.792345
0.813892
0.819396
0.763508
0.809946
0.815849
0.822971
0.799032
0.815088
0.86841
0.877808
0.8703
0.811887
0.813888
0.809617
0.812928
0.863208
0.825232
0.769193
0.810698
0.789024
0.766286
0.808507
0.734432
0.806406
0.810135
0.819963
0.895764
0.853693
0.868382
0.840682
0.865789
0.858911
0.807794
0.809656
0.820022
0.766674
0.865129
0.803873
0.795258
0.77949
0.886309
0.862172
0.865082
0.816919
0.828041
0.886701
0.811373
0.807127
0.864414
0.765276
0.812727
0.858172
0.829818
0.812506
0.872754
0.820524
0.858934
0.871763
0.832114
0.763511
0.834516
0.798935
0.802807
0.786729
0.847517
0.817993
0.821092
0.753778
0.89304
0.831497
0.880676
0.808026
0.812328
0.860607
0.809651
0.790596
0.81166
0.805747
0.891874
0.864062
0.867713
0.875728
0.860678
0.81701
0.860535
0.772075
0.862311
0.861352
0.875382
0.74259
0.887296
0.816606
0.86384
0.864105
0.808605
0.731431
0.8173
0.786177
0.814171
0.807102
0.819563
0.894973
0.828459
0.81234
0.820848
0.8718
0.796862
0.871913
0.805013
0.865879
0.869596
0.747143
0.809968
0.813898
0.874701
0.871042
0.772808
0.807894
0.817149
0.819754
0.814956
0.813289
0.882697
0.869223
0.834603
0.812566
0.862375
0.851202
0.798814
0.81425
0.817622
0.869827
0.763878
0.812331
0.858597
0.804773
0.810924
0.742634
0.860765
0.811108
0.896497
0.870297
0.858981
0.86006
0.868261
0.881571
0.791098
0.804634
0.86076
0.860321
0.774148
0.805256
0.807461
0.876189
0.863755
0.867551
0.804657
0.819516
0.800979
0.880643
0.820524
0.732271
0.80843
0.798443
0.795289
0.809634
0.877796
0.80771
0.828097
0.884309
0.837081
0.862063
0.813531
0.848021
0.785098
0.794347
0.810355
0.853772
0.855069
0.808839
0.796311
0.782713
0.892468
0.821497
0.822292
0.735741
0.888428
0.845239
0.861627
0.808272
0.843777
0.859613
0.820704
0.86207
0.809137
0.820249
0.853729
0.882613
0.842999
0.846016
0.785678
0.809719
0.825443
0.808115
0.8649
0.808945
0.831543
0.743548
0.83797
0.873855
0.817955
0.86774
0.813087
0.890424
0.784068
0.863293
0.768431
0.806296
0.872382
0.815033
0.774613
0.752203
0.82211
0.813317
0.811472
0.823062
0.809903
0.859088
0.863753
0.811544
0.808101
0.867523
0.738235
0.87871
0.809857
0.787864
0.861576
0.767613
0.824173
0.874006
0.851788
0.852315
0.887198
0.831787
0.827126
0.811233
0.810256
0.880554
0.818364
0.863513
0.808025
0.79268
0.813161
0.889782
0.887802
0.847138
0.881617
0.877489
0.890741
0.849222
0.800666
0.814071
0.878278
0.809071
0.732954
0.783688
0.818864
0.891762
0.884239
0.807469
0.816576
0.820063
0.810098
0.813466
0.809103
0.846138
0.848666
0.88958
0.822806
0.844767
0.852416
0.746512
0.809337
0.80502
0.83173
0.788451
0.782609
0.802286
0.804699
0.85842
0.895796
0.891726
0.818805
0.730652
0.822234
0.730574
0.788512
0.861609
0.872386
0.801939
0.869608
0.866614
0.778543
0.873773
0.819591
0.821346
0.819836
0.754955
0.868093
0.788186
0.798672
0.815052
0.811495
0.803739
0.833633
0.888327
0.775327
0.84144
0.811431
0.786971
0.862054
0.803946
0.745073
0.808549
0.8783
0.856221
0.889006
0.808499
0.797233
0.814485
0.836923
0.765191
0.879309
0.854032
0.86098
0.806405
0.863515
0.783712
0.81147
0.754814
0.771103
0.828199
0.827145
0.82802
0.897052
0.881888
0.886331
0.89571
0.739191
0.804605
0.896183
0.793272
0.818488
0.880743
0.884143
0.774976
0.761628
0.792142
0.761284
0.819904
0.772611
0.882088
0.804268
0.889761
0.836905
0.762309
0.832695
0.856156
0.848236
0.800752
0.819584
0.796466
0.811071
0.855134
0.751675
0.752273
0.886064
0.812597
0.85362
0.811132
0.790328
0.815624
0.794473
0.79532
0.806449
0.86048
0.819194
0.764407
0.862326
0.844729
0.874539
0.78529
0.760469
0.775464
0.877097
0.878335
0.861358
0.742478
0.777493
0.749745
0.810415
0.804063
0.760877
0.819102
0.843224
0.804961
0.807197
0.79436
0.881137
0.766274
0.895243
0.820928
0.83662
0.806135
0.843839
0.795256
0.881331
0.893804
0.809292
0.747615
0.822807
0.868864
0.805264
0.896348
0.788902
0.810176
0.850294
0.77321
0.869499
0.804506
0.821214
0.745316
0.756517
0.793303
0.813641
0.86954
0.87144
0.863083
0.821642
0.876147
0.772073
0.804144
0.865703
0.859329
0.772792
0.797611
0.88302
0.841434
0.779426
0.823917
0.811672
0.768486
0.819764
0.769645
0.840693
0.756306
0.80659
0.781867
0.772453
0.866593
0.810836
0.798304
0.745017
0.856896
0.827285
0.862883
0.809901
0.895986
0.80438
0.819348
0.805608
0.813489
0.859696
0.798973
0.819112
0.805381
0.868199
0.738649
0.808276
0.861696
0.860582
0.864729
0.863024
0.798967
0.8327
0.802912
0.801283
0.865814
0.771667
0.864632
0.865207
0.80654
0.864885
0.865918
0.794667
0.79998
0.862025
0.820596
0.813411
0.866756
0.87619
0.858451
0.838972
0.874351
0.885275
0.813104
0.868786
0.856313
0.808672
0.789489
0.862468
0.814365
0.806525
0.826825
0.815898
0.869497
0.82889
0.868177
0.873619
0.875886
0.806721
0.812229
0.868821
0.806816
0.87942
0.815277
0.797836
0.878089
0.866367
0.791522
0.79215
0.876676
0.840389
0.826719
0.775262
0.863798
0.807672
0.858569
0.808534
0.791666
0.806214
0.803977
0.821845
0.860078
0.775937
0.79028
0.808021
0.810353
0.809335
0.843468
0.7776
0.893061
0.808772
0.807524
0.842105
0.884327
0.791613
0.877035
0.804608
0.812813
0.833926
0.808937
0.813484
0.814927
0.81292
0.885409
0.751734
0.896144
0.763818
0.779296
0.809248
0.866737
0.893647
0.807469
0.886452
0.837457
0.794504
0.808992
0.868719
0.806604
0.849377
0.817733
0.743477
0.796371
0.820796
0.76882
0.79887
0.741669
0.840062
0.894577
0.84485
0.805506
0.801738
0.775152
0.810475
0.789804
0.810143
0.896293
0.841365
0.866982
0.814427
0.826056
0.842295
0.809256
0.815767
0.783647
0.809272
0.801018
0.816989
0.803341
0.804395
0.848462
0.811934
0.809252
0.828606
0.856013
0.788686
0.805965
0.806116
0.812643
0.736407
0.883537
0.884482
0.82654
0.767464
0.88545
0.883083
0.804045
0.810279
0.813104
0.816592
0.814934
0.831295
0.879333
0.792223
0.842163
0.876679
0.806276
0.801727
0.845458
0.808365
0.862632
0.8369
0.820855
0.853795
0.813407
0.81285
0.817126
0.861371
0.860827
0.813113
0.735724
0.862631
0.857759
0.804428
0.860377
0.857215
0.860114
0.858348
0.817086
0.857146
0.860762
0.809151
0.816908
0.874572
0.849028
0.862656
0.809213
0.830177
0.812948
0.812028
0.817817
0.794502
0.81808
0.737084
0.868541
0.861252
0.860454
0.814016
0.823874
0.861874
0.824536
0.864593
0.86147
0.860481
0.825517
0.803833
0.863574
0.872265
0.872821
0.806069
0.815361
0.872437
0.865708
0.864385
0.87511
0.806063
0.828242
0.815769
0.834401
0.869718
0.856634
0.81348
0.795378
0.807803
0.811803
0.884263
0.812691
0.828985
0.826537
0.81825
0.811015
0.808276
0.824926
0.78488
0.821039
0.82111
0.802843
0.809566
0.820161
0.825822
0.791601
0.866889
0.821676
0.829506
0.867367
0.821103
0.876939
0.842801
0.833903
0.844104
0.818833
0.806421
0.800801
0.782318
0.891106
0.827499
0.813695
0.865669
0.81527
0.869194
0.812666
0.804233
0.807008
0.805377
0.804991
0.858474
0.871141
0.818564
0.818658
0.736309
0.795317
0.813566
0.821133
0.811131
0.869459
0.813372
0.878505
0.809257
0.889372
0.811908
0.871193
0.810528
0.867433
0.805099
0.880106
0.866195
0.873097
0.865436
0.791025
0.862508
0.8818
0.734662
0.890689
0.813856
0.809931
0.869212
0.85971
0.868506
0.875817
0.878021
0.879363
0.874346
0.867324
0.864583
0.803267
0.831743
0.808079
0.808351
0.859188
0.881842
0.875118
0.88645
0.86019
0.827064
0.811561
0.861234
0.816422
0.821719
0.825005
0.887469
0.862663
0.86394
0.818639
0.762983
0.769333
0.807265
0.816479
0.808639
0.864401
0.864409
0.86331
0.807558
0.812192
0.806513
0.805717
0.867231
0.857367
0.868796
0.818839
0.865645
0.86952
0.842081
0.864963
0.825851
0.810764
0.866508
0.815165
0.8095
0.81275
0.85417
0.866775
0.887655
0.876571
0.835366
0.844849
0.886343
0.865671
0.826012
0.808972
0.809064
0.813207
0.874392
0.885405
0.806204
0.839861
0.873629
0.826621
0.80692
0.74877
0.810704
0.825485
0.823169
0.815188
0.811542
0.796635
0.86217
0.814094
0.804628
0.860825
0.8605
0.817552
0.861086
0.805754
0.869434
0.857918
0.868142
0.809274
0.868765
0.798224
0.863159
0.82017
0.805828
0.819845
0.865191
0.814391
0.80985
0.82044
0.821416
0.885328
0.884335
0.867935
0.813965
0.873682
0.879023
0.851228
0.826305
0.861415
0.813135
0.766943
0.866473
0.853897
0.866322
0.811574
0.804123
0.809935
0.855701
0.820608
0.875986
0.793878
0.800889
0.806739
0.813361
0.876935
0.864167
0.839314
0.771035
0.774368
0.816024
0.799386
0.88094
0.77606
0.806903
0.786218
0.805259
0.825045
0.806039
0.871967
0.876153
0.812609
0.815835
0.829187
0.831945
0.88355
0.807417
0.809578
0.870983
0.861335
0.802346
0.85076
0.809273
0.806843
0.884479
0.809531
0.818076
0.896382
0.886646
0.857819
0.82886
0.802719
0.885432
0.802396
0.813918
0.894836
0.812968
0.874643
0.83874
0.808439
0.859726
0.836426
0.821266
0.885309
0.80731
0.845414
0.810577
0.808343
0.879982
0.860588
0.815915
0.884671
0.879828
0.80774
0.809479
0.828979
0.816425
0.88443
0.883069
0.772824
0.881873
0.775828
0.823374
0.858039
0.859051
0.817863
0.891021
0.889162
0.78797
0.894106
0.808298
0.804328
0.806298
0.875659
0.871857
0.806269
0.807113
0.811854
0.862606
0.830171
0.864138
0.872036
0.796505
0.836403
0.805273
0.787777
0.806945
0.779214
0.870744
0.810726
0.763669
0.880153
0.769078
0.800424
0.80993
0.800393
0.816197
0.80434
0.806805
0.757562
0.81294
0.809944
0.80522
0.798355
0.866926
0.863213
0.882368
0.817274
0.832767
0.752299
0.806664
0.819492
0.80297
0.803672
0.814037
0.78761
0.81131
0.805682
0.811372
0.806686
0.748149
0.818407
0.745258
0.85319
0.841828
0.819021
0.790302
0.837827
0.835197
0.85781
0.811504
0.85628
0.812965
0.867321
0.779383
0.806728
0.787857
0.806483
0.803715
0.783879
0.810256
0.89319
0.892018
0.807706
0.804768
0.889119
0.783132
0.768494
0.806013
0.892669
0.877851
0.89425
0.88255
0.879555
0.869541
0.847423
0.776503
0.806975
0.819283
0.826144
0.832401
0.78201
0.782093
0.781742
0.808175
0.770153
0.807906
0.803807
0.765956
0.764155
0.851572
0.813452
0.798988
0.857269
0.805848
0.80026
0.758639
0.792678
0.820333
0.850051
0.872683
0.85382
0.883398
0.826467
0.804165
0.786605
0.887735
0.770619
0.814222
0.894113
0.807303
0.805344
0.83176
0.818416
0.812765
0.805269
0.871694
0.820765
0.8721
0.753912
0.740594
0.806736
0.836444
0.781012
0.817626
0.806966
0.855066
0.809972
0.804467
0.743188
0.749859
0.820053
0.874157
0.889435
0.79775
0.805995
0.840453
0.777315
0.877945
0.805961
0.896081
0.804765
0.827884
0.804243
0.896625
0.8046
0.824481
0.808373
0.869967
0.896956
0.804368
0.77403
0.774569
0.881814
0.747803
0.843937
0.817409
0.855519
0.867757
0.807823
0.818875
0.895512
0.876362
0.897319
0.803934
0.847195
0.867551
0.809332
0.77317
0.84954
0.827222
0.812105
0.807392
0.852569
0.799708
0.804846
0.849331
0.851074
0.869274
0.884243
0.806643
0.789137
0.808073
0.855968
0.810661
0.847422
0.81222
0.811454
0.812845
0.895343
0.816395
0.804985
0.816826
0.813746
0.828086
0.816122
0.815273
0.87112
0.814563
0.804899
0.895289
0.807105
0.804733
0.81438
0.815453
0.89431
0.808894
0.813486
0.808333
0.897589
0.803013
0.809627
0.817379
0.856257
0.812691
0.77371
0.804615
0.872107
0.811852
0.822101
0.804738
0.874982
0.801503
0.809299
0.804387
0.810348
0.824203
0.865267
0.81109
0.805135
0.790113
0.85661
0.894383
0.862375
0.828461
0.856028
0.798352
0.86845
0.795404
0.814013
0.857154
0.805755
0.787056
0.857849
0.85035
0.878597
0.85869
0.88601
0.807684
0.872808
0.775042
0.793019
0.893741
0.859741
0.782563
0.86757
0.753709
0.861002
0.814912
0.876167
0.805819
0.813722
0.853164
0.832966
0.828451
0.74831
0.891414
0.862129
0.810052
0.863538
0.811352
0.791714
0.861164
0.866844
0.860591
0.78637
0.783539
0.86024
0.777464
0.86016
0.892119
0.860288
0.817609
0.86065
0.811773
0.861167
0.861803
0.791558
0.87319
0.862583
0.863498
0.827459
0.805679
0.806631
0.740222
0.841795
0.864538
0.884713
0.817282
0.859865
0.897659
0.802054
0.865645
0.807538
0.780705
0.812879
0.834428
0.891023
0.793044
0.836559
0.826094
0.749835
0.888018
0.883548
0.816645
0.817975
0.795671
0.848109
0.806705
0.808897
0.81348
0.830965
0.814841
0.813047
0.804924
0.894729
0.824546
0.88113
0.733574
0.888524
0.784801
0.813434
0.799991
0.812215
0.897163
0.881795
0.883614
0.744907
0.860159
0.823021
0.810189
0.855628
0.836042
0.837761
0.808776
0.812382
0.813143
0.797188
0.805125
0.888446
0.805902
0.821535
0.866355
0.887969
0.820175
0.8091
0.816674
0.818936
0.878454
0.789551
0.817662
0.880085
0.870072
0.815045
0.816605
0.810765
0.894713
0.815446
0.808031
0.814571
0.753241
0.813624
0.810796
0.812874
0.862159
0.841532
0.811395
0.817237
0.812107
0.804292
0.863514
0.848851
0.893994
0.897567
0.844327
0.80888
0.794523
0.824776
0.888697
0.789085
0.808339
0.877797
0.799455
0.895031
0.73152
0.813918
0.763587
0.808811
0.834288
0.87418
0.873229
0.810673
0.851403
0.866316
0.806738
0.812671
0.841128
0.876743
0.813331
0.863789
0.810357
0.809956
0.804673
0.807152
0.843906
0.891964
0.807648
0.814461
0.867828
0.835795
0.817591
0.897219
0.736295
0.816917
0.821176
0.88699
0.825363
0.802382
0.773876
0.893594
0.896876
0.858974
0.828428
0.743133
0.81041
0.768806
0.875212
0.787308
0.894467
0.83215
0.788275
0.804416
0.858579
0.804906
0.812559
0.807505
0.875491
0.828946
0.771498
0.805461
0.741616
0.808278
0.806978
0.811316
0.748774
0.806035
0.80894
0.810472
0.784667
0.791972
0.810011
0.813728
0.882956
0.783901
0.776065
0.887602
0.812989
0.800296
0.862321
0.893189
0.893206
0.762145
0.812049
0.804294
0.804947
0.805064
0.764918
0.808626
0.88628
0.756755
0.768243
0.818439
0.822165
0.890341
0.842647
0.879188
0.880565
0.874173
0.810766
0.888652
0.877876
0.83625
0.831255
0.809621
0.806717
0.817814
0.797897
0.817702
0.877829
0.868283
0.836023
0.752307
0.817433
0.806449
0.807147
0.874427
0.871835
0.847564
0.82088
0.870103
0.809641
0.87938
0.744177
0.822122
0.850926
0.805252
0.894432
0.749205
0.867717
0.807751
0.874509
0.804802
0.870222
0.87735
0.793099
0.812707
0.804811
0.852979
0.869349
0.82479
0.879171
0.780574
0.801704
0.805745
0.808053
0.819326
0.867528
0.803516
0.807511
0.862939
0.846945
0.815325
0.787112
0.806261
0.863701
0.857189
0.807726
0.796386
0.85878
0.813994
0.867339
0.780828
0.85404
0.860186
0.774255
0.814761
0.879379
0.809648
0.803518
0.815875
0.883015
0.816213
0.803188
0.886765
0.768569
0.802462
0.809573
0.8855
0.872959
0.807182
0.82248
0.796355
0.802695
0.81096
0.889585
0.867424
0.846622
0.762982
0.833098
0.828069
0.806032
0.820893
0.884124
0.81454
0.811036
0.769555
0.811821
0.812485
0.86665
0.809928
0.816725
0.854771
0.813203
0.863004
0.865459
0.758913
0.810673
0.878579
0.814586
0.813734
0.815392
0.812191
0.812909
0.811369
0.816081
0.814131
0.790481
0.816628
0.814847
0.837502
0.870545
0.815853
0.850853
0.805207
0.810817
0.876387
0.873439
0.867537
0.80493
0.824139
0.820137
0.841286
0.87476
0.785025
0.882846
0.855287
0.886668
0.867998
0.796865
0.851773
0.894813
0.809011
0.758288
0.808481
0.810108
0.863741
0.737971
0.882662
0.855749
0.890498
0.844815
0.806213
0.831608
0.842891
0.80986
0.805835
0.871938
0.799179
0.736279
0.896789
0.761668
0.780926
0.826197
0.856345
0.859367
0.873706
0.863698
0.754228
0.862317
0.816959
0.857062
0.857879
0.872599
0.777755
0.892773
0.85887
0.876044
0.809255
0.80146
0.827042
0.740522
0.848142
0.862217
0.810386
0.861224
0.860074
0.804982
0.775905
0.840472
0.861435
0.860508
0.806497
0.851237
0.804841
0.860175
0.80728
0.853958
0.859991
0.860012
0.826721
0.861962
0.83234
0.783692
0.776162
0.750433
0.860283
0.860785
0.806277
0.803353
0.851233
0.861366
0.842337
0.751495
0.862068
0.862929
0.863923
0.866173
0.81683
0.82582
0.776401
0.800373
0.865021
0.803716
0.857776
0.887628
0.808828
0.844128
0.756269
0.835305
0.797443
0.794971
0.824637
0.81618
0.810777
0.778195
0.804901
0.888491
0.812146
0.793324
0.838922
0.8232
0.81491
0.781156
0.842225
0.812903
0.880934
0.858973
0.821734
0.833373
0.87762
0.87924
0.810154
0.810448
0.7927
0.83851
0.812987
0.858315
0.810919
0.811052
0.784085
0.803682
0.820434
0.819221
0.818145
0.816849
0.815766
0.814914
0.813138
0.811689
0.814021
0.797265
0.812401
0.803998
0.813295
0.808644
0.840879
0.793292
0.807625
0.806446
0.881721
0.848156
0.813201
0.795224
0.810506
0.814639
0.788389
0.808901
0.808125
0.79843
0.815483
0.827858
0.803518
0.80692
0.792891
0.819632
0.839503
0.803017
0.801998
0.81357
0.807381
0.880509
0.816118
0.808045
0.797447
0.81279
0.891997
0.8082
0.822742
0.804234
0.911534
0.866251
0.860381
0.897433
0.775628
0.860837
0.795428
0.829264
0.837672
0.891843
0.894568
0.802433
0.738406
0.893207
0.802839
0.891798
0.803402
0.856585
0.737271
0.857817
0.811703
0.813009
0.818097
0.810899
0.848492
0.805695
0.870159
0.768567
0.740342
0.750499
0.890436
0.729613
0.803059
0.79133
0.853923
0.824224
0.721419
0.828869
0.889671
0.892413
0.779771
0.807978
0.72296
0.803935
0.887741
0.804256
0.807064
0.804639
0.885003
0.849074
0.805012
0.805736
0.881048
0.806115
0.879776
0.821209
0.806508
0.878513
0.882838
0.877273
0.806988
0.87606
0.75842
0.807328
0.874879
0.80645
0.807657
0.873723
0.784026
0.891379
0.802594
0.896333
0.81467
0.86083
0.837308
0.87146
0.804904
0.808984
0.870446
0.821753
0.808535
0.808087
0.853826
0.836884
0.871546
0.861608
0.86174
0.860656
0.870565
0.829123
0.86466
0.892459
0.810369
0.867395
0.834616
0.810878
0.889749
0.806976
0.831969
0.805939