# vtk DataFile Version 1.0
unstructured grid
ascii
DATASET UNSTRUCTURED_GRID
points 3920 float
-1 0 0
-1 1 0
2 0 0
2 1 0
0 0 0
1 0 0
-1 1 0.1
-1 0 0.1
0 0 0.1
1 0 0.1
2 0 0.1
2 1 0.1
-0.98 0 0
-0.96 0 0
-0.94 0 0
-0.92 0 0
-0.9 0 0
-0.88 0 0
-0.86 0 0
-0.84 0 0
-0.82 0 0
-0.8 0 0
-0.78 0 0
-0.76 0 0
-0.74 0 0
-0.72 0 0
-0.7 0 0
-0.68 0 0
-0.66 0 0
-0.64 0 0
-0.62 0 0
-0.6 0 0
-0.58 0 0
-0.56 0 0
-0.54 0 0
-0.52 0 0
-0.5 0 0
-0.48 0 0
-0.46 0 0
-0.44 0 0
-0.42 0 0
-0.4 0 0
-0.38 0 0
-0.36 0 0
-0.34 0 0
-0.32 0 0
-0.3 0 0
-0.28 0 0
-0.26 0 0
-0.24 0 0
-0.22 0 0
-0.2 0 0
-0.18 0 0
-0.16 0 0
-0.14 0 0
-0.12 0 0
-0.1 0 0
-0.08 0 0
-0.06 0 0
-0.04 0 0
-0.02 0 0
1.02 0 0
1.04 0 0
1.06 0 0
1.08 0 0
1.1 0 0
1.12 0 0
1.14 0 0
1.16 0 0
1.18 0 0
1.2 0 0
1.22 0 0
1.24 0 0
1.26 0 0
1.28 0 0
1.3 0 0
1.32 0 0
1.34 0 0
1.36 0 0
1.38 0 0
1.4 0 0
1.42 0 0
1.44 0 0
1.46 0 0
1.48 0 0
1.5 0 0
1.52 0 0
1.54 0 0
1.56 0 0
1.58 0 0
1.6 0 0
1.62 0 0
1.64 0 0
1.66 0 0
1.68 0 0
1.7 0 0
1.72 0 0
1.74 0 0
1.76 0 0
1.78 0 0
1.8 0 0
1.82 0 0
1.84 0 0
1.86 0 0
1.88 0 0
1.9 0 0
1.92 0 0
1.94 0 0
1.96 0 0
1.98 0 0
2 0.0199133 0
2 0.0414128 0
2 0.0646247 0
2 0.0896856 0
2 0.116743 0
2 0.145955 0
2 0.177494 0
2 0.211545 0
2 0.248309 0
2 0.288001 0
2 0.330854 0
2 0.377121 0
2 0.427073 0
2 0.481004 0
2 0.539231 0
2 0.602096 0
2 0.669968 0
2 0.743247 0
2 0.822362 0
2 0.907779 0
1.9 1 0
1.8 1 0
1.7 1 0
1.6 1 0
1.5 1 0
1.4 1 0
1.3 1 0
1.2 1 0
1.1 1 0
1 1 0
0.9 1 0
0.8 1 0
0.7 1 0
0.6 1 0
0.5 1 0
0.4 1 0
0.3 1 0
0.2 1 0
0.1 1 0
3.69793e-12 1 0
-0.1 1 0
-0.2 1 0
-0.3 1 0
-0.4 1 0
-0.5 1 0
-0.6 1 0
-0.7 1 0
-0.8 1 0
-0.9 1 0
-1 0.907779 0
-1 0.822362 0
-1 0.743247 0
-1 0.669968 0
-1 0.602096 0
-1 0.539231 0
-1 0.481004 0
-1 0.427073 0
-1 0.377121 0
-1 0.330854 0
-1 0.288001 0
-1 0.248309 0
-1 0.211545 0
-1 0.177494 0
-1 0.145955 0
-1 0.116743 0
-1 0.0896856 0
-1 0.0646247 0
-1 0.0414128 0
-1 0.0199133 0
0.0182781 0.00745351 0
0.0366672 0.0146286 0
0.0551632 0.0215237 0
0.0737617 0.0281372 0
0.0924585 0.0344675 0
0.111249 0.0405131 0
0.13013 0.0462728 0
0.149095 0.0517451 0
0.168142 0.0569289 0
0.187265 0.0618228 0
0.20646 0.0664258 0
0.225723 0.0707368 0
0.245049 0.0747549 0
0.264434 0.078479 0
0.283873 0.0819084 0
0.303362 0.0850422 0
0.322896 0.0878798 0
0.342472 0.0904204 0
0.362083 0.0926635 0
0.381726 0.0946086 0
0.401397 0.0962552 0
0.42109 0.0976029 0
0.440802 0.0986514 0
0.460527 0.0994006 0
0.480261 0.0998501 0
0.5 0.1 0
0.519739 0.0998501 0
0.539473 0.0994006 0
0.559198 0.0986514 0
0.57891 0.0976029 0
0.598603 0.0962552 0
0.618274 0.0946086 0
0.637917 0.0926635 0
0.657528 0.0904204 0
0.677104 0.0878798 0
0.696638 0.0850422 0
0.716127 0.0819084 0
0.735566 0.078479 0
0.754951 0.0747549 0
0.774277 0.0707368 0
0.79354 0.0664258 0
0.812735 0.0618228 0
0.831858 0.0569289 0
0.850905 0.0517451 0
0.86987 0.0462728 0
0.888751 0.0405131 0
0.907542 0.0344675 0
0.926238 0.0281372 0
0.944837 0.0215237 0
0.963333 0.0146286 0
0.981722 0.00745351 0
-1 0.907779 0.1
-1 0.822362 0.1
-1 0.743247 0.1
-1 0.669968 0.1
-1 0.602096 0.1
-1 0.539231 0.1
-1 0.481004 0.1
-1 0.427073 0.1
-1 0.377121 0.1
-1 0.330854 0.1
-1 0.288001 0.1
-1 0.248309 0.1
-1 0.211545 0.1
-1 0.177494 0.1
-1 0.145955 0.1
-1 0.116743 0.1
-1 0.0896856 0.1
-1 0.0646247 0.1
-1 0.0414128 0.1
-1 0.0199133 0.1
-0.98 0 0.1
-0.96 0 0.1
-0.94 0 0.1
-0.92 0 0.1
-0.9 0 0.1
-0.88 0 0.1
-0.86 0 0.1
-0.84 0 0.1
-0.82 0 0.1
-0.8 0 0.1
-0.78 0 0.1
-0.76 0 0.1
-0.74 0 0.1
-0.72 0 0.1
-0.7 0 0.1
-0.68 0 0.1
-0.66 0 0.1
-0.64 0 0.1
-0.62 0 0.1
-0.6 0 0.1
-0.58 0 0.1
-0.56 0 0.1
-0.54 0 0.1
-0.52 0 0.1
-0.5 0 0.1
-0.48 0 0.1
-0.46 0 0.1
-0.44 0 0.1
-0.42 0 0.1
-0.4 0 0.1
-0.38 0 0.1
-0.36 0 0.1
-0.34 0 0.1
-0.32 0 0.1
-0.3 0 0.1
-0.28 0 0.1
-0.26 0 0.1
-0.24 0 0.1
-0.22 0 0.1
-0.2 0 0.1
-0.18 0 0.1
-0.16 0 0.1
-0.14 0 0.1
-0.12 0 0.1
-0.1 0 0.1
-0.08 0 0.1
-0.06 0 0.1
-0.04 0 0.1
-0.02 0 0.1
0.0182781 0.00745351 0.1
0.0366672 0.0146286 0.1
0.0551632 0.0215237 0.1
0.0737617 0.0281372 0.1
0.0924585 0.0344675 0.1
0.111249 0.0405131 0.1
0.13013 0.0462728 0.1
0.149095 0.0517451 0.1
0.168142 0.0569289 0.1
0.187265 0.0618228 0.1
0.20646 0.0664258 0.1
0.225723 0.0707368 0.1
0.245049 0.0747549 0.1
0.264434 0.078479 0.1
0.283873 0.0819084 0.1
0.303362 0.0850422 0.1
0.322896 0.0878798 0.1
0.342472 0.0904204 0.1
0.362083 0.0926635 0.1
0.381726 0.0946086 0.1
0.401397 0.0962552 0.1
0.42109 0.0976029 0.1
0.440802 0.0986514 0.1
0.460527 0.0994006 0.1
0.480261 0.0998501 0.1
0.5 0.1 0.1
0.519739 0.0998501 0.1
0.539473 0.0994006 0.1
0.559198 0.0986514 0.1
0.57891 0.0976029 0.1
0.598603 0.0962552 0.1
0.618274 0.0946086 0.1
0.637917 0.0926635 0.1
0.657528 0.0904204 0.1
0.677104 0.0878798 0.1
0.696638 0.0850422 0.1
0.716127 0.0819084 0.1
0.735566 0.078479 0.1
0.754951 0.0747549 0.1
0.774277 0.0707368 0.1
0.79354 0.0664258 0.1
0.812735 0.0618228 0.1
0.831858 0.0569289 0.1
0.850905 0.0517451 0.1
0.86987 0.0462728 0.1
0.888751 0.0405131 0.1
0.907542 0.0344675 0.1
0.926238 0.0281372 0.1
0.944837 0.0215237 0.1
0.963333 0.0146286 0.1
0.981722 0.00745351 0.1
1.02 0 0.1
1.04 0 0.1
1.06 0 0.1
1.08 0 0.1
1.1 0 0.1
1.12 0 0.1
1.14 0 0.1
1.16 0 0.1
1.18 0 0.1
1.2 0 0.1
1.22 0 0.1
1.24 0 0.1
1.26 0 0.1
1.28 0 0.1
1.3 0 0.1
1.32 0 0.1
1.34 0 0.1
1.36 0 0.1
1.38 0 0.1
1.4 0 0.1
1.42 0 0.1
1.44 0 0.1
1.46 0 0.1
1.48 0 0.1
1.5 0 0.1
1.52 0 0.1
1.54 0 0.1
1.56 0 0.1
1.58 0 0.1
1.6 0 0.1
1.62 0 0.1
1.64 0 0.1
1.66 0 0.1
1.68 0 0.1
1.7 0 0.1
1.72 0 0.1
1.74 0 0.1
1.76 0 0.1
1.78 0 0.1
1.8 0 0.1
1.82 0 0.1
1.84 0 0.1
1.86 0 0.1
1.88 0 0.1
1.9 0 0.1
1.92 0 0.1
1.94 0 0.1
1.96 0 0.1
1.98 0 0.1
2 0.0199133 0.1
2 0.0414128 0.1
2 0.0646247 0.1
2 0.0896856 0.1
2 0.116743 0.1
2 0.145955 0.1
2 0.177494 0.1
2 0.211545 0.1
2 0.248309 0.1
2 0.288001 0.1
2 0.330854 0.1
2 0.377121 0.1
2 0.427073 0.1
2 0.481004 0.1
2 0.539231 0.1
2 0.602096 0.1
2 0.669968 0.1
2 0.743247 0.1
2 0.822362 0.1
2 0.907779 0.1
1.9 1 0.1
1.8 1 0.1
1.7 1 0.1
1.6 1 0.1
1.5 1 0.1
1.4 1 0.1
1.3 1 0.1
1.2 1 0.1
1.1 1 0.1
1 1 0.1
0.9 1 0.1
0.8 1 0.1
0.7 1 0.1
0.6 1 0.1
0.5 1 0.1
0.4 1 0.1
0.3 1 0.1
0.2 1 0.1
0.1 1 0.1
3.69793e-12 1 0.1
-0.1 1 0.1
-0.2 1 0.1
-0.3 1 0.1
-0.4 1 0.1
-0.5 1 0.1
-0.6 1 0.1
-0.7 1 0.1
-0.8 1 0.1
-0.9 1 0.1
1.08758 0.0158154 0
-0.0898513 0.0203294 0
0.0966181 0.0537636 0
0.90205 0.0548881 0
1.21055 0.0202058 0
-0.209811 0.0159577 0
1.3305 0.0176902 0
-0.33 0.0173205 0
1.45324 0.0148141 0
-0.448654 0.0159854 0
1.56842 0.0191785 0
-0.569936 0.0166364 0
0.193292 0.0805369 0
0.805051 0.0813623 0
0.709096 0.100353 0
0.288591 0.0996656 0
0.390184 0.111848 0
0.61033 0.111742 0
0.488809 0.116278 0
1.67175 0.0169692 0
-0.67 0.0169809 0
-0.955017 0.454039 0
1.95131 0.44569 0
1.74981 0.0168753 0
-0.75 0.0173205 0
-0.968032 0.266538 0
1.96871 0.266267 0
0.978232 0.0305687 0
0.0208675 0.026451 0
-0.150454 0.91842 0
1.13854 0.907437 0
1.45012 0.904365 0
-0.445923 0.908903 0
-0.853423 0.0157019 0
1.84881 0.016319 0
0.853689 0.915652 0
0.153944 0.912184 0
0.545151 0.914125 0
0.549913 0.115152 0
1.51 0.0173205 0
-0.506989 0.01651 0
1.27 0.0173205 0
1.14976 0.0173333 0
-0.268171 0.0206442 0
-0.150501 0.0153244 0
-0.391384 0.0153993 0
1.38886 0.0171544 0
-0.973694 0.161724 0
1.97441 0.162392 0
-0.945221 0.633523 0
1.94544 0.63312 0
1.91008 0.0186068 0
-0.91 0.0169616 0
-0.030664 0.0194327 0
1.03074 0.0165456 0
-0.966065 0.353575 0
1.96128 0.359765 0
1.93879 0.781254 0
-0.937057 0.781882 0
-0.980746 0.080709 0
1.9772 0.0760699 0
0.058735 0.0409372 0
0.355202 0.913001 0
0.86356 0.0661005 0
0.134223 0.0651111 0
0.941972 0.0397386 0
-0.653034 0.915003 0
1.65328 0.904589 0
0.770126 0.0881325 0
0.232946 0.0902008 0
0.330582 0.105648 0
0.670612 0.108365 0
0.428707 0.116145 0
1.80993 0.016629 0
-0.810168 0.0172178 0
-0.71 0.0173205 0
1.63047 0.0175504 0
1.70842 0.0169661 0
-0.628824 0.0181787 0
-0.949815 0.0133898 0
1.95 0.0173205 0
1.85542 0.907891 0
-0.85 0.913397 0
1.9833 0.0307692 0
-0.983315 0.0309709 0
-0.750025 0.916468 0
-0.701107 0.836904 0
-0.607741 0.836428 0
-0.656448 0.759827 0
-0.572936 0.758144 0
-0.61411 0.691195 0
-0.539534 0.689068 0
-0.578542 0.626111 0
-0.507461 0.624216 0
-0.544001 0.566638 0
-0.477696 0.564279 0
-0.511582 0.51001 0
-0.451689 0.507147 0
-0.481834 0.457732 0
-0.426137 0.454624 0
-0.453236 0.407539 0
-0.398845 0.406233 0
-0.507958 0.409496 0
-0.368427 0.460177 0
-0.344602 0.405209 0
-0.315696 0.447824 0
-0.294128 0.402169 0
-0.262844 0.444518 0
-0.241968 0.388746 0
-0.209878 0.439557 0
-0.185184 0.391135 0
-0.156687 0.437338 0
-0.133719 0.390776 0
-0.104405 0.434306 0
-0.0818745 0.388334 0
-0.0528785 0.431165 0
-0.0305984 0.385639 0
-0.00180552 0.427863 0
0.0194564 0.382608 0
0.0485809 0.42449 0
0.0701962 0.37973 0
0.0985483 0.421145 0
0.119893 0.377339 0
0.147837 0.417911 0
0.172552 0.36751 0
0.197018 0.412597 0
0.221203 0.37141 0
0.24512 0.409646 0
-0.48178 0.364657 0
-0.531053 0.364782 0
-0.0599102 0.344151 0
-0.324909 0.359566 0
0.266181 0.368462 0
0.292132 0.407649 0
0.311992 0.365779 0
0.338918 0.404821 0
0.357567 0.355909 0
0.384723 0.40053 0
0.404675 0.359681 0
0.430617 0.398558 0
0.450457 0.35827 0
0.474237 0.395182 0
0.496746 0.34898 0
0.520548 0.397931 0
0.542071 0.353121 0
0.566011 0.389914 0
0.585061 0.350856 0
0.609352 0.38696 0
0.629069 0.348168 0
0.655979 0.391217 0
0.67472 0.346182 0
0.699346 0.381414 0
0.719333 0.341965 0
0.743718 0.377547 0
0.764028 0.339036 0
0.788201 0.373582 0
0.807659 0.336101 0
0.832821 0.372249 0
0.852309 0.334017 0
0.877785 0.370339 0
0.897875 0.331141 0
0.922904 0.366281 0
0.943173 0.327335 0
0.968282 0.363358 0
0.989029 0.324222 0
1.01391 0.361511 0
1.03465 0.321428 0
1.05949 0.358447 0
1.08389 0.312052 0
1.10575 0.355104 0
1.12889 0.31562 0
1.15067 0.353235 0
1.17157 0.312819 0
1.19626 0.349369 0
1.21618 0.309863 0
1.2416 0.346914 0
1.26131 0.30715 0
1.28691 0.344312 0
1.30571 0.303752 0
1.33144 0.341222 0
1.35018 0.300911 0
1.3758 0.338308 0
1.39501 0.298931 0
1.42015 0.335235 0
1.43904 0.296349 0
1.46355 0.330194 0
1.48256 0.293347 0
1.50685 0.326967 0
1.52589 0.29055 0
1.54996 0.325305 0
1.56909 0.287929 0
[...]
CELL_DATA 3694
SCALARS rho float
LOOKUP_TABLE default
0.736239
0.672499
0.803818
0.814069
0.827088
0.805144
0.79171
0.800096
0.810917
0.802773
0.818212
0.818204
0.840602
0.789477
0.800879
0.751969
0.803291
0.803012
0.761424
0.850349
0.817909
0.823772
0.700337
0.803408
0.69696
0.839528
0.720408
0.806394
0.837179
0.798681
0.798867
0.718661
0.803537
0.824808
0.802899
0.798238
0.837562
0.823552
0.825395
0.778164
0.804691
0.817433
0.834516
0.825387
0.805188
0.813962
0.800953
0.672993
0.68072
0.723166
0.80208
0.802939
0.847134
0.802103
0.635443
0.838464
0.802723
0.81971
0.832722
0.754956
0.796339
0.816198
0.842537
0.799711
0.8431
0.831423
0.807697
0.814645
0.736425
0.85866
0.803162
0.80762
0.823795
0.803254
0.825145
0.802917
0.814219
0.799725
0.81484
0.802762
0.716092
0.818483
0.802334
0.776784
0.810695
0.799682
0.81906
0.717081
0.73582
0.8256
0.799922
0.802464
0.820613
0.816122
0.676257
0.806562
0.724109
0.818674
0.81333
0.840411
0.815657
0.763752
0.71789
0.810697
0.810134
0.816193
0.818655
0.807059
0.716671
0.815253
0.799307
0.724831
0.72031
0.824002
0.868203
0.802281
0.800498
0.813134
0.803149
0.80218
0.765823
0.822564
0.820444
0.770733
0.703678
0.75907
0.818295
0.777949
0.843912
0.703077
0.767338
0.800435
0.80797
0.777913
0.801064
0.796289
0.805496
0.802438
0.79808
0.815581
0.814703
0.712262
0.817853
0.814706
0.758175
0.674974
0.678435
0.798218
0.817018
0.813147
0.745739
0.802734
0.560698
0.779371
0.689725
0.764646
0.714657
0.784513
0.608968
0.793168
0.837593
0.646499
0.782304
0.738081
0.844612
0.558744
0.817329
0.800507
0.803012
0.674747
0.801558
0.664662
0.85819
0.547683
0.799933
0.639908
0.872776
0.833931
0.821398
0.745089
0.815016
0.721336
0.827632
0.737283
0.650211
0.803123
0.678655
0.824149
0.801709
0.851394
0.791862
0.702589
0.81593
0.798486
0.743224
0.853141
0.811444
0.849181
0.737597
0.744356
0.771322
0.794526
0.83235
0.834308
0.816912
0.81521
0.671375
0.804658
0.728628
0.803222
0.711686
0.798009
0.795699
0.801553
0.826447
0.764885
0.831076
0.750405
0.82639
0.820594
0.816977
0.853363
0.829532
0.706374
0.827777
0.683429
0.787961
0.810821
0.851563
0.830815
0.809236
0.794583
0.746671
0.818558
0.837252
0.818379
0.716913
0.800619
0.698168
0.793087
0.795556
0.810878
0.64145
0.807682
0.758895
0.79793
0.80312
0.76022
0.816305
0.866068
0.784199
0.690611
0.804485
0.801789
0.64889
0.793253
0.778241
0.802354
0.83939
0.815946
0.610737
0.816306
0.810193
0.797784
0.816549
0.8027
0.815417
0.815206
0.835703
0.757211
0.801916
0.835475
0.810621
0.803158
0.796204
0.816125
0.728215
0.590243
0.817815
0.829696
0.821271
0.804482
0.685545
0.816547
0.816301
0.817552
0.716016
0.797901
0.816218
0.552302
0.802856
0.86942
0.681307
0.757808
0.839235
0.827567
0.815974
0.705732
0.809474
0.816215
0.803864
0.80182
0.812192
0.837082
0.817506
0.767629
0.807076
0.803089
0.648253
0.821874
0.828597
0.673934
0.791911
0.819789
0.820928
0.680827
0.674062
0.822282
0.824862
0.809609
0.733117
0.708496
0.715197
0.734736
0.821185
0.777775
0.804214
0.734614
0.742
0.823326
0.811141
0.81935
0.770823
0.816303
0.814955
0.818334
0.816965
0.802782
0.807679
0.80404
0.690025
0.802754
0.812918
0.698696
0.807349
0.805162
0.820353
0.786021
0.806001
0.791974
0.816105
0.821864
0.821078
0.798377
0.685996
0.71391
0.799482
0.810935
0.62697
0.803928
0.807677
0.817338
0.744437
0.804303
0.817343
0.812668
0.818788
0.805088
0.797397
0.765539
0.804509
0.84409
0.820251
0.705555
0.803794
0.705198
0.70393
0.803133
0.616755
0.771018
0.784994
0.808086
0.814644
0.825976
0.818087
0.813396
0.821087
0.828976
0.802853
0.765675
0.809815
0.661468
0.820153
0.75826
0.72964
0.69198
0.815094
0.854386
0.820179
0.808964
0.822298
0.816452
0.787079
0.75955
0.810625
0.694553
0.79133
0.844039
0.826658
0.800858
0.864445
0.813445
0.817416
0.818546
0.831104
0.633584
0.799571
0.733537
0.798129
0.734894
0.819732
0.808719
0.788101
0.68032
0.815987
0.830134
0.813023
0.803015
0.803817
0.825167
0.803905
0.713868
0.79043
0.803125
0.815932
0.814963
0.813643
0.871983
0.828569
0.809445
0.832805
0.684184
0.824253
0.838259
0.817261
0.629753
0.816434
0.809306
0.846056
0.822251
0.80297
0.595172
0.810219
0.698923
0.806163
0.802911
0.812422
0.814768
0.825287
0.805123
0.811285
0.817058
0.726774
0.863357
0.802036
0.850705
0.81741
0.578846
0.803947
0.796815
0.8127
0.818661
0.657242
0.802858
0.809707
0.813105
0.807177
0.793985
0.816723
0.818303
0.79714
0.804134
0.822316
0.837395
0.732702
0.806345
0.809903
0.81417
0.684047
0.805359
0.816919
0.79946
0.804223
0.534832
0.833637
0.765066
0.815885
0.818732
0.831583
0.846741
0.817128
0.812767
0.718607
0.799157
0.852791
0.809489
0.711269
0.800367
0.802635
0.872571
0.84587
0.820019
0.802121
0.809743
0.756481
0.816522
0.814036
0.588121
0.802776
0.732038
0.750442
0.803253
0.812522
0.781162
0.821603
0.816396
0.838375
0.816919
0.800554
0.809853
0.738349
0.738204
0.80423
0.80905
0.821902
0.802404
0.752026
0.691755
0.814776
0.815352
0.814079
0.597761
0.814856
0.817431
0.825558
0.803141
0.809549
0.820535
0.811903
0.840084
0.803038
0.81275
0.824474
0.816721
0.818468
0.822201
0.692472
0.784412
0.795652
0.803225
0.848185
0.802099
0.803508
0.637308
0.811606
0.814625
0.810923
0.820019
0.805856
0.814331
0.728277
0.844225
0.706412
0.800619
0.818368
0.807322
0.660919
0.678472
0.81565
0.805755
0.804425
0.786453
0.801576
0.830018
0.814521
0.805067
0.802315
0.813345
0.62178
0.813521
0.803233
0.702405
0.816507
0.625415
0.78512
0.816587
0.838299
0.80694
0.813698
0.793497
0.796387
0.804234
0.801485
0.813185
0.811284
0.810062
0.803293
0.757334
0.804144
0.813757
0.813199
0.817016
0.812705
0.817017
0.81612
0.834787
0.740196
0.806831
0.816755
0.802634
0.546787
0.686293
0.811512
0.8145
0.816363
0.780526
0.808604
0.813043
0.803376
0.800013
0.802911
0.820651
0.821508
0.81619
0.7859
0.80905
0.8067
0.580167
0.774416
0.758395
0.807171
0.736729
0.680514
0.797897
0.76804
0.828499
0.816165
0.815911
0.808457
0.54447
0.815866
0.586654
0.70006
0.825521
0.870068
0.743531
0.817608
0.853404
0.696994
0.816463
0.809121
0.815056
0.807432
0.658251
0.855086
0.737294
0.732571
0.803416
0.804679
0.799779
0.833559
0.816372
0.693014
0.816216
0.800346
0.695958
0.840184
0.798453
0.624648
0.773395
0.816795
0.808933
0.81602
0.784526
0.727767
0.771436
0.837295
0.690096
0.817065
0.818188
0.827753
0.766229
0.822976
0.694596
0.804689
0.662498
0.702123
0.80123
0.823032
0.789575
0.81583
0.816525
0.816385
0.815238
0.581119
0.802627
0.816212
0.74442
0.810173
0.816553
0.813001
0.714352
0.689605
0.742398
0.624748
0.807436
0.683762
0.816787
0.802019
0.8162
0.837229
0.687428
0.805269
0.820651
0.833009
0.740045
0.78285
0.764924
0.773954
0.813294
0.581713
0.67484
0.816469
0.805441
0.81325
0.804669
0.715249
0.781155
0.726777
0.76058
0.799937
0.832677
0.812433
0.692701
0.824284
0.818584
0.812078
0.689696
0.690078
0.683996
0.872538
0.816992
0.817576
0.611985
0.712744
0.643452
0.803661
0.800578
0.673604
0.812185
0.82507
0.750997
0.799839
0.731589
0.815306
0.693897
0.815983
0.810613
0.802423
0.803158
0.826138
0.745415
0.81688
0.816207
0.780695
0.561565
0.816629
0.812037
0.758918
0.815127
0.747309
0.803181
0.827126
0.666525
0.819161
0.802786
0.810099
0.587757
0.649771
0.736606
0.806507
0.813189
0.811956
0.821994
0.815086
0.817069
0.705803
0.80205
0.814198
0.827064
0.704895
0.728899
0.813446
0.812673
0.698337
0.814538
0.775345
0.700218
0.812022
0.697432
0.805182
0.664342
0.802923
0.729761
0.669746
0.812258
0.786448
0.74554
0.633246
0.840685
0.821224
0.815913
0.771312
0.815445
0.80034
0.786967
0.800215
0.801799
0.816122
0.734139
0.809829
0.800304
0.819783
0.601429
0.801665
0.813951
0.814886
0.812657
0.813192
0.747309
0.80383
0.764573
0.751821
0.8196
0.651145
0.819526
0.818666
0.803153
0.8166
0.817825
0.723273
0.768502
0.823017
0.786303
0.803845
0.81705
0.875421
0.818929
0.799347
0.817896
0.816497
0.794134
0.819504
0.817806
0.773781
0.701984
0.84187
0.797144
0.803245
0.822813
0.782008
0.81888
0.82493
0.81967
0.817961
0.870954
0.803175
0.805117
0.819284
0.803166
0.816552
0.80708
0.737545
0.816465
0.820692
0.753802
0.711798
0.816339
0.843603
0.822539
0.659962
0.822693
0.774158
0.809391
0.802184
0.731218
0.803165
0.799004
0.815687
0.817856
0.696604
0.707812
0.802427
0.787743
0.801926
0.825444
0.72136
0.816198
0.802651
0.800522
0.824006
0.816589
0.715626
0.816773
0.763852
0.802552
0.832801
0.803498
0.774431
0.798005
0.794709
0.816251
0.615359
0.816179
0.692456
0.683545
0.803595
0.820526
0.816213
0.802715
0.816286
0.809246
0.726322
0.78789
0.857649
0.803089
0.834073
0.80755
0.549415
0.76219
0.781055
0.651235
0.739509
0.582465
0.820739
0.814515
0.814783
0.802553
0.767003
0.686912
0.765749
0.752319
0.782406
0.816152
0.845178
0.820369
0.805946
0.819417
0.824342
0.802885
0.807896
0.707642
0.803327
0.757309
0.808797
0.798196
0.753135
0.823082
0.788693
0.803695
0.790897
0.841463
0.728841
0.801122
0.799784
0.805007
0.619494
0.816621
0.81651
0.822115
0.636105
0.816399
0.816381
0.798851
0.803963
0.793424
0.776452
0.806601
0.795616
0.817071
0.753052
0.804793
0.875636
0.763551
0.749392
0.807962
0.784109
0.84323
0.800897
0.780779
0.816339
0.798333
0.792755
0.808176
0.826412
0.836434
0.799844
0.577323
0.821358
0.829008
0.77237
0.83151
0.838827
0.823725
0.827071
0.80739
0.833614
0.827651
0.783948
0.809245
0.812489
0.807329
0.823587
0.803473
0.82747
0.793082
0.803526
0.805873
0.728494
0.80722
0.564812
0.818959
0.826149
0.829401
0.806066
0.818383
0.824764
0.819564
0.821734
0.839452
0.833831
0.788958
0.80056
0.822605
0.816427
0.817991
0.800504
0.806492
0.865993
0.820978
0.847946
0.81617
0.800875
0.82472
0.799881
0.833615
0.814491
0.816246
0.805381
0.728404
0.803023
0.804617
0.8162
0.803402
0.802793
0.822194
0.804747
0.804267
0.778275
0.819846
0.718667
0.814396
0.781462
0.759556
0.803653
0.813413
0.819049
0.717422
0.820278
0.815332
0.82665
0.818065
0.790483
0.817357
0.847554
0.833364
0.815684
0.81185
0.801738
0.745272
0.681253
0.816267
0.820775
0.772035
0.815376
0.80791
0.812845
0.80557
0.798793
0.776462
0.802488
0.800265
0.842007
0.818395
0.811598
0.806397
0.605671
0.732756
0.80224
0.784382
0.804253
0.816701
0.806066
0.817147
0.780134
0.816323
0.804936
0.811761
0.803869
0.818804
0.803201
0.816949
0.811917
0.816869
0.813821
0.719284
0.815421
0.816777
0.59964
0.816098
0.79688
0.803008
0.859241
0.819203
0.811751
0.872855
0.816365
0.816459
0.817866
0.819774
0.816222
0.764688
0.830378
0.801543
0.803235
0.815449
0.816351
0.817755
0.816249
0.81436
0.823061
0.803985
0.81346
0.80918
0.815408
0.820093
0.816278
0.812762
0.820166
0.808974
0.693028
0.661976
0.802709
0.808805
0.803395
0.812288
0.819284
0.818021
0.802955
0.804085
0.800768
0.800979
0.817851
0.844857
0.819494
0.811717
0.819404
0.819127
0.846328
0.818399
0.821275
0.785847
0.816765
0.806836
0.801532
0.792164
0.811687
0.819427
0.816112
0.816218
0.836087
0.806991
0.813842
0.817554
0.821686
0.803554
0.803296
0.805553
0.811974
0.816205
0.801671
0.803923
0.817909
0.822611
0.800991
0.641702
0.804287
0.797571
0.817458
0.798683
0.802766
0.749241
0.841443
0.802771
0.799929
0.835466
0.830462
0.81032
0.82699
0.800638
0.818806
0.818268
0.819633
0.803636
0.819228
0.730482
0.823151
0.811555
0.800292
0.813199
0.821399
0.79919
0.804035
0.783342
0.815232
0.816483
0.816582
0.819423
0.806462
0.818053
0.816817
0.82666
0.822061
0.838302
0.806035
0.696465
0.818849
0.841078
0.820657
0.804709
0.800191
0.803456
0.817067
0.814224
0.816992
0.744133
0.740156
0.800914
0.802976
0.816678
0.81746
0.799673
0.656316
0.709487
0.808056
0.768931
0.816884
0.704129
0.803057
0.729181
0.803198
0.820155
0.803128
0.818265
0.81381
0.798581
0.808673
0.794369
0.829923
0.816604
0.801365
0.803564
0.816811
0.822456
0.750641
0.82333
0.803765
0.783165
0.816488
0.803879
0.810682
0.815772
0.816092
0.835906
0.793627
0.799153
0.816375
0.759807
0.806723
0.815895
0.801014
0.816921
0.841361
0.802365
0.843751
0.80937
0.791058
0.812915
0.802619
0.852192
0.788504
0.80316
0.817013
0.832293
0.808402
0.814764
0.816714
0.80289
0.802696
0.826027
0.783412
0.815314
0.816335
0.649404
0.816525
0.713743
0.817673
0.8388
0.825219
0.804071
0.815625
0.816249
0.726922
0.815838
0.801028
0.80163
0.800991
0.816684
0.864267
0.801343
0.80113
0.785584
0.84124
0.828015
0.820403
0.814174
0.747727
0.804248
0.803318
0.731808
0.799653
0.715514
0.811425
0.800922
0.677921
0.880569
0.703523
0.772209
0.80152
0.744737
0.808393
0.799101
0.803027
0.662063
0.796765
0.784275
0.799174
0.731152
0.819536
0.823222
0.884864
0.809468
0.831547
0.646946
0.800137
0.787573
0.746206
0.752487
0.770232
0.708198
0.803115
0.799496
0.80319
0.764355
0.629378
0.811493
0.615541
0.821776
0.823306
0.811517
0.736941
0.812654
0.796325
0.81984
0.782991
0.808069
0.797151
0.810907
0.717774
0.801571
0.723738
0.801418
0.798941
0.68928
0.803719
0.816183
0.816235
0.803092
0.762075
0.815979
0.73159
0.692078
0.802353
0.816238
0.874807
0.816152
0.815432
0.880898
0.86582
0.831368
0.716642
0.802054
0.811912
0.821531
0.798776
0.68423
0.723726
0.679945
0.802357
0.702523
0.769022
0.799543
0.622329
0.689421
0.836568
0.774494
0.746535
0.831092
0.760246
0.769133
0.652007
0.732753
0.785925
0.820306
0.869876
0.83828
0.816492
0.795348
0.799804
0.717419
0.816386
0.695425
0.797015
0.816229
0.783468
0.763403
0.802356
0.783607
0.80223
0.800847
0.8126
0.811102
0.867533
0.588495
0.545407
0.802455
0.807651
0.700247
0.810191
0.802839
0.838032
0.803493
0.802399
0.571527
0.564324
0.808408
0.813274
0.816316
0.728967
0.803154
0.811164
0.686781
0.812342
0.802723
0.814894
0.803169
0.801151
0.802278
0.815342
0.802948
0.817028
0.803286
0.862502
0.815699
0.802523
0.720783
0.67293
0.816282
0.589673
0.813369
0.810191
0.83641
0.814678
0.803097
0.810766
0.814389
0.813997
0.816013
0.801675
0.854208
0.856933
0.802469
0.659064
0.809212
0.822414
0.799437
0.803168
0.82063
0.736325
0.803234
0.825764
0.821928
0.81646
0.816143
0.767471
0.745195
0.801025
0.834553
0.803054
0.814956
0.804699
0.803915
0.805227
0.815014
0.809017
0.798944
0.806889
0.806215
0.824674
0.806698
0.80629
0.818331
0.807039
0.803358
0.814116
0.802939
0.80284
0.805819
0.808011
0.814248
0.774065
0.805342
0.802694
0.816175
0.799853
0.803767
0.80688
0.832406
0.805044
0.654626
0.800897
0.816191
0.80467
0.814786
0.763666
0.815992
0.751685
0.803673
0.802238
0.804071
0.819066
0.85152
0.804376
0.803247
0.746696
0.830174
0.816137
0.821083
0.824955
0.815492
0.738323
0.818849
0.724681
0.801103
0.828191
0.802445
0.703516
0.826458
0.815404
0.817188
0.824749
0.816476
0.773722
0.817937
0.654126
0.713715
0.816226
0.823262
0.680801
0.820028
0.660497
0.822098
0.807034
0.817471
0.803166
0.805826
0.815575
0.831901
0.825137
0.671684
0.814209
0.842578
0.781751
0.846804
0.800268
0.709159
0.839079
0.820243
0.836143
0.692334
0.688227
0.833496
0.663687
0.83123
0.816227
0.829227
0.806336
0.827535
0.787891
0.826055
0.824688
0.710631
0.866071
0.823517
0.822529
0.823658
0.760345
0.802869
0.531548
0.804013
0.821672
0.814637
0.804812
0.826586
0.816214
0.79825
0.820921
0.802996
0.685561
0.792551
0.834405
0.815551
0.718471
0.800147
0.821616
0.580811
0.815878
0.816658
0.802716
0.809985
0.728355
0.818566
0.803025
0.803496
0.796065
0.794901
0.798013
0.794745
0.80327
0.813612
0.819389
0.815168
0.576108
0.893254
0.708844
0.797953
0.741422
0.791572
0.816187
0.816753
0.816654
0.607664
0.819794
0.817279
0.804011
0.818745
0.836903
0.839722
0.783042
0.798474
0.799537
0.727869
0.754246
0.816369
0.764954
0.815253
0.81993
0.815937
0.813571
0.801948
0.776482
0.812132
0.817136
0.729506
0.81068
0.816934
0.819038
0.807921
0.80956
0.766032
0.81578
0.808289
0.803191
0.807527
0.619802
0.806599
0.804433
0.806016
0.82213
0.845791
0.804809
0.775532
0.80538
0.771793
0.821114
0.806762
0.813965
0.816199
0.85042
0.803429
0.744882
0.819868
0.81637
0.728573
0.801175
0.81727
0.758785
0.813847
0.572917
0.80671
0.687259
0.801482
0.811721
0.813529
0.818203
0.804265
0.816522
0.818633
0.801226
0.804634
0.844694
0.817177
0.796324
0.8171
0.802273
0.80184
0.80047
0.801446
0.807973
0.815782
0.801803
0.771326
0.81934
0.813531
0.808939
0.816207
0.590122
0.803457
0.813748
0.816404
0.788539
0.749804
0.718187
0.813701
0.81605
0.826674
0.790429
0.606166
0.772455
0.644509
0.817741
0.744879
0.81343
0.830512
0.699135
0.799909
0.834484
0.751353
0.800639
0.803177
0.816574
0.802973
0.700361
0.80088
0.55429
0.80198
0.802548
0.802237
0.606739
0.802953
0.80348
0.80321
0.72974
0.738667
0.803455
0.777343
0.816711
0.723507
0.708173
0.816159
0.801389
0.753703
0.854536
0.815025
0.813481
0.67134
0.802838
0.800723
0.800652
0.802522
0.659296
0.803324
0.816405
0.656534
0.687193
0.805927
0.791237
0.816274
0.82372
0.816064
0.816278
0.817432
0.803689
0.816331
0.815991
0.814008
0.829486
0.802715
0.801949
0.810568
0.729647
0.809642
0.815848
0.863146
0.811634
0.640447
0.775924
0.802298
0.776463
0.817688
0.812854
0.830534
0.814295
0.864949
0.80223
0.81564
0.597196
0.815879
0.834356
0.80294
0.815448
0.627716
0.816332
0.802713
0.817645
0.8023
0.818463
0.816977
0.754502
0.803608
0.803142
0.835633
0.862295
0.819786
0.817127
0.724332
0.74361
0.802582
0.803111
0.812271
0.818975
0.799776
0.802939
0.820341
0.807414
0.807616
0.739027
0.802765
0.818384
0.814803
0.76894
0.760396
0.812652
0.796519
0.857438
0.720046
0.835124
0.811936
0.710207
0.799795
0.815497
0.787506
0.800857
0.799787
0.81613
0.778363
0.774471
0.814515
0.696287
0.798917
0.766686
0.816014
0.818238
0.802143
0.788504
0.739955
0.753602
0.774827
0.815768
0.819847
0.806675
0.669964
0.802936
0.796614
0.777942
0.809811
0.814063
0.799645
0.803436
0.639144
0.804271
0.804885
0.851821
0.803753
0.809281
0.833891
0.805559
0.811108
0.852704
0.617257
0.804083
0.817182
0.805461
0.805071
0.805767
0.804627
0.804736
0.804245
0.805858
0.80657
0.726258
0.805754
0.807257
0.807538
0.816087
0.808375
0.81926
0.803125
0.803547
0.815739
0.815885
0.811055
0.803348
0.816301
0.813407
0.810563
0.817034
0.710373
0.81502
0.832131
0.816039
0.854772
0.750738
0.808993
0.816168
0.801147
0.621385
0.803291
0.773212
0.82273
0.629326
0.816649
0.830182
0.815814
0.812638
0.8022
0.827361
0.819814
0.803718
0.765697
0.818046
0.758787
0.551827
0.815534
0.692594
0.697353
0.820472
0.828338
0.828197
0.817668
0.848065
0.584234
0.877171
0.805315
0.826668
0.82503
0.814005
0.684556
0.816023
0.823522
0.817403
0.801351
0.773728
0.822349
0.569977
0.813925
0.843756
0.803172
0.840231
0.822313
0.803268
0.672614
0.843648
0.821283
0.837077
0.801077
0.81466
0.803075
0.834473
0.8029
0.814618
0.832076
0.829956
0.822108
0.825103
0.831062
0.738672
0.665691
0.571809
0.828136
0.826635
0.76792
0.757413
0.807347
0.825228
0.847066
0.595883
0.823967
0.822897
0.822005
0.820514
0.804029
0.820867
0.662975
0.745684
0.821223
0.797722
0.870493
0.890397
0.776809
0.80487
0.671215
0.835749
0.732683
0.721563
0.819223
0.801751
0.783727
0.666881
0.802252
0.816204
0.789064
0.715007
0.801441
0.817245
0.798106
0.682266
0.824031
0.792937
0.816814
0.833944
0.815248
0.796674
0.817225
0.817002
0.785999
0.804115
0.713906
0.840852
0.793197
0.812058
0.782225
0.80451
0.70029
0.800952
0.813585
0.812216
0.81105
0.809537
0.808444
0.807686
0.806064
0.804949
0.806868
0.727859
0.8055
0.801542
0.796004
0.803367
0.844698
0.718026
0.80324
0.776335
0.884239
0.85475
0.798077
0.725926
0.803531
0.797762
0.721021
0.80338
0.801906
0.736302
0.803724
0.790963
0.797629
0.801289
0.738197
0.780816
0.805349
0.748939
0.764654
0.770678
0.801606
0.815764
0.808682
0.760082
0.751725
0.799579
0.814903
0.803346
0.793672
0.801232
0.928709
0.860934
0.81861
0.816081
0.723062
0.844881
0.748617
0.8263
0.817107
0.898361
0.816226
0.79747
0.591802
0.816246
0.797586
0.81627
0.798004
0.846008
0.529006
0.833495
0.80159
0.805782
0.804953
0.803958
0.856241
0.801421
0.818368
0.702901
0.666665
0.668256
0.816303
0.510449
0.797986
0.72374
0.842271
0.815013
0.561794
0.802758
0.815712
0.81541
0.720249
0.801902
0.528518
0.797531
0.816415
0.797653
0.802801
0.797893
0.816561
0.834437
0.803258
0.798596
0.816917
0.798862
0.817055
0.814325
0.799148
0.817214
0.814878
0.8174
0.799261
0.81761
0.681055
0.799458
0.817848
0.803099
0.799649
0.818087
0.700373
0.816224
0.798509
0.816208
0.798618
0.811023
0.83866
0.861759
0.801094
0.800735
0.818986
0.815541
0.800377
0.800002
0.86389
0.812917
0.818672
0.811476
0.85037
0.82929
0.817646
0.825994
0.846799
0.816172
0.801866
0.820179
0.812264
0.802294
0.816042
0.800288
0.808167