# vtk DataFile Version 1.0
unstructured grid
ascii
DATASET UNSTRUCTURED_GRID
points 3920 float
-1 0 0
-1 1 0
2 0 0
2 1 0
0 0 0
1 0 0
-1 1 0.1
-1 0 0.1
0 0 0.1
1 0 0.1
2 0 0.1
2 1 0.1
-0.98 0 0
-0.96 0 0
-0.94 0 0
-0.92 0 0
-0.9 0 0
-0.88 0 0
-0.86 0 0
-0.84 0 0
-0.82 0 0
-0.8 0 0
-0.78 0 0
-0.76 0 0
-0.74 0 0
-0.72 0 0
-0.7 0 0
-0.68 0 0
-0.66 0 0
-0.64 0 0
-0.62 0 0
-0.6 0 0
-0.58 0 0
-0.56 0 0
-0.54 0 0
-0.52 0 0
-0.5 0 0
-0.48 0 0
-0.46 0 0
-0.44 0 0
-0.42 0 0
-0.4 0 0
-0.38 0 0
-0.36 0 0
-0.34 0 0
-0.32 0 0
-0.3 0 0
-0.28 0 0
-0.26 0 0
-0.24 0 0
-0.22 0 0
-0.2 0 0
-0.18 0 0
-0.16 0 0
-0.14 0 0
-0.12 0 0
-0.1 0 0
-0.08 0 0
-0.06 0 0
-0.04 0 0
-0.02 0 0
1.02 0 0
1.04 0 0
1.06 0 0
1.08 0 0
1.1 0 0
1.12 0 0
1.14 0 0
1.16 0 0
1.18 0 0
1.2 0 0
1.22 0 0
1.24 0 0
1.26 0 0
1.28 0 0
1.3 0 0
1.32 0 0
1.34 0 0
1.36 0 0
1.38 0 0
1.4 0 0
1.42 0 0
1.44 0 0
1.46 0 0
1.48 0 0
1.5 0 0
1.52 0 0
1.54 0 0
1.56 0 0
1.58 0 0
1.6 0 0
1.62 0 0
1.64 0 0
1.66 0 0
1.68 0 0
1.7 0 0
1.72 0 0
1.74 0 0
1.76 0 0
1.78 0 0
1.8 0 0
1.82 0 0
1.84 0 0
1.86 0 0
1.88 0 0
1.9 0 0
1.92 0 0
1.94 0 0
1.96 0 0
1.98 0 0
2 0.0199133 0
2 0.0414128 0
2 0.0646247 0
2 0.0896856 0
2 0.116743 0
2 0.145955 0
2 0.177494 0
2 0.211545 0
2 0.248309 0
2 0.288001 0
2 0.330854 0
2 0.377121 0
2 0.427073 0
2 0.481004 0
2 0.539231 0
2 0.602096 0
2 0.669968 0
2 0.743247 0
2 0.822362 0
2 0.907779 0
1.9 1 0
1.8 1 0
1.7 1 0
1.6 1 0
1.5 1 0
1.4 1 0
1.3 1 0
1.2 1 0
1.1 1 0
1 1 0
0.9 1 0
0.8 1 0
0.7 1 0
0.6 1 0
0.5 1 0
0.4 1 0
0.3 1 0
0.2 1 0
0.1 1 0
3.69793e-12 1 0
-0.1 1 0
-0.2 1 0
-0.3 1 0
-0.4 1 0
-0.5 1 0
-0.6 1 0
-0.7 1 0
-0.8 1 0
-0.9 1 0
-1 0.907779 0
-1 0.822362 0
-1 0.743247 0
-1 0.669968 0
-1 0.602096 0
-1 0.539231 0
-1 0.481004 0
-1 0.427073 0
-1 0.377121 0
-1 0.330854 0
-1 0.288001 0
-1 0.248309 0
-1 0.211545 0
-1 0.177494 0
-1 0.145955 0
-1 0.116743 0
-1 0.0896856 0
-1 0.0646247 0
-1 0.0414128 0
-1 0.0199133 0
0.0182781 0.00745351 0
0.0366672 0.0146286 0
0.0551632 0.0215237 0
0.0737617 0.0281372 0
0.0924585 0.0344675 0
0.111249 0.0405131 0
0.13013 0.0462728 0
0.149095 0.0517451 0
0.168142 0.0569289 0
0.187265 0.0618228 0
0.20646 0.0664258 0
0.225723 0.0707368 0
0.245049 0.0747549 0
0.264434 0.078479 0
0.283873 0.0819084 0
0.303362 0.0850422 0
0.322896 0.0878798 0
0.342472 0.0904204 0
0.362083 0.0926635 0
0.381726 0.0946086 0
0.401397 0.0962552 0
0.42109 0.0976029 0
0.440802 0.0986514 0
0.460527 0.0994006 0
0.480261 0.0998501 0
0.5 0.1 0
0.519739 0.0998501 0
0.539473 0.0994006 0
0.559198 0.0986514 0
0.57891 0.0976029 0
0.598603 0.0962552 0
0.618274 0.0946086 0
0.637917 0.0926635 0
0.657528 0.0904204 0
0.677104 0.0878798 0
0.696638 0.0850422 0
0.716127 0.0819084 0
0.735566 0.078479 0
0.754951 0.0747549 0
0.774277 0.0707368 0
0.79354 0.0664258 0
0.812735 0.0618228 0
0.831858 0.0569289 0
0.850905 0.0517451 0
0.86987 0.0462728 0
0.888751 0.0405131 0
0.907542 0.0344675 0
0.926238 0.0281372 0
0.944837 0.0215237 0
0.963333 0.0146286 0
0.981722 0.00745351 0
-1 0.907779 0.1
-1 0.822362 0.1
-1 0.743247 0.1
-1 0.669968 0.1
-1 0.602096 0.1
-1 0.539231 0.1
-1 0.481004 0.1
-1 0.427073 0.1
-1 0.377121 0.1
-1 0.330854 0.1
-1 0.288001 0.1
-1 0.248309 0.1
-1 0.211545 0.1
-1 0.177494 0.1
-1 0.145955 0.1
-1 0.116743 0.1
-1 0.0896856 0.1
-1 0.0646247 0.1
-1 0.0414128 0.1
-1 0.0199133 0.1
-0.98 0 0.1
-0.96 0 0.1
-0.94 0 0.1
-0.92 0 0.1
-0.9 0 0.1
-0.88 0 0.1
-0.86 0 0.1
-0.84 0 0.1
-0.82 0 0.1
-0.8 0 0.1
-0.78 0 0.1
-0.76 0 0.1
-0.74 0 0.1
-0.72 0 0.1
-0.7 0 0.1
-0.68 0 0.1
-0.66 0 0.1
-0.64 0 0.1
-0.62 0 0.1
-0.6 0 0.1
-0.58 0 0.1
-0.56 0 0.1
-0.54 0 0.1
-0.52 0 0.1
-0.5 0 0.1
-0.48 0 0.1
-0.46 0 0.1
-0.44 0 0.1
-0.42 0 0.1
-0.4 0 0.1
-0.38 0 0.1
-0.36 0 0.1
-0.34 0 0.1
-0.32 0 0.1
-0.3 0 0.1
-0.28 0 0.1
-0.26 0 0.1
-0.24 0 0.1
-0.22 0 0.1
-0.2 0 0.1
-0.18 0 0.1
-0.16 0 0.1
-0.14 0 0.1
-0.12 0 0.1
-0.1 0 0.1
-0.08 0 0.1
-0.06 0 0.1
-0.04 0 0.1
-0.02 0 0.1
0.0182781 0.00745351 0.1
0.0366672 0.0146286 0.1
0.0551632 0.0215237 0.1
0.0737617 0.0281372 0.1
0.0924585 0.0344675 0.1
0.111249 0.0405131 0.1
0.13013 0.0462728 0.1
0.149095 0.0517451 0.1
0.168142 0.0569289 0.1
0.187265 0.0618228 0.1
0.20646 0.0664258 0.1
0.225723 0.0707368 0.1
0.245049 0.0747549 0.1
0.264434 0.078479 0.1
0.283873 0.0819084 0.1
0.303362 0.0850422 0.1
0.322896 0.0878798 0.1
0.342472 0.0904204 0.1
0.362083 0.0926635 0.1
0.381726 0.0946086 0.1
0.401397 0.0962552 0.1
0.42109 0.0976029 0.1
0.440802 0.0986514 0.1
0.460527 0.0994006 0.1
0.480261 0.0998501 0.1
0.5 0.1 0.1
0.519739 0.0998501 0.1
0.539473 0.0994006 0.1
0.559198 0.0986514 0.1
0.57891 0.0976029 0.1
0.598603 0.0962552 0.1
0.618274 0.0946086 0.1
0.637917 0.0926635 0.1
0.657528 0.0904204 0.1
0.677104 0.0878798 0.1
0.696638 0.0850422 0.1
0.716127 0.0819084 0.1
0.735566 0.078479 0.1
0.754951 0.0747549 0.1
0.774277 0.0707368 0.1
0.79354 0.0664258 0.1
0.812735 0.0618228 0.1
0.831858 0.0569289 0.1
0.850905 0.0517451 0.1
0.86987 0.0462728 0.1
0.888751 0.0405131 0.1
0.907542 0.0344675 0.1
0.926238 0.0281372 0.1
0.944837 0.0215237 0.1
0.963333 0.0146286 0.1
0.981722 0.00745351 0.1
1.02 0 0.1
1.04 0 0.1
1.06 0 0.1
1.08 0 0.1
1.1 0 0.1
1.12 0 0.1
1.14 0 0.1
1.16 0 0.1
1.18 0 0.1
1.2 0 0.1
1.22 0 0.1
1.24 0 0.1
1.26 0 0.1
1.28 0 0.1
1.3 0 0.1
1.32 0 0.1
1.34 0 0.1
1.36 0 0.1
1.38 0 0.1
1.4 0 0.1
1.42 0 0.1
1.44 0 0.1
1.46 0 0.1
1.48 0 0.1
1.5 0 0.1
1.52 0 0.1
1.54 0 0.1
1.56 0 0.1
1.58 0 0.1
1.6 0 0.1
1.62 0 0.1
1.64 0 0.1
1.66 0 0.1
1.68 0 0.1
1.7 0 0.1
1.72 0 0.1
1.74 0 0.1
1.76 0 0.1
1.78 0 0.1
1.8 0 0.1
1.82 0 0.1
1.84 0 0.1
1.86 0 0.1
1.88 0 0.1
1.9 0 0.1
1.92 0 0.1
1.94 0 0.1
1.96 0 0.1
1.98 0 0.1
2 0.0199133 0.1
2 0.0414128 0.1
2 0.0646247 0.1
2 0.0896856 0.1
2 0.116743 0.1
2 0.145955 0.1
2 0.177494 0.1
2 0.211545 0.1
2 0.248309 0.1
2 0.288001 0.1
2 0.330854 0.1
2 0.377121 0.1
2 0.427073 0.1
2 0.481004 0.1
2 0.539231 0.1
2 0.602096 0.1
2 0.669968 0.1
2 0.743247 0.1
2 0.822362 0.1
2 0.907779 0.1
1.9 1 0.1
1.8 1 0.1
1.7 1 0.1
1.6 1 0.1
1.5 1 0.1
1.4 1 0.1
1.3 1 0.1
1.2 1 0.1
1.1 1 0.1
1 1 0.1
0.9 1 0.1
0.8 1 0.1
0.7 1 0.1
0.6 1 0.1
0.5 1 0.1
0.4 1 0.1
0.3 1 0.1
0.2 1 0.1
0.1 1 0.1
3.69793e-12 1 0.1
-0.1 1 0.1
-0.2 1 0.1
-0.3 1 0.1
-0.4 1 0.1
-0.5 1 0.1
-0.6 1 0.1
-0.7 1 0.1
-0.8 1 0.1
-0.9 1 0.1
1.08758 0.0158154 0
-0.0898513 0.0203294 0
0.0966181 0.0537636 0
0.90205 0.0548881 0
1.21055 0.0202058 0
-0.209811 0.0159577 0
1.3305 0.0176902 0
-0.33 0.0173205 0
1.45324 0.0148141 0
-0.448654 0.0159854 0
1.56842 0.0191785 0
-0.569936 0.0166364 0
0.193292 0.0805369 0
0.805051 0.0813623 0
0.709096 0.100353 0
0.288591 0.0996656 0
0.390184 0.111848 0
0.61033 0.111742 0
0.488809 0.116278 0
1.67175 0.0169692 0
-0.67 0.0169809 0
-0.955017 0.454039 0
1.95131 0.44569 0
1.74981 0.0168753 0
-0.75 0.0173205 0
-0.968032 0.266538 0
1.96871 0.266267 0
0.978232 0.0305687 0
0.0208675 0.026451 0
-0.150454 0.91842 0
1.13854 0.907437 0
1.45012 0.904365 0
-0.445923 0.908903 0
-0.853423 0.0157019 0
1.84881 0.016319 0
0.853689 0.915652 0
0.153944 0.912184 0
0.545151 0.914125 0
0.549913 0.115152 0
1.51 0.0173205 0
-0.506989 0.01651 0
1.27 0.0173205 0
1.14976 0.0173333 0
-0.268171 0.0206442 0
-0.150501 0.0153244 0
-0.391384 0.0153993 0
1.38886 0.0171544 0
-0.973694 0.161724 0
1.97441 0.162392 0
-0.945221 0.633523 0
1.94544 0.63312 0
1.91008 0.0186068 0
-0.91 0.0169616 0
-0.030664 0.0194327 0
1.03074 0.0165456 0
-0.966065 0.353575 0
1.96128 0.359765 0
1.93879 0.781254 0
-0.937057 0.781882 0
-0.980746 0.080709 0
1.9772 0.0760699 0
0.058735 0.0409372 0
0.355202 0.913001 0
0.86356 0.0661005 0
0.134223 0.0651111 0
0.941972 0.0397386 0
-0.653034 0.915003 0
1.65328 0.904589 0
0.770126 0.0881325 0
0.232946 0.0902008 0
0.330582 0.105648 0
0.670612 0.108365 0
0.428707 0.116145 0
1.80993 0.016629 0
-0.810168 0.0172178 0
-0.71 0.0173205 0
1.63047 0.0175504 0
1.70842 0.0169661 0
-0.628824 0.0181787 0
-0.949815 0.0133898 0
1.95 0.0173205 0
1.85542 0.907891 0
-0.85 0.913397 0
1.9833 0.0307692 0
-0.983315 0.0309709 0
-0.750025 0.916468 0
-0.701107 0.836904 0
-0.607741 0.836428 0
-0.656448 0.759827 0
-0.572936 0.758144 0
-0.61411 0.691195 0
-0.539534 0.689068 0
-0.578542 0.626111 0
-0.507461 0.624216 0
-0.544001 0.566638 0
-0.477696 0.564279 0
-0.511582 0.51001 0
-0.451689 0.507147 0
-0.481834 0.457732 0
-0.426137 0.454624 0
-0.453236 0.407539 0
-0.398845 0.406233 0
-0.507958 0.409496 0
-0.368427 0.460177 0
-0.344602 0.405209 0
-0.315696 0.447824 0
-0.294128 0.402169 0
-0.262844 0.444518 0
-0.241968 0.388746 0
-0.209878 0.439557 0
-0.185184 0.391135 0
-0.156687 0.437338 0
-0.133719 0.390776 0
-0.104405 0.434306 0
-0.0818745 0.388334 0
-0.0528785 0.431165 0
-0.0305984 0.385639 0
-0.00180552 0.427863 0
0.0194564 0.382608 0
0.0485809 0.42449 0
0.0701962 0.37973 0
0.0985483 0.421145 0
0.119893 0.377339 0
0.147837 0.417911 0
0.172552 0.36751 0
0.197018 0.412597 0
0.221203 0.37141 0
0.24512 0.409646 0
-0.48178 0.364657 0
-0.531053 0.364782 0
-0.0599102 0.344151 0
-0.324909 0.359566 0
0.266181 0.368462 0
0.292132 0.407649 0
0.311992 0.365779 0
0.338918 0.404821 0
0.357567 0.355909 0
0.384723 0.40053 0
0.404675 0.359681 0
0.430617 0.398558 0
0.450457 0.35827 0
0.474237 0.395182 0
0.496746 0.34898 0
0.520548 0.397931 0
0.542071 0.353121 0
0.566011 0.389914 0
0.585061 0.350856 0
0.609352 0.38696 0
0.629069 0.348168 0
0.655979 0.391217 0
0.67472 0.346182 0
0.699346 0.381414 0
0.719333 0.341965 0
0.743718 0.377547 0
0.764028 0.339036 0
0.788201 0.373582 0
0.807659 0.336101 0
0.832821 0.372249 0
0.852309 0.334017 0
0.877785 0.370339 0
0.897875 0.331141 0
0.922904 0.366281 0
0.943173 0.327335 0
0.968282 0.363358 0
0.989029 0.324222 0
1.01391 0.361511 0
1.03465 0.321428 0
1.05949 0.358447 0
1.08389 0.312052 0
1.10575 0.355104 0
1.12889 0.31562 0
1.15067 0.353235 0
1.17157 0.312819 0
1.19626 0.349369 0
1.21618 0.309863 0
1.2416 0.346914 0
1.26131 0.30715 0
1.28691 0.344312 0
1.30571 0.303752 0
1.33144 0.341222 0
1.35018 0.300911 0
1.3758 0.338308 0
1.39501 0.298931 0
1.42015 0.335235 0
1.43904 0.296349 0
1.46355 0.330194 0
1.48256 0.293347 0
1.50685 0.326967 0
1.52589 0.29055 0
1.54996 0.325305 0
1.56909 0.287929 0
[...]
CELL_DATA 3694
SCALARS rho float
LOOKUP_TABLE default
0.736009
0.672113
0.803805
0.813884
0.826942
0.805123
0.791678
0.800039
0.810731
0.802744
0.818033
0.818025
0.840541
0.789438
0.800826
0.751637
0.803278
0.802985
0.761136
0.850241
0.817747
0.823607
0.699732
0.803393
0.696346
0.839466
0.720371
0.806337
0.837117
0.79863
0.798818
0.718657
0.803515
0.824751
0.802857
0.798042
0.837446
0.823388
0.825246
0.778144
0.804671
0.817391
0.834453
0.825329
0.805159
0.813777
0.800894
0.672013
0.68041
0.722682
0.802066
0.802932
0.847023
0.80208
0.634297
0.838348
0.802681
0.819547
0.83268
0.754749
0.796308
0.816014
0.842411
0.799654
0.842969
0.831276
0.807643
0.81446
0.736432
0.858551
0.803153
0.8076
0.823629
0.803242
0.824984
0.80291
0.814191
0.799676
0.814658
0.802748
0.71567
0.818427
0.802313
0.776757
0.810513
0.799632
0.818897
0.716681
0.735854
0.82546
0.799743
0.802433
0.820556
0.815959
0.675957
0.806539
0.723875
0.818496
0.813145
0.840283
0.815473
0.763467
0.717993
0.810512
0.809951
0.816009
0.818477
0.807037
0.716513
0.815072
0.799284
0.724355
0.720394
0.823863
0.868104
0.80225
0.800317
0.812949
0.80314
0.80215
0.765788
0.822517
0.820278
0.770526
0.703816
0.758947
0.818119
0.777714
0.8438
0.702549
0.767298
0.800405
0.807948
0.777837
0.801005
0.796118
0.805475
0.802418
0.798027
0.815397
0.814521
0.711868
0.817675
0.814521
0.758055
0.674015
0.678137
0.798164
0.816836
0.813122
0.745471
0.802717
0.559646
0.779181
0.689057
0.764366
0.714411
0.784326
0.608459
0.793132
0.837548
0.646117
0.782244
0.737852
0.844483
0.557723
0.817286
0.800454
0.802954
0.674435
0.801551
0.664232
0.85808
0.545482
0.79991
0.638768
0.872706
0.833785
0.821234
0.745081
0.814836
0.721423
0.827475
0.737292
0.64984
0.803114
0.67859
0.823985
0.801694
0.851276
0.791828
0.702834
0.815745
0.798432
0.743007
0.853074
0.811419
0.849074
0.737369
0.744078
0.771238
0.794353
0.832202
0.834265
0.816887
0.815025
0.670915
0.804638
0.728262
0.80321
0.711155
0.797852
0.795677
0.801531
0.826287
0.764612
0.830925
0.750196
0.82623
0.820432
0.816795
0.853296
0.82949
0.705795
0.82762
0.684034
0.787915
0.810646
0.851444
0.830668
0.80905
0.79454
0.746408
0.818379
0.837117
0.818201
0.716525
0.800435
0.697737
0.792895
0.795534
0.810698
0.64074
0.807644
0.758632
0.797901
0.803111
0.759993
0.816121
0.865999
0.784175
0.690863
0.804458
0.801732
0.648509
0.793048
0.778166
0.802348
0.839275
0.815761
0.610226
0.816122
0.810153
0.797588
0.816366
0.802682
0.815391
0.815051
0.835658
0.756986
0.801891
0.835332
0.810565
0.80315
0.796174
0.81594
0.728231
0.589709
0.817637
0.829653
0.821101
0.804436
0.684823
0.816363
0.816117
0.817388
0.71555
0.797743
0.816034
0.549894
0.802843
0.869331
0.681273
0.757498
0.839102
0.82743
0.815789
0.705971
0.809451
0.81603
0.803844
0.801779
0.812164
0.836966
0.817449
0.767541
0.807055
0.803077
0.647883
0.821704
0.828442
0.673473
0.791716
0.819614
0.820889
0.680446
0.675331
0.822113
0.824702
0.809585
0.733146
0.708165
0.71487
0.734359
0.821014
0.77754
0.804193
0.734226
0.742009
0.823161
0.810961
0.819294
0.770616
0.816119
0.814771
0.818156
0.816786
0.802772
0.807642
0.803984
0.690334
0.80274
0.812877
0.698065
0.807292
0.805142
0.820179
0.785972
0.805974
0.791936
0.81592
0.821694
0.820906
0.798321
0.685224
0.713389
0.799459
0.810912
0.626187
0.803909
0.80762
0.817305
0.74422
0.804285
0.817165
0.812482
0.81861
0.805068
0.79737
0.765298
0.804452
0.843961
0.820194
0.705754
0.803754
0.704668
0.704056
0.80311
0.616354
0.770932
0.784946
0.808057
0.814459
0.825826
0.81791
0.813239
0.820916
0.828824
0.802845
0.765436
0.80979
0.660991
0.819981
0.758036
0.729271
0.691323
0.814909
0.854284
0.820006
0.808908
0.822244
0.816268
0.787032
0.759286
0.81044
0.69428
0.791297
0.843922
0.826626
0.800842
0.864342
0.81342
0.817245
0.818367
0.831072
0.632875
0.799384
0.733143
0.798075
0.734919
0.819579
0.808697
0.787921
0.680989
0.815802
0.83009
0.812838
0.802993
0.803803
0.825007
0.803886
0.713391
0.790398
0.803117
0.815747
0.814784
0.813461
0.871892
0.828414
0.809423
0.832658
0.683799
0.824089
0.838121
0.81708
0.629359
0.81625
0.80927
0.84593
0.822082
0.802961
0.594656
0.810183
0.698396
0.806143
0.802905
0.812367
0.814583
0.825255
0.805104
0.811257
0.816879
0.726333
0.863254
0.802011
0.850586
0.817232
0.578008
0.803929
0.796784
0.812514
0.818484
0.656028
0.802849
0.809684
0.813071
0.807155
0.793959
0.81654
0.818125
0.796944
0.804077
0.822148
0.837278
0.732289
0.806324
0.809847
0.813988
0.68374
0.805324
0.816747
0.79941
0.804188
0.532439
0.833491
0.764791
0.815701
0.818555
0.831436
0.846626
0.81695
0.812581
0.718198
0.799105
0.85269
0.809304
0.711018
0.800323
0.802629
0.87248
0.845744
0.819845
0.802099
0.809718
0.756276
0.816339
0.813989
0.587552
0.802746
0.731598
0.750398
0.803216
0.812337
0.781125
0.821547
0.816212
0.838313
0.816744
0.800534
0.809676
0.738389
0.737939
0.804211
0.808867
0.821742
0.802362
0.75198
0.691236
0.814591
0.815307
0.814052
0.597214
0.814671
0.817275
0.825397
0.803118
0.809377
0.820367
0.811879
0.839949
0.803028
0.812724
0.824321
0.816537
0.818319
0.822056
0.691864
0.784367
0.795482
0.803204
0.848061
0.802093
0.803345
0.636925
0.81145
0.814442
0.810881
0.819845
0.805836
0.814146
0.728044
0.844096
0.706556
0.800572
0.818189
0.807299
0.659745
0.679161
0.815594
0.805734
0.804384
0.786247
0.801568
0.829868
0.814342
0.805047
0.802278
0.813162
0.621391
0.813337
0.803192
0.701803
0.816332
0.624098
0.784899
0.816406
0.838183
0.806753
0.813513
0.793293
0.796213
0.804192
0.801477
0.812999
0.811242
0.809876
0.803283
0.757326
0.80413
0.813572
0.813013
0.816857
0.812519
0.816835
0.815936
0.834668
0.739866
0.806794
0.816573
0.802593
0.546025
0.685626
0.811456
0.814314
0.81618
0.780491
0.808547
0.812987
0.803336
0.799994
0.802874
0.820502
0.821356
0.816006
0.785692
0.808875
0.806512
0.574553
0.774325
0.758221
0.807026
0.736509
0.679758
0.797844
0.767955
0.828347
0.815981
0.815726
0.808433
0.54372
0.81581
0.586086
0.699413
0.825359
0.86998
0.743159
0.81743
0.853289
0.696619
0.816282
0.809094
0.815015
0.807394
0.657877
0.854971
0.737302
0.732131
0.803396
0.804661
0.799735
0.833517
0.816188
0.692646
0.816065
0.800335
0.695283
0.840049
0.798399
0.624179
0.773304
0.816613
0.808748
0.815835
0.784501
0.727331
0.77118
0.837233
0.689808
0.816883
0.818022
0.827595
0.766038
0.822809
0.694077
0.804669
0.662143
0.70185
0.801074
0.822974
0.789364
0.815645
0.816342
0.816201
0.815053
0.580445
0.802613
0.816028
0.744206
0.810151
0.81637
0.812815
0.714509
0.690025
0.742182
0.623997
0.807393
0.683363
0.816604
0.801997
0.816016
0.837173
0.687571
0.805108
0.820488
0.832888
0.739652
0.782644
0.764901
0.773773
0.813118
0.578491
0.674929
0.816285
0.80542
0.813075
0.80465
0.714817
0.78098
0.726411
0.760564
0.799884
0.83253
0.812391
0.692425
0.824119
0.818433
0.811892
0.689036
0.690488
0.683555
0.872445
0.81681
0.817403
0.611449
0.712479
0.643058
0.80362
0.800542
0.673262
0.812137
0.824941
0.750656
0.799781
0.7313
0.815122
0.693617
0.815798
0.810585
0.802242
0.803147
0.82601
0.745192
0.816697
0.816022
0.780634
0.560048
0.816572
0.811852
0.758746
0.814942
0.747321
0.803135
0.826985
0.665379
0.818984
0.802773
0.810068
0.587012
0.647592
0.736341
0.806485
0.813006
0.81177
0.821825
0.815031
0.816887
0.70554
0.802029
0.814017
0.826908
0.704625
0.728442
0.813261
0.812512
0.697953
0.814492
0.775166
0.7005
0.811997
0.697148
0.805002
0.663987
0.802918
0.729827
0.669228
0.812074
0.7864
0.745283
0.632851
0.840562
0.821183
0.815736
0.771124
0.815261
0.8003
0.786797
0.800168
0.801782
0.815947
0.733713
0.809805
0.80026
0.819608
0.600878
0.801618
0.813772
0.814708
0.812475
0.813011
0.747134
0.803664
0.764491
0.751642
0.819427
0.650369
0.819353
0.818492
0.803143
0.816423
0.817649
0.722844
0.768486
0.822851
0.786115
0.803829
0.816872
0.875337
0.81876
0.799152
0.817716
0.816314
0.794107
0.819329
0.817638
0.773691
0.70136
0.841737
0.797117
0.803236
0.822765
0.781834
0.818703
0.824897
0.819495
0.817782
0.870859
0.803166
0.805077
0.819108
0.803157
0.81637
0.807058
0.737258
0.816283
0.820519
0.753795
0.71125
0.816157
0.843539
0.822496
0.658902
0.822525
0.774076
0.809206
0.802142
0.730931
0.80316
0.798953
0.815646
0.817685
0.696204
0.707266
0.802393
0.787712
0.801873
0.825315
0.721464
0.816013
0.802615
0.800468
0.823877
0.816405
0.715157
0.816591
0.763735
0.802536
0.83275
0.803478
0.774225
0.797976
0.794686
0.816067
0.611256
0.815995
0.692855
0.682727
0.803577
0.820353
0.816029
0.802692
0.816102
0.809084
0.725921
0.787848
0.85754
0.803081
0.833952
0.807526
0.548172
0.762182
0.780825
0.650598
0.739172
0.581769
0.820607
0.81433
0.814621
0.802534
0.766962
0.686508
0.765497
0.752306
0.782347
0.815967
0.845119
0.820195
0.805926
0.819384
0.824213
0.802848
0.807842
0.707227
0.803299
0.757109
0.808775
0.798142
0.752847
0.822935
0.788648
0.803673
0.790689
0.841344
0.728696
0.801084
0.799731
0.804988
0.619103
0.816438
0.816326
0.822058
0.635254
0.816215
0.816198
0.7988
0.803946
0.793389
0.776225
0.806544
0.795422
0.816888
0.75305
0.80461
0.875552
0.76341
0.749114
0.807784
0.784083
0.8431
0.80071
0.780548
0.81617
0.79831
0.792718
0.808155
0.826252
0.836294
0.799825
0.576689
0.821189
0.828858
0.772324
0.83136
0.838699
0.823562
0.826916
0.807368
0.833474
0.827494
0.78391
0.80919
0.812303
0.807145
0.823422
0.803458
0.827436
0.79305
0.803469
0.805845
0.728133
0.807195
0.564105
0.818782
0.825989
0.829248
0.806012
0.818327
0.824601
0.819522
0.821564
0.839316
0.833685
0.788753
0.800524
0.822438
0.816247
0.817812
0.800457
0.806471
0.865896
0.820806
0.847823
0.815988
0.800833
0.824686
0.799853
0.833564
0.814309
0.816074
0.805361
0.728044
0.803003
0.804599
0.816017
0.803388
0.802642
0.822161
0.804701
0.804249
0.778211
0.819812
0.718478
0.81434
0.781233
0.759431
0.803636
0.813379
0.819018
0.716987
0.820104
0.815297
0.826617
0.817889
0.790319
0.817176
0.847493
0.833305
0.815527
0.811817
0.801707
0.744966
0.680582
0.816083
0.820722
0.771802
0.815197
0.807875
0.812662
0.805535
0.79874
0.776402
0.802469
0.800221
0.841884
0.818217
0.81155
0.806366
0.605178
0.732464
0.802222
0.784175
0.804217
0.816522
0.80603
0.816965
0.780072
0.816138
0.804901
0.811576
0.803834
0.818628
0.803194
0.816767
0.811733
0.816689
0.81364
0.718891
0.815244
0.816594
0.599119
0.815914
0.796851
0.802962
0.859135
0.819034
0.811566
0.872767
0.816183
0.816276
0.817686
0.8196
0.816044
0.764602
0.830344
0.801495
0.803215
0.815274
0.816168
0.817574
0.816065
0.814182
0.823006
0.803972
0.81328
0.809145
0.815352
0.820052
0.816094
0.812581
0.819994
0.808951
0.693423
0.661455
0.802686
0.80875
0.803375
0.812105
0.819111
0.817847
0.802935
0.80403
0.800722
0.80094
0.817674
0.844744
0.819318
0.811664
0.81923
0.818951
0.846263
0.818224
0.82122
0.785798
0.816587
0.806816
0.801475
0.792127
0.811508
0.819253
0.815928
0.816036
0.836045
0.806811
0.813656
0.817378
0.821638
0.803535
0.803269
0.805534
0.811788
0.816021
0.801639
0.803741
0.817729
0.82257
0.800945
0.637606
0.80427
0.797416
0.817401
0.798655
0.802754
0.74903
0.84131
0.802753
0.799884
0.835323
0.83031
0.810286
0.826832
0.800594
0.81863
0.818099
0.819458
0.803619
0.819052
0.73004
0.822984
0.811531
0.800245
0.813152
0.821228
0.799165
0.804015
0.783133
0.815199
0.8163
0.816398
0.819248
0.806441
0.817874
0.816635
0.826516
0.822026
0.838164
0.806
0.696191
0.818674
0.840964
0.820484
0.804674
0.80015
0.803421
0.816897
0.814183
0.816811
0.744058
0.739761
0.800868
0.80296
0.816496
0.817285
0.799478
0.65566
0.709227
0.808034
0.768914
0.816702
0.704026
0.803048
0.728938
0.803189
0.8201
0.803121
0.818086
0.813626
0.798566
0.808639
0.794177
0.82988
0.816421
0.80132
0.803536
0.816632
0.82229
0.750371
0.82318
0.803745
0.783134
0.816305
0.803857
0.810628
0.815588
0.815908
0.83577
0.793433
0.799107
0.816191
0.759611
0.806683
0.81571
0.800997
0.81674
0.841308
0.802327
0.843629
0.809211
0.790896
0.812729
0.802613
0.852128
0.788473
0.80315
0.816831
0.832145
0.808379
0.81458
0.816531
0.802866
0.802686
0.825988
0.783243
0.815129
0.816151
0.648447
0.816342
0.713494
0.817641
0.83867
0.82506
0.804028
0.815441
0.816065
0.726649
0.815653
0.800973
0.801604
0.800949
0.816503
0.864166
0.801305
0.801084
0.785535
0.841105
0.827981
0.820232
0.813991
0.747507
0.804074
0.803313
0.731567
0.799596
0.715251
0.811239
0.800912
0.677582
0.880489
0.703267
0.772182
0.801462
0.744433
0.80837
0.79905
0.803021
0.66169
0.796745
0.784225
0.79912
0.730706
0.819362
0.823056
0.884788
0.809445
0.831488
0.646549
0.800084
0.787404
0.745842
0.752269
0.76997
0.707752
0.803103
0.799442
0.803178
0.764215
0.628912
0.81146
0.615
0.821618
0.823175
0.811492
0.736883
0.812502
0.796125
0.819673
0.782933
0.807883
0.797133
0.810721
0.717521
0.801534
0.723443
0.801381
0.79889
0.688675
0.803684
0.815999
0.816051
0.803083
0.761873
0.815795
0.731656
0.691777
0.80233
0.816053
0.874718
0.815968
0.815248
0.880821
0.86573
0.831245
0.716793
0.802024
0.811888
0.821475
0.798592
0.683629
0.723485
0.67925
0.802351
0.70279
0.768907
0.799497
0.621287
0.689548
0.836448
0.774287
0.746277
0.830946
0.760014
0.769123
0.649945
0.732465
0.785736
0.820149
0.869788
0.838159
0.816309
0.795172
0.799759
0.717091
0.816202
0.695126
0.796994
0.816045
0.783451
0.763202
0.802187
0.783419
0.802215
0.800808
0.812415
0.811075
0.867441
0.585396
0.544193
0.80243
0.807487
0.69986
0.810137
0.802822
0.837907
0.803481
0.802382
0.570742
0.562724
0.808383
0.81309
0.816131
0.728525
0.803144
0.811001
0.686337
0.812156
0.802707
0.814709
0.803161
0.800996
0.80226
0.815157
0.802936
0.817001
0.803267
0.862402
0.815514
0.802508
0.720826
0.672404
0.816098
0.588905
0.813207
0.810142
0.83628
0.814497
0.803078
0.810741
0.814204
0.813813
0.815828
0.80165
0.854141
0.856825
0.802422
0.658394
0.809032
0.822387
0.799424
0.803159
0.820471
0.735907
0.803227
0.825622
0.821773
0.816281
0.815959
0.767285
0.745216
0.800973
0.834417
0.803001
0.814792
0.804648
0.803862
0.805177
0.814829
0.808968
0.798889
0.806869
0.806165
0.824628
0.806679
0.806272
0.818153
0.80699
0.803353
0.813931
0.802934
0.802828
0.805801
0.807962
0.814063
0.773975
0.805325
0.802687
0.815991
0.799812
0.803753
0.806859
0.832266
0.805028
0.65384
0.800862
0.81601
0.804654
0.81476
0.763546
0.81581
0.751502
0.803661
0.802219
0.804057
0.819017
0.851404
0.804361
0.80324
0.746718
0.830028
0.815953
0.820914
0.824927
0.815319
0.738037
0.818673
0.724257
0.801083
0.828041
0.802424
0.702947
0.826303
0.815237
0.817006
0.824589
0.816292
0.773639
0.817758
0.653184
0.713177
0.816042
0.823099
0.679986
0.819854
0.660142
0.821932
0.80698
0.81729
0.803159
0.805772
0.815405
0.831841
0.825109
0.672057
0.814024
0.842448
0.781691
0.846681
0.800257
0.708591
0.838943
0.82007
0.836002
0.691646
0.687469
0.83335
0.662659
0.83108
0.816042
0.829073
0.806313
0.827378
0.787845
0.825895
0.824525
0.710094
0.865971
0.823351
0.822361
0.82363
0.760115
0.802853
0.530097
0.803829
0.821502
0.814452
0.804787
0.826428
0.816029
0.798199
0.820749
0.802987
0.684761
0.792516
0.834347
0.815366
0.718006
0.799958
0.821589
0.579933
0.815694
0.816474
0.802689
0.809961
0.727954
0.818409
0.803017
0.803485
0.796038
0.794706
0.797983
0.79471
0.803265
0.813427
0.819361
0.814984
0.575489
0.893184
0.708423
0.797931
0.741085
0.791539
0.816003
0.81657
0.816471
0.607095
0.819625
0.817252
0.803984
0.818579
0.836842
0.839662
0.783003
0.798459
0.799519
0.727409
0.753957
0.816185
0.764761
0.815226
0.819756
0.815753
0.813545
0.801941
0.776254
0.812107
0.816954
0.729349
0.810654
0.816751
0.818861
0.807888
0.809533
0.765778
0.815595
0.808261
0.80318
0.8075
0.619227
0.806571
0.804407
0.80599
0.821963
0.84573
0.804781
0.775286
0.805353
0.771746
0.820944
0.806577
0.81378
0.816014
0.850357
0.803417
0.744802
0.819836
0.816185
0.728299
0.801122
0.817088
0.758726
0.813662
0.572288
0.806675
0.686967
0.801428
0.811579
0.813345
0.818024
0.804246
0.816356
0.818458
0.801184
0.804579
0.844629
0.816996
0.796297
0.816924
0.802216
0.801783
0.80043
0.801404
0.807797
0.815598
0.801762
0.771071
0.819165
0.81339
0.808916
0.816022
0.589517
0.803428
0.813722
0.81622
0.788333
0.749522
0.718259
0.813516
0.815866
0.826518
0.79022
0.605599
0.772268
0.643776
0.81756
0.744884
0.813244
0.830454
0.698497
0.799864
0.834343
0.751017
0.800624
0.803167
0.816393
0.802823
0.700079
0.800842
0.553293
0.801938
0.802524
0.802224
0.602161
0.802941
0.803465
0.803198
0.72951
0.738431
0.803443
0.777159
0.816528
0.723252
0.707896
0.815975
0.801372
0.753487
0.854435
0.81484
0.813295
0.670976
0.802823
0.800688
0.800613
0.802505
0.658822
0.803305
0.816221
0.656142
0.686865
0.805896
0.791069
0.816089
0.823588
0.815881
0.816095
0.817252
0.803676
0.816147
0.815808
0.813866
0.829427
0.802668
0.801918
0.81052
0.729201
0.80962
0.815665
0.863052
0.811484
0.640001
0.775679
0.802273
0.776403
0.817508
0.812669
0.830408
0.814244
0.864855
0.802176
0.815457
0.596583
0.815823
0.834231
0.802929
0.815263
0.627214
0.816153
0.802706
0.817465
0.802281
0.818285
0.816795
0.754507
0.803594
0.803134
0.835507
0.862196
0.819739
0.816945
0.724425
0.743243
0.802563
0.803092
0.812218
0.818799
0.799733
0.80292
0.82017
0.807232
0.807594
0.739062
0.802749
0.81821
0.814628
0.768826
0.760393
0.812473
0.796491
0.857332
0.719795
0.834994
0.811754
0.710387
0.799769
0.815313
0.787485
0.800823
0.799763
0.815946
0.778158
0.774457
0.81433
0.696434
0.79887
0.766461
0.81583
0.818059
0.802112
0.788315
0.739676
0.753353
0.77465
0.815584
0.819673
0.806492
0.668927
0.802765
0.796436
0.77791
0.809784
0.813878
0.79962
0.803384
0.63827
0.80422
0.804834
0.851702
0.803738
0.809232
0.833757
0.805509
0.810924
0.852591
0.616503
0.804069
0.817001
0.805442
0.805054
0.805748
0.804612
0.804719
0.804229
0.805838
0.806521
0.725945
0.805733
0.807208
0.80737
0.815907
0.808327
0.8191
0.803116
0.803535
0.815557
0.815703
0.810869
0.803342
0.816273
0.813355
0.810397
0.816853
0.710005
0.814836
0.831992
0.815855
0.854657
0.750532
0.808811
0.815984
0.80109
0.618664
0.80328
0.773034
0.822562
0.628945
0.816466
0.830037
0.815629
0.812472
0.802174
0.827304
0.81967
0.803691
0.765508
0.817867
0.758731
0.551017
0.815349
0.692902
0.696935
0.820444
0.828188
0.828042
0.817488
0.847945
0.582274
0.877108
0.805292
0.826514
0.824872
0.813821
0.684071
0.815839
0.82336
0.817222
0.801294
0.7737
0.82232
0.56922
0.813757
0.843628
0.803159
0.840097
0.822148
0.803264
0.67203
0.843585
0.821115
0.836938
0.801035
0.81449
0.803066
0.83433
0.802881
0.814445
0.831928
0.829805
0.82208
0.824941
0.831003
0.738681
0.664982
0.57055
0.827981
0.826476
0.767812
0.757257
0.807162
0.825066
0.847005
0.59509
0.823803
0.82273
0.821836
0.820341
0.804003
0.820839
0.662169
0.74545
0.821052
0.797664
0.870419
0.890322
0.776733
0.804685
0.670898
0.835691
0.732331
0.721096
0.819195
0.801723
0.783671
0.665968
0.802231
0.81602
0.789021
0.714478
0.801252
0.817218
0.798074
0.681441
0.823903
0.792902
0.816631
0.833802
0.815221
0.796479
0.817043
0.81682
0.78596
0.804088
0.713376
0.840794
0.793164
0.811878
0.782166
0.804483
0.699711
0.800919
0.813558
0.81219
0.811024
0.809509
0.808417
0.807659
0.806036
0.804922
0.806841
0.727412
0.805473
0.801515
0.795978
0.80335
0.844637
0.717539
0.803228
0.776285
0.884163
0.854684
0.798056
0.725497
0.803486
0.797737
0.720731
0.803363
0.801863
0.735931
0.803704
0.790759
0.797571
0.801247
0.738065
0.780595
0.805172
0.748625
0.764592
0.770432
0.801565
0.81558
0.808659
0.759806
0.751639
0.799562
0.814718
0.803334
0.793516
0.801202
0.928668
0.860839
0.818439
0.815897
0.723105
0.844759
0.74841
0.826244
0.816973
0.898295
0.816042
0.797413
0.591234
0.816062
0.79753
0.816085
0.797948
0.8459
0.527584
0.833354
0.801577
0.805743
0.804925
0.803917
0.856175
0.801388
0.81819
0.702644
0.666863
0.667956
0.816118
0.509167
0.797931
0.72339
0.842161
0.814967
0.561127
0.802607
0.815528
0.815225
0.720006
0.80186
0.527814
0.797471
0.816231
0.797593
0.80278
0.797833
0.816377
0.834318
0.803254
0.798537
0.816734
0.798803
0.816873
0.81427
0.799089
0.817032
0.814693
0.817219
0.799202
0.81743
0.680764
0.799398
0.817667
0.803088
0.79959
0.817908
0.699924
0.816039
0.798459
0.816023
0.798577
0.810839
0.838598
0.861653
0.80106
0.800676
0.818809
0.815494
0.800318
0.799942
0.863827
0.812768
0.818494
0.811293
0.85026
0.829135
0.817468
0.825935
0.846673
0.815987
0.801807
0.820005
0.812123
0.802236
0.815858
0.800235
0.808024
0.783255