# vtk DataFile Version 1.0
unstructured grid
ascii
DATASET UNSTRUCTURED_GRID
points 3920 float
-1 0 0
-1 1 0
2 0 0
2 1 0
0 0 0
1 0 0
-1 1 0.1
-1 0 0.1
0 0 0.1
1 0 0.1
2 0 0.1
2 1 0.1
-0.98 0 0
-0.96 0 0
-0.94 0 0
-0.92 0 0
-0.9 0 0
-0.88 0 0
-0.86 0 0
-0.84 0 0
-0.82 0 0
-0.8 0 0
-0.78 0 0
-0.76 0 0
-0.74 0 0
-0.72 0 0
-0.7 0 0
-0.68 0 0
-0.66 0 0
-0.64 0 0
-0.62 0 0
-0.6 0 0
-0.58 0 0
-0.56 0 0
-0.54 0 0
-0.52 0 0
-0.5 0 0
-0.48 0 0
-0.46 0 0
-0.44 0 0
-0.42 0 0
-0.4 0 0
-0.38 0 0
-0.36 0 0
-0.34 0 0
-0.32 0 0
-0.3 0 0
-0.28 0 0
-0.26 0 0
-0.24 0 0
-0.22 0 0
-0.2 0 0
-0.18 0 0
-0.16 0 0
-0.14 0 0
-0.12 0 0
-0.1 0 0
-0.08 0 0
-0.06 0 0
-0.04 0 0
-0.02 0 0
1.02 0 0
1.04 0 0
1.06 0 0
1.08 0 0
1.1 0 0
1.12 0 0
1.14 0 0
1.16 0 0
1.18 0 0
1.2 0 0
1.22 0 0
1.24 0 0
1.26 0 0
1.28 0 0
1.3 0 0
1.32 0 0
1.34 0 0
1.36 0 0
1.38 0 0
1.4 0 0
1.42 0 0
1.44 0 0
1.46 0 0
1.48 0 0
1.5 0 0
1.52 0 0
1.54 0 0
1.56 0 0
1.58 0 0
1.6 0 0
1.62 0 0
1.64 0 0
1.66 0 0
1.68 0 0
1.7 0 0
1.72 0 0
1.74 0 0
1.76 0 0
1.78 0 0
1.8 0 0
1.82 0 0
1.84 0 0
1.86 0 0
1.88 0 0
1.9 0 0
1.92 0 0
1.94 0 0
1.96 0 0
1.98 0 0
2 0.0199133 0
2 0.0414128 0
2 0.0646247 0
2 0.0896856 0
2 0.116743 0
2 0.145955 0
2 0.177494 0
2 0.211545 0
2 0.248309 0
2 0.288001 0
2 0.330854 0
2 0.377121 0
2 0.427073 0
2 0.481004 0
2 0.539231 0
2 0.602096 0
2 0.669968 0
2 0.743247 0
2 0.822362 0
2 0.907779 0
1.9 1 0
1.8 1 0
1.7 1 0
1.6 1 0
1.5 1 0
1.4 1 0
1.3 1 0
1.2 1 0
1.1 1 0
1 1 0
0.9 1 0
0.8 1 0
0.7 1 0
0.6 1 0
0.5 1 0
0.4 1 0
0.3 1 0
0.2 1 0
0.1 1 0
3.69793e-12 1 0
-0.1 1 0
-0.2 1 0
-0.3 1 0
-0.4 1 0
-0.5 1 0
-0.6 1 0
-0.7 1 0
-0.8 1 0
-0.9 1 0
-1 0.907779 0
-1 0.822362 0
-1 0.743247 0
-1 0.669968 0
-1 0.602096 0
-1 0.539231 0
-1 0.481004 0
-1 0.427073 0
-1 0.377121 0
-1 0.330854 0
-1 0.288001 0
-1 0.248309 0
-1 0.211545 0
-1 0.177494 0
-1 0.145955 0
-1 0.116743 0
-1 0.0896856 0
-1 0.0646247 0
-1 0.0414128 0
-1 0.0199133 0
0.0182781 0.00745351 0
0.0366672 0.0146286 0
0.0551632 0.0215237 0
0.0737617 0.0281372 0
0.0924585 0.0344675 0
0.111249 0.0405131 0
0.13013 0.0462728 0
0.149095 0.0517451 0
0.168142 0.0569289 0
0.187265 0.0618228 0
0.20646 0.0664258 0
0.225723 0.0707368 0
0.245049 0.0747549 0
0.264434 0.078479 0
0.283873 0.0819084 0
0.303362 0.0850422 0
0.322896 0.0878798 0
0.342472 0.0904204 0
0.362083 0.0926635 0
0.381726 0.0946086 0
0.401397 0.0962552 0
0.42109 0.0976029 0
0.440802 0.0986514 0
0.460527 0.0994006 0
0.480261 0.0998501 0
0.5 0.1 0
0.519739 0.0998501 0
0.539473 0.0994006 0
0.559198 0.0986514 0
0.57891 0.0976029 0
0.598603 0.0962552 0
0.618274 0.0946086 0
0.637917 0.0926635 0
0.657528 0.0904204 0
0.677104 0.0878798 0
0.696638 0.0850422 0
0.716127 0.0819084 0
0.735566 0.078479 0
0.754951 0.0747549 0
0.774277 0.0707368 0
0.79354 0.0664258 0
0.812735 0.0618228 0
0.831858 0.0569289 0
0.850905 0.0517451 0
0.86987 0.0462728 0
0.888751 0.0405131 0
0.907542 0.0344675 0
0.926238 0.0281372 0
0.944837 0.0215237 0
0.963333 0.0146286 0
0.981722 0.00745351 0
-1 0.907779 0.1
-1 0.822362 0.1
-1 0.743247 0.1
-1 0.669968 0.1
-1 0.602096 0.1
-1 0.539231 0.1
-1 0.481004 0.1
-1 0.427073 0.1
-1 0.377121 0.1
-1 0.330854 0.1
-1 0.288001 0.1
-1 0.248309 0.1
-1 0.211545 0.1
-1 0.177494 0.1
-1 0.145955 0.1
-1 0.116743 0.1
-1 0.0896856 0.1
-1 0.0646247 0.1
-1 0.0414128 0.1
-1 0.0199133 0.1
-0.98 0 0.1
-0.96 0 0.1
-0.94 0 0.1
-0.92 0 0.1
-0.9 0 0.1
-0.88 0 0.1
-0.86 0 0.1
-0.84 0 0.1
-0.82 0 0.1
-0.8 0 0.1
-0.78 0 0.1
-0.76 0 0.1
-0.74 0 0.1
-0.72 0 0.1
-0.7 0 0.1
-0.68 0 0.1
-0.66 0 0.1
-0.64 0 0.1
-0.62 0 0.1
-0.6 0 0.1
-0.58 0 0.1
-0.56 0 0.1
-0.54 0 0.1
-0.52 0 0.1
-0.5 0 0.1
-0.48 0 0.1
-0.46 0 0.1
-0.44 0 0.1
-0.42 0 0.1
-0.4 0 0.1
-0.38 0 0.1
-0.36 0 0.1
-0.34 0 0.1
-0.32 0 0.1
-0.3 0 0.1
-0.28 0 0.1
-0.26 0 0.1
-0.24 0 0.1
-0.22 0 0.1
-0.2 0 0.1
-0.18 0 0.1
-0.16 0 0.1
-0.14 0 0.1
-0.12 0 0.1
-0.1 0 0.1
-0.08 0 0.1
-0.06 0 0.1
-0.04 0 0.1
-0.02 0 0.1
0.0182781 0.00745351 0.1
0.0366672 0.0146286 0.1
0.0551632 0.0215237 0.1
0.0737617 0.0281372 0.1
0.0924585 0.0344675 0.1
0.111249 0.0405131 0.1
0.13013 0.0462728 0.1
0.149095 0.0517451 0.1
0.168142 0.0569289 0.1
0.187265 0.0618228 0.1
0.20646 0.0664258 0.1
0.225723 0.0707368 0.1
0.245049 0.0747549 0.1
0.264434 0.078479 0.1
0.283873 0.0819084 0.1
0.303362 0.0850422 0.1
0.322896 0.0878798 0.1
0.342472 0.0904204 0.1
0.362083 0.0926635 0.1
0.381726 0.0946086 0.1
0.401397 0.0962552 0.1
0.42109 0.0976029 0.1
0.440802 0.0986514 0.1
0.460527 0.0994006 0.1
0.480261 0.0998501 0.1
0.5 0.1 0.1
0.519739 0.0998501 0.1
0.539473 0.0994006 0.1
0.559198 0.0986514 0.1
0.57891 0.0976029 0.1
0.598603 0.0962552 0.1
0.618274 0.0946086 0.1
0.637917 0.0926635 0.1
0.657528 0.0904204 0.1
0.677104 0.0878798 0.1
0.696638 0.0850422 0.1
0.716127 0.0819084 0.1
0.735566 0.078479 0.1
0.754951 0.0747549 0.1
0.774277 0.0707368 0.1
0.79354 0.0664258 0.1
0.812735 0.0618228 0.1
0.831858 0.0569289 0.1
0.850905 0.0517451 0.1
0.86987 0.0462728 0.1
0.888751 0.0405131 0.1
0.907542 0.0344675 0.1
0.926238 0.0281372 0.1
0.944837 0.0215237 0.1
0.963333 0.0146286 0.1
0.981722 0.00745351 0.1
1.02 0 0.1
1.04 0 0.1
1.06 0 0.1
1.08 0 0.1
1.1 0 0.1
1.12 0 0.1
1.14 0 0.1
1.16 0 0.1
1.18 0 0.1
1.2 0 0.1
1.22 0 0.1
1.24 0 0.1
1.26 0 0.1
1.28 0 0.1
1.3 0 0.1
1.32 0 0.1
1.34 0 0.1
1.36 0 0.1
1.38 0 0.1
1.4 0 0.1
1.42 0 0.1
1.44 0 0.1
1.46 0 0.1
1.48 0 0.1
1.5 0 0.1
1.52 0 0.1
1.54 0 0.1
1.56 0 0.1
1.58 0 0.1
1.6 0 0.1
1.62 0 0.1
1.64 0 0.1
1.66 0 0.1
1.68 0 0.1
1.7 0 0.1
1.72 0 0.1
1.74 0 0.1
1.76 0 0.1
1.78 0 0.1
1.8 0 0.1
1.82 0 0.1
1.84 0 0.1
1.86 0 0.1
1.88 0 0.1
1.9 0 0.1
1.92 0 0.1
1.94 0 0.1
1.96 0 0.1
1.98 0 0.1
2 0.0199133 0.1
2 0.0414128 0.1
2 0.0646247 0.1
2 0.0896856 0.1
2 0.116743 0.1
2 0.145955 0.1
2 0.177494 0.1
2 0.211545 0.1
2 0.248309 0.1
2 0.288001 0.1
2 0.330854 0.1
2 0.377121 0.1
2 0.427073 0.1
2 0.481004 0.1
2 0.539231 0.1
2 0.602096 0.1
2 0.669968 0.1
2 0.743247 0.1
2 0.822362 0.1
2 0.907779 0.1
1.9 1 0.1
1.8 1 0.1
1.7 1 0.1
1.6 1 0.1
1.5 1 0.1
1.4 1 0.1
1.3 1 0.1
1.2 1 0.1
1.1 1 0.1
1 1 0.1
0.9 1 0.1
0.8 1 0.1
0.7 1 0.1
0.6 1 0.1
0.5 1 0.1
0.4 1 0.1
0.3 1 0.1
0.2 1 0.1
0.1 1 0.1
3.69793e-12 1 0.1
-0.1 1 0.1
-0.2 1 0.1
-0.3 1 0.1
-0.4 1 0.1
-0.5 1 0.1
-0.6 1 0.1
-0.7 1 0.1
-0.8 1 0.1
-0.9 1 0.1
1.08758 0.0158154 0
-0.0898513 0.0203294 0
0.0966181 0.0537636 0
0.90205 0.0548881 0
1.21055 0.0202058 0
-0.209811 0.0159577 0
1.3305 0.0176902 0
-0.33 0.0173205 0
1.45324 0.0148141 0
-0.448654 0.0159854 0
1.56842 0.0191785 0
-0.569936 0.0166364 0
0.193292 0.0805369 0
0.805051 0.0813623 0
0.709096 0.100353 0
0.288591 0.0996656 0
0.390184 0.111848 0
0.61033 0.111742 0
0.488809 0.116278 0
1.67175 0.0169692 0
-0.67 0.0169809 0
-0.955017 0.454039 0
1.95131 0.44569 0
1.74981 0.0168753 0
-0.75 0.0173205 0
-0.968032 0.266538 0
1.96871 0.266267 0
0.978232 0.0305687 0
0.0208675 0.026451 0
-0.150454 0.91842 0
1.13854 0.907437 0
1.45012 0.904365 0
-0.445923 0.908903 0
-0.853423 0.0157019 0
1.84881 0.016319 0
0.853689 0.915652 0
0.153944 0.912184 0
0.545151 0.914125 0
0.549913 0.115152 0
1.51 0.0173205 0
-0.506989 0.01651 0
1.27 0.0173205 0
1.14976 0.0173333 0
-0.268171 0.0206442 0
-0.150501 0.0153244 0
-0.391384 0.0153993 0
1.38886 0.0171544 0
-0.973694 0.161724 0
1.97441 0.162392 0
-0.945221 0.633523 0
1.94544 0.63312 0
1.91008 0.0186068 0
-0.91 0.0169616 0
-0.030664 0.0194327 0
1.03074 0.0165456 0
-0.966065 0.353575 0
1.96128 0.359765 0
1.93879 0.781254 0
-0.937057 0.781882 0
-0.980746 0.080709 0
1.9772 0.0760699 0
0.058735 0.0409372 0
0.355202 0.913001 0
0.86356 0.0661005 0
0.134223 0.0651111 0
0.941972 0.0397386 0
-0.653034 0.915003 0
1.65328 0.904589 0
0.770126 0.0881325 0
0.232946 0.0902008 0
0.330582 0.105648 0
0.670612 0.108365 0
0.428707 0.116145 0
1.80993 0.016629 0
-0.810168 0.0172178 0
-0.71 0.0173205 0
1.63047 0.0175504 0
1.70842 0.0169661 0
-0.628824 0.0181787 0
-0.949815 0.0133898 0
1.95 0.0173205 0
1.85542 0.907891 0
-0.85 0.913397 0
1.9833 0.0307692 0
-0.983315 0.0309709 0
-0.750025 0.916468 0
-0.701107 0.836904 0
-0.607741 0.836428 0
-0.656448 0.759827 0
-0.572936 0.758144 0
-0.61411 0.691195 0
-0.539534 0.689068 0
-0.578542 0.626111 0
-0.507461 0.624216 0
-0.544001 0.566638 0
-0.477696 0.564279 0
-0.511582 0.51001 0
-0.451689 0.507147 0
-0.481834 0.457732 0
-0.426137 0.454624 0
-0.453236 0.407539 0
-0.398845 0.406233 0
-0.507958 0.409496 0
-0.368427 0.460177 0
-0.344602 0.405209 0
-0.315696 0.447824 0
-0.294128 0.402169 0
-0.262844 0.444518 0
-0.241968 0.388746 0
-0.209878 0.439557 0
-0.185184 0.391135 0
-0.156687 0.437338 0
-0.133719 0.390776 0
-0.104405 0.434306 0
-0.0818745 0.388334 0
-0.0528785 0.431165 0
-0.0305984 0.385639 0
-0.00180552 0.427863 0
0.0194564 0.382608 0
0.0485809 0.42449 0
0.0701962 0.37973 0
0.0985483 0.421145 0
0.119893 0.377339 0
0.147837 0.417911 0
0.172552 0.36751 0
0.197018 0.412597 0
0.221203 0.37141 0
0.24512 0.409646 0
-0.48178 0.364657 0
-0.531053 0.364782 0
-0.0599102 0.344151 0
-0.324909 0.359566 0
0.266181 0.368462 0
0.292132 0.407649 0
0.311992 0.365779 0
0.338918 0.404821 0
0.357567 0.355909 0
0.384723 0.40053 0
0.404675 0.359681 0
0.430617 0.398558 0
0.450457 0.35827 0
0.474237 0.395182 0
0.496746 0.34898 0
0.520548 0.397931 0
0.542071 0.353121 0
0.566011 0.389914 0
0.585061 0.350856 0
0.609352 0.38696 0
0.629069 0.348168 0
0.655979 0.391217 0
0.67472 0.346182 0
0.699346 0.381414 0
0.719333 0.341965 0
0.743718 0.377547 0
0.764028 0.339036 0
0.788201 0.373582 0
0.807659 0.336101 0
0.832821 0.372249 0
0.852309 0.334017 0
0.877785 0.370339 0
0.897875 0.331141 0
0.922904 0.366281 0
0.943173 0.327335 0
0.968282 0.363358 0
0.989029 0.324222 0
1.01391 0.361511 0
1.03465 0.321428 0
1.05949 0.358447 0
1.08389 0.312052 0
1.10575 0.355104 0
1.12889 0.31562 0
1.15067 0.353235 0
1.17157 0.312819 0
1.19626 0.349369 0
1.21618 0.309863 0
1.2416 0.346914 0
1.26131 0.30715 0
1.28691 0.344312 0
1.30571 0.303752 0
1.33144 0.341222 0
1.35018 0.300911 0
1.3758 0.338308 0
1.39501 0.298931 0
1.42015 0.335235 0
1.43904 0.296349 0
1.46355 0.330194 0
1.48256 0.293347 0
1.50685 0.326967 0
1.52589 0.29055 0
1.54996 0.325305 0
1.56909 0.287929 0
[...]
CELL_DATA 3694
SCALARS rho float
LOOKUP_TABLE default
0.734729
0.669888
0.803677
0.812519
0.826152
0.804941
0.79141
0.799607
0.809532
0.802524
0.816853
0.816846
0.840129
0.789128
0.800431
0.749723
0.803164
0.80277
0.759506
0.849723
0.816837
0.822617
0.695947
0.803256
0.692515
0.839015
0.719769
0.805883
0.836646
0.798254
0.798452
0.71834
0.803328
0.824321
0.802567
0.796933
0.836883
0.822414
0.824431
0.778074
0.804491
0.81714
0.833972
0.82489
0.804953
0.812406
0.800425
0.663892
0.67864
0.719619
0.801925
0.802863
0.846483
0.801893
0.627326
0.837782
0.802383
0.818616
0.832472
0.75361
0.796064
0.814587
0.841758
0.799221
0.842275
0.830465
0.807245
0.813058
0.736481
0.858018
0.803081
0.807427
0.82264
0.803127
0.824051
0.802837
0.814003
0.799314
0.813438
0.802617
0.712648
0.817995
0.802159
0.776673
0.809395
0.799266
0.81796
0.713765
0.736201
0.82473
0.798769
0.802202
0.820097
0.815044
0.674241
0.806347
0.722562
0.817342
0.811857
0.839612
0.814156
0.761855
0.718923
0.809335
0.808834
0.814582
0.817319
0.806846
0.715048
0.813895
0.799083
0.721346
0.721164
0.823139
0.867645
0.802023
0.799327
0.811658
0.803066
0.801925
0.765516
0.822284
0.819295
0.769401
0.704781
0.758046
0.816987
0.77641
0.843258
0.699354
0.766988
0.800185
0.807762
0.777272
0.800535
0.795202
0.805293
0.802266
0.797623
0.814088
0.813318
0.709578
0.816509
0.813145
0.757173
0.666261
0.676436
0.797753
0.815568
0.812931
0.743639
0.802578
0.553619
0.778156
0.683951
0.762778
0.713021
0.783317
0.605483
0.792847
0.837339
0.643906
0.781787
0.736577
0.843807
0.551858
0.81703
0.800058
0.802496
0.67265
0.801462
0.661738
0.857541
0.534043
0.799713
0.631682
0.872225
0.832977
0.82027
0.745025
0.813665
0.721962
0.826565
0.737312
0.64769
0.803023
0.673987
0.823021
0.801555
0.850679
0.791584
0.704857
0.814302
0.798022
0.741455
0.852609
0.811224
0.84857
0.736103
0.742185
0.770617
0.793426
0.831372
0.834069
0.816712
0.813692
0.668231
0.804459
0.726148
0.803113
0.707541
0.797024
0.795478
0.801343
0.825355
0.763074
0.830074
0.749044
0.825296
0.819503
0.815522
0.852866
0.82927
0.702097
0.826713
0.688301
0.78756
0.80963
0.850846
0.829854
0.807875
0.794211
0.744611
0.817215
0.836398
0.817028
0.714274
0.799415
0.694036
0.791846
0.795334
0.809618
0.636484
0.807378
0.757166
0.79769
0.803042
0.758738
0.814745
0.865539
0.784071
0.692671
0.804264
0.801289
0.646302
0.791899
0.777604
0.802279
0.838716
0.814343
0.607237
0.814766
0.809973
0.796476
0.815042
0.802541
0.815209
0.814221
0.835448
0.755741
0.801719
0.834548
0.810128
0.803082
0.795933
0.814508
0.728303
0.586579
0.816476
0.82946
0.820065
0.804094
0.680155
0.815039
0.814768
0.816453
0.712306
0.796918
0.814612
0.537726
0.802744
0.868947
0.677007
0.75572
0.838404
0.82671
0.81435
0.707727
0.809266
0.814606
0.80367
0.801488
0.811973
0.836402
0.817012
0.766891
0.806873
0.802977
0.645733
0.820664
0.827551
0.670781
0.790652
0.818505
0.820725
0.678246
0.685741
0.821085
0.823767
0.80939
0.733562
0.706273
0.713002
0.731851
0.819971
0.776233
0.804016
0.73168
0.742028
0.822189
0.809859
0.81884
0.769488
0.814743
0.813417
0.816986
0.815609
0.802667
0.807382
0.803565
0.692564
0.802638
0.812612
0.693683
0.806838
0.804965
0.819091
0.785591
0.805782
0.79164
0.814494
0.820654
0.819842
0.797897
0.680078
0.709862
0.799268
0.810731
0.621499
0.803741
0.807171
0.817087
0.74267
0.804127
0.81602
0.811181
0.817465
0.804894
0.797148
0.763965
0.803998
0.843283
0.819762
0.707385
0.803467
0.701451
0.704915
0.802923
0.614029
0.770295
0.784582
0.807913
0.813016
0.824999
0.816777
0.812396
0.819852
0.827967
0.802765
0.764115
0.809614
0.65821
0.818911
0.756799
0.727126
0.686368
0.813557
0.853814
0.818938
0.808464
0.821953
0.814928
0.786668
0.757811
0.809241
0.692725
0.791027
0.84334
0.826459
0.800691
0.863851
0.813229
0.816209
0.817203
0.830899
0.628653
0.798349
0.730556
0.797672
0.735062
0.81874
0.808521
0.786955
0.685412
0.814398
0.829864
0.811515
0.802808
0.803666
0.824067
0.80372
0.710062
0.790168
0.803053
0.814352
0.813654
0.812272
0.871485
0.827524
0.809235
0.831836
0.681579
0.823112
0.837375
0.815861
0.62709
0.814903
0.809025
0.845275
0.821055
0.802867
0.591638
0.80994
0.695225
0.805973
0.802837
0.811943
0.813146
0.825066
0.80494
0.811063
0.815696
0.723442
0.86276
0.801836
0.849978
0.816077
0.573205
0.803774
0.79654
0.811243
0.817329
0.647352
0.802764
0.809491
0.81284
0.806973
0.793731
0.815241
0.816986
0.795844
0.803622
0.821143
0.836705
0.729615
0.80614
0.809406
0.812788
0.681991
0.805073
0.815709
0.799047
0.803935
0.520124
0.832679
0.763241
0.814262
0.817409
0.83062
0.846057
0.815805
0.811246
0.715277
0.798715
0.852218
0.808129
0.709601
0.800016
0.802567
0.872075
0.845088
0.818746
0.801942
0.809529
0.755149
0.815058
0.813692
0.584191
0.802518
0.728889
0.750036
0.802957
0.811035
0.780851
0.821144
0.814894
0.837863
0.815665
0.80036
0.808653
0.73864
0.736456
0.804042
0.807758
0.820827
0.802068
0.751604
0.688139
0.813179
0.815023
0.813863
0.593998
0.813296
0.81643
0.824448
0.80293
0.808405
0.819371
0.811706
0.839222
0.802929
0.81253
0.823467
0.81524
0.817533
0.821289
0.688133
0.784028
0.794582
0.803034
0.847424
0.802015
0.802476
0.634702
0.810621
0.813205
0.810605
0.818743
0.805654
0.812747
0.726739
0.84342
0.707718
0.800241
0.817016
0.807107
0.651321
0.683828
0.815134
0.805551
0.804103
0.785115
0.801479
0.829023
0.813209
0.804866
0.802021
0.811972
0.619159
0.81204
0.802904
0.697626
0.815252
0.61646
0.783668
0.815193
0.837617
0.805622
0.81214
0.792146
0.795277
0.803903
0.801383
0.811678
0.810971
0.808678
0.803192
0.757225
0.803994
0.812173
0.811625
0.815976
0.811184
0.815592
0.814554
0.834086
0.737662
0.806532
0.815319
0.802301
0.541593
0.681459
0.811022
0.812907
0.814862
0.780226
0.808101
0.812552
0.803051
0.799819
0.802617
0.819702
0.82053
0.814635
0.784548
0.807878
0.805377
0.542372
0.773657
0.757001
0.806271
0.735285
0.674903
0.79744
0.767326
0.827489
0.814551
0.814332
0.808251
0.539357
0.815371
0.582734
0.695059
0.82441
0.869601
0.740974
0.816276
0.852716
0.694455
0.81507
0.808898
0.814759
0.80723
0.655712
0.854399
0.737308
0.72943
0.803227
0.804499
0.799416
0.833309
0.814831
0.690528
0.815265
0.800219
0.69074
0.839324
0.79799
0.621451
0.772635
0.815359
0.80761
0.814468
0.78433
0.724472
0.769749
0.836882
0.688172
0.815622
0.817061
0.826688
0.764997
0.821798
0.690971
0.804494
0.660089
0.700304
0.800261
0.822541
0.788181
0.814202
0.815049
0.814863
0.813615
0.576353
0.802512
0.814596
0.743022
0.809968
0.815089
0.811461
0.71563
0.693115
0.740984
0.619511
0.807169
0.681059
0.815311
0.801843
0.814644
0.836868
0.686783
0.804251
0.819538
0.832292
0.73731
0.781518
0.764704
0.772792
0.812063
0.562361
0.671519
0.814951
0.805241
0.812041
0.804478
0.712267
0.78004
0.723853
0.760549
0.799493
0.831708
0.812126
0.690852
0.823142
0.81762
0.810615
0.684894
0.693615
0.680986
0.87202
0.815559
0.816341
0.6083
0.710988
0.640782
0.803337
0.800288
0.671295
0.811828
0.824292
0.748681
0.799343
0.72923
0.813822
0.692025
0.814373
0.810391
0.801237
0.803064
0.825368
0.743958
0.815414
0.814613
0.780175
0.551451
0.816113
0.810629
0.757538
0.813499
0.747496
0.802813
0.826232
0.657023
0.817852
0.802682
0.809905
0.582535
0.625902
0.734857
0.806295
0.811793
0.810521
0.820807
0.814591
0.815658
0.704053
0.801883
0.812857
0.826014
0.703096
0.725598
0.811921
0.811639
0.695737
0.814252
0.7742
0.702428
0.811803
0.695538
0.803988
0.661938
0.802865
0.730269
0.666174
0.810877
0.786036
0.743846
0.630578
0.83994
0.820995
0.814633
0.770103
0.813822
0.800021
0.785886
0.799829
0.801624
0.814884
0.731141
0.809618
0.799949
0.818498
0.597637
0.801284
0.812653
0.813616
0.811303
0.811865
0.74585
0.802773
0.763882
0.750367
0.818342
0.645641
0.818281
0.817401
0.803064
0.815307
0.816538
0.719912
0.768441
0.82186
0.785098
0.803683
0.815742
0.874983
0.817754
0.798036
0.816516
0.814987
0.793881
0.818209
0.816641
0.773027
0.697287
0.841034
0.796932
0.803155
0.822493
0.780905
0.817567
0.824719
0.818384
0.81659
0.870429
0.803084
0.804802
0.817985
0.803079
0.815102
0.806871
0.73525
0.815027
0.819443
0.75385
0.707622
0.814913
0.843086
0.822253
0.651789
0.821507
0.773473
0.808049
0.801846
0.729313
0.803108
0.798582
0.81539
0.816644
0.692645
0.703903
0.802147
0.787487
0.801482
0.824666
0.722207
0.81461
0.802359
0.800071
0.823231
0.815089
0.712347
0.81535
0.762886
0.802387
0.8325
0.803306
0.773102
0.797837
0.794586
0.814737
0.578256
0.814563
0.695539
0.676728
0.803411
0.81927
0.81462
0.802508
0.814762
0.808214
0.72357
0.787529
0.857005
0.803005
0.833351
0.807342
0.541144
0.7622
0.779549
0.646807
0.73723
0.577545
0.819942
0.812894
0.813733
0.802396
0.766657
0.684171
0.764092
0.752166
0.7819
0.814534
0.844795
0.819108
0.805751
0.81921
0.823569
0.802584
0.807444
0.70405
0.803081
0.756014
0.808591
0.797731
0.751218
0.822143
0.788302
0.803489
0.789532
0.840754
0.727494
0.800821
0.799341
0.804818
0.616859
0.815129
0.815007
0.821602
0.630106
0.814886
0.814891
0.798424
0.80379
0.793111
0.774974
0.806087
0.794347
0.815627
0.753127
0.803567
0.875195
0.762398
0.747552
0.806757
0.783897
0.842418
0.799662
0.779256
0.815183
0.798114
0.792431
0.807978
0.825321
0.835527
0.799654
0.572818
0.820167
0.828018
0.771981
0.830521
0.838038
0.822607
0.826037
0.807186
0.832721
0.826589
0.783625
0.808797
0.811032
0.806061
0.822431
0.803323
0.827249
0.792811
0.803015
0.805642
0.726049
0.807004
0.560042
0.817658
0.825055
0.828374
0.805611
0.817952
0.823638
0.81928
0.820523
0.838589
0.832881
0.787624
0.800274
0.821422
0.81505
0.816629
0.800127
0.806293
0.865442
0.819742
0.847193
0.814758
0.800537
0.824488
0.799643
0.833317
0.813112
0.815049
0.80519
0.725529
0.802835
0.804436
0.814697
0.803252
0.801852
0.821956
0.804463
0.804088
0.77774
0.819597
0.716833
0.813941
0.779964
0.758522
0.80348
0.813148
0.818861
0.714416
0.819016
0.815067
0.826423
0.816765
0.789454
0.815943
0.847158
0.832884
0.814669
0.811588
0.801482
0.743224
0.676457
0.814699
0.820395
0.770515
0.814056
0.807625
0.811448
0.805284
0.798346
0.775957
0.802329
0.799915
0.841257
0.817057
0.811235
0.806147
0.602301
0.730384
0.802063
0.783043
0.803958
0.815358
0.805771
0.815714
0.779602
0.814771
0.804651
0.810327
0.80358
0.817515
0.803136
0.815497
0.810536
0.815488
0.812478
0.716606
0.814138
0.815305
0.596067
0.814532
0.796615
0.802637
0.858619
0.818017
0.810343
0.872375
0.814927
0.815008
0.816486
0.8185
0.814927
0.763966
0.830171
0.801158
0.803045
0.814207
0.814873
0.816365
0.814725
0.813086
0.822653
0.803842
0.812159
0.808897
0.814952
0.819817
0.814745
0.811433
0.818939
0.808773
0.696565
0.658399
0.802502
0.808351
0.803204
0.810932
0.818039
0.816769
0.802767
0.803615
0.800396
0.800673
0.81655
0.844193
0.818199
0.811284
0.818145
0.817819
0.845843
0.817133
0.82086
0.785426
0.815456
0.806641
0.801035
0.791835
0.810439
0.818155
0.814575
0.814792
0.835856
0.805776
0.81229
0.816267
0.82136
0.803372
0.803054
0.805364
0.810511
0.814691
0.801413
0.802715
0.816537
0.822335
0.800622
0.590492
0.804112
0.7966
0.817015
0.798453
0.802629
0.747863
0.840604
0.802592
0.799566
0.834541
0.829452
0.81005
0.825912
0.800287
0.817494
0.81709
0.818348
0.803465
0.817929
0.727229
0.821981
0.811353
0.799905
0.81285
0.820176
0.798955
0.80384
0.781989
0.814982
0.814973
0.815082
0.818137
0.806259
0.816683
0.815375
0.825743
0.821814
0.837418
0.805747
0.694635
0.817571
0.84041
0.819408
0.804419
0.799863
0.803168
0.815898
0.813928
0.815583
0.743443
0.737407
0.800543
0.80281
0.815255
0.816189
0.798364
0.651728
0.707761
0.807851
0.768904
0.815423
0.702456
0.802972
0.727579
0.803122
0.819734
0.803057
0.816916
0.812356
0.798418
0.808393
0.793116
0.829692
0.815113
0.801002
0.803316
0.815454
0.821301
0.748853
0.822354
0.803572
0.783014
0.814986
0.80367
0.810243
0.814149
0.814564
0.835046
0.792359
0.798773
0.814862
0.758534
0.806408
0.814288
0.800841
0.815524
0.841051
0.80206
0.84301
0.808367
0.790038
0.811362
0.802552
0.851784
0.788254
0.803056
0.815563
0.831314
0.808188
0.813239
0.815261
0.802681
0.802584
0.82577
0.782341
0.813798
0.814845
0.642482
0.815049
0.712087
0.817432
0.837993
0.824141
0.803768
0.81405
0.814698
0.72511
0.814236
0.800569
0.801417
0.800652
0.815274
0.863692
0.801045
0.800762
0.785149
0.840388
0.827788
0.819178
0.812766
0.746289
0.803114
0.803271
0.730224
0.799157
0.713775
0.80999
0.80081
0.675636
0.880155
0.701821
0.771959
0.801002
0.742707
0.808179
0.798678
0.802964
0.659535
0.796564
0.783851
0.798722
0.727917
0.818263
0.822053
0.884489
0.809256
0.831042
0.64426
0.799696
0.7865
0.743707
0.750764
0.768495
0.705116
0.80298
0.799049
0.803054
0.763222
0.626201
0.811227
0.611822
0.820727
0.822519
0.811302
0.736346
0.8117
0.794994
0.818689
0.782485
0.806728
0.79696
0.809497
0.716099
0.801276
0.721779
0.801122
0.798519
0.684976
0.803428
0.814594
0.814657
0.802998
0.760768
0.814427
0.732123
0.690061
0.802159
0.814654
0.874322
0.814553
0.813936
0.880505
0.86533
0.830632
0.717893
0.801802
0.811695
0.821053
0.79758
0.679994
0.722133
0.674913
0.802281
0.704629
0.768075
0.79917
0.615015
0.688755
0.835852
0.773158
0.744837
0.830148
0.758734
0.769048
0.629766
0.730844
0.78471
0.819282
0.869404
0.837552
0.815
0.794224
0.799436
0.715221
0.814851
0.693424
0.796849
0.814632
0.783328
0.762109
0.801282
0.782402
0.802068
0.800541
0.811173
0.810888
0.867024
0.568139
0.537278
0.802244
0.806603
0.697618
0.809749
0.80268
0.837271
0.803362
0.802262
0.566206
0.553713
0.808221
0.811833
0.814763
0.725678
0.803067
0.810116
0.683748
0.81085
0.802586
0.813266
0.803099
0.800185
0.802134
0.813714
0.802855
0.816833
0.803106
0.861933
0.814071
0.802402
0.721101
0.6693
0.814804
0.584279
0.812307
0.809818
0.835606
0.813323
0.802919
0.810545
0.81276
0.812543
0.814384
0.801479
0.853705
0.856299
0.802084
0.654364
0.807978
0.822215
0.799292
0.803075
0.819572
0.733377
0.803174
0.824861
0.820917
0.815116
0.814639
0.766275
0.745336
0.800585
0.833702
0.802618
0.813868
0.804286
0.803488
0.804822
0.813392
0.808639
0.798484
0.806704
0.805816
0.824368
0.806515
0.806114
0.816993
0.806649
0.803308
0.812487
0.802879
0.802742
0.805645
0.807625
0.812627
0.773316
0.805172
0.802609
0.814546
0.79952
0.803616
0.80669
0.831508
0.804878
0.649022
0.800621
0.814812
0.804511
0.814579
0.762682
0.81458
0.750201
0.803543
0.802081
0.80392
0.818726
0.850823
0.804221
0.803188
0.746873
0.829226
0.814537
0.819892
0.824748
0.814291
0.736036
0.817548
0.721368
0.80091
0.827197
0.802271
0.698902
0.825422
0.81428
0.815753
0.823669
0.814958
0.773025
0.816575
0.647252
0.709623
0.814632
0.822142
0.674566
0.818755
0.658089
0.820941
0.806582
0.816067
0.803101
0.805369
0.814414
0.831411
0.824929
0.670767
0.812616
0.841763
0.781235
0.846046
0.80014
0.704969
0.838215
0.818982
0.835234
0.687186
0.682222
0.832545
0.655781
0.830239
0.814648
0.828199
0.806137
0.826473
0.787492
0.824961
0.823561
0.706777
0.865504
0.82236
0.821345
0.823445
0.758847
0.802731
0.522543
0.802776
0.820461
0.813111
0.804596
0.825519
0.814584
0.797812
0.819684
0.802904
0.678909
0.792236
0.833999
0.813975
0.715215
0.798899
0.8214
0.574879
0.814335
0.815166
0.802487
0.809766
0.725598
0.817538
0.802946
0.803377
0.795814
0.793619
0.797766
0.794559
0.803224
0.811983
0.819163
0.813683
0.571694
0.892918
0.705232
0.797737
0.739141
0.791297
0.814561
0.815281
0.815162
0.603749
0.818611
0.817057
0.803768
0.817607
0.836413
0.839313
0.782715
0.79831
0.799351
0.72454
0.752321
0.814827
0.763707
0.815016
0.818669
0.814395
0.813341
0.801861
0.774993
0.811902
0.815703
0.728065
0.81044
0.815481
0.817721
0.80765
0.809317
0.764363
0.814173
0.80804
0.803084
0.807284
0.615823
0.806347
0.80419
0.80577
0.820958
0.845385
0.80456
0.773912
0.805133
0.77139
0.819908
0.805486
0.812344
0.81457
0.850008
0.8033
0.74415
0.819632
0.814825
0.726763
0.800731
0.815845
0.758271
0.812218
0.56842
0.806422
0.685309
0.801031
0.81085
0.81209
0.81684
0.804076
0.815403
0.817354
0.80089
0.804162
0.8442
0.815762
0.79607
0.815828
0.801778
0.801346
0.800153
0.801112
0.806793
0.8142
0.801474
0.769641
0.818054
0.812665
0.808729
0.814581
0.585937
0.803214
0.813534
0.814876
0.787193
0.747936
0.718877
0.812081
0.814425
0.825624
0.789054
0.602269
0.771258
0.639369
0.81635
0.745001
0.811802
0.83
0.694342
0.799549
0.833581
0.749068
0.800478
0.80308
0.815164
0.802044
0.698482
0.800576
0.547578
0.801639
0.802341
0.802101
0.568022
0.802845
0.803331
0.803081
0.728222
0.73712
0.803328
0.776168
0.815227
0.721816
0.706333
0.814622
0.801214
0.752296
0.853965
0.813425
0.811861
0.668875
0.802686
0.800445
0.800343
0.802381
0.65606
0.803142
0.814883
0.653875
0.684991
0.80568
0.790176
0.814712
0.82292
0.81461
0.814812
0.81605
0.803552
0.814786
0.814549
0.813138
0.829055
0.802339
0.801695
0.810199
0.726368
0.809437
0.814404
0.862627
0.8107
0.637411
0.774314
0.802088
0.775952
0.816304
0.811428
0.829774
0.813883
0.864429
0.801787
0.814178
0.592967
0.815432
0.833605
0.802839
0.813841
0.624277
0.815003
0.802634
0.816261
0.80214
0.817136
0.815553
0.754531
0.803457
0.803075
0.834865
0.861735
0.819457
0.815686
0.725078
0.741089
0.802424
0.802932
0.811842
0.817686
0.799418
0.802764
0.81913
0.806176
0.807402
0.739301
0.802628
0.817133
0.813574
0.767999
0.760348
0.811366
0.796293
0.856819
0.718385
0.834323
0.81062
0.711618
0.799559
0.814033
0.787333
0.800586
0.799598
0.814638
0.77704
0.774339
0.812968
0.69665
0.798521
0.765223
0.814496
0.816878
0.801889
0.787292
0.738106
0.751968
0.7737
0.814208
0.818573
0.805427
0.657647
0.801841
0.795475
0.77767
0.809606
0.812536
0.79941
0.803008
0.632959
0.803854
0.804479
0.851099
0.803601
0.808905
0.83305
0.805157
0.809747
0.852027
0.612005
0.803931
0.815748
0.805282
0.804896
0.805583
0.804466
0.804563
0.804085
0.805667
0.806182
0.724164
0.805558
0.806867
0.806461
0.814723
0.807998
0.818201
0.803043
0.803414
0.814309
0.814487
0.809646
0.803301
0.816092
0.812985
0.809484
0.815638
0.707881
0.813516
0.831245
0.81451
0.854083
0.7494
0.807725
0.814564
0.80065
0.60041
0.803173
0.77207
0.821545
0.626734
0.815167
0.829248
0.814246
0.811543
0.801983
0.826886
0.818916
0.803474
0.764481
0.816695
0.758299
0.546293
0.813906
0.695274
0.6945
0.820259
0.827359
0.827166
0.816292
0.84733
0.570938
0.876628
0.80511
0.825648
0.823968
0.812589
0.681216
0.814436
0.822418
0.815999
0.800852
0.773543
0.82213
0.564851
0.812804
0.842963
0.803037
0.839388
0.821172
0.803226
0.66854
0.843121
0.820107
0.836187
0.800741
0.813507
0.802999
0.833541
0.802725
0.813428
0.831103
0.828946
0.821889
0.823981
0.830647
0.738855
0.660651
0.563306
0.82709
0.825555
0.767029
0.756138
0.806052
0.824116
0.846671
0.590335
0.822825
0.821726
0.820808
0.819265
0.803808
0.820648
0.65714
0.743809
0.819999
0.797221
0.869878
0.89002
0.776167
0.803615
0.66908
0.835352
0.72992
0.717978
0.818995
0.80151
0.783242
0.660026
0.80208
0.81466
0.788685
0.711051
0.800184
0.817017
0.79784
0.675694
0.823263
0.792648
0.815351
0.833024
0.815015
0.79539
0.815802
0.815559
0.785667
0.803871
0.710055
0.840462
0.792895
0.810768
0.781708
0.804263
0.695457
0.800696
0.813347
0.811982
0.810815
0.809288
0.808196
0.807439
0.805812
0.8047
0.806621
0.724532
0.805251
0.801332
0.795756
0.803198
0.844296
0.714573
0.803123
0.775913
0.883865
0.854175
0.797868
0.722947
0.803169
0.797568
0.718533
0.803209
0.801562
0.733767
0.803532
0.789628
0.797129
0.800953
0.737022
0.779374
0.804182
0.74683
0.764119
0.769064
0.801275
0.814293
0.808465
0.758253
0.750972
0.7994
0.813311
0.80323
0.79269
0.800993
0.928601
0.860414
0.817405
0.814452
0.723515
0.844142
0.747267
0.825882
0.816289
0.898059
0.814625
0.796979
0.587883
0.814658
0.797093
0.814694
0.797513
0.845386
0.519885
0.832588
0.801443
0.805466
0.804738
0.803632
0.855668
0.801158
0.817041
0.701186
0.662345
0.666233
0.81474
0.501822
0.79752
0.721375
0.841631
0.814557
0.557132
0.801821
0.814151
0.81382
0.718637
0.801565
0.52376
0.797014
0.814881
0.797134
0.802613
0.797374
0.815054
0.833732
0.803215
0.798081
0.815454
0.798346
0.815607
0.813812
0.798628
0.815781
0.813373
0.815983
0.798737
0.816209
0.679104
0.798931
0.816462
0.802997
0.799121
0.816717
0.697285
0.814652
0.798082
0.81459
0.798194
0.809684
0.838117
0.861139
0.800826
0.800207
0.817664
0.815198
0.79985
0.799474
0.863344
0.811992
0.817334
0.810136
0.849726
0.828256
0.816305
0.825469
0.846016
0.814589
0.801336
0.81891
0.811401
0.801761
0.814485
0.799845
0.807289