# vtk DataFile Version 1.0
unstructured grid
ascii
DATASET UNSTRUCTURED_GRID
points 7812 float
-1 0 0
-1 1 0
2 0 0
2 1 0
0 0 0
1 0 0
-1 1 0.1
-1 0 0.1
0 0 0.1
1 0 0.1
2 0 0.1
2 1 0.1
-0.99 0 0
-0.98 0 0
-0.97 0 0
-0.96 0 0
-0.95 0 0
-0.94 0 0
-0.93 0 0
-0.92 0 0
-0.91 0 0
-0.9 0 0
-0.89 0 0
-0.88 0 0
-0.87 0 0
-0.86 0 0
-0.85 0 0
-0.84 0 0
-0.83 0 0
-0.82 0 0
-0.81 0 0
-0.8 0 0
-0.79 0 0
-0.78 0 0
-0.77 0 0
-0.76 0 0
-0.75 0 0
-0.74 0 0
-0.73 0 0
-0.72 0 0
-0.71 0 0
-0.7 0 0
-0.69 0 0
-0.68 0 0
-0.67 0 0
-0.66 0 0
-0.65 0 0
-0.64 0 0
-0.63 0 0
-0.62 0 0
-0.61 0 0
-0.6 0 0
-0.59 0 0
-0.58 0 0
-0.57 0 0
-0.56 0 0
-0.55 0 0
-0.54 0 0
-0.53 0 0
-0.52 0 0
-0.51 0 0
-0.5 0 0
-0.49 0 0
-0.48 0 0
-0.47 0 0
-0.46 0 0
-0.45 0 0
-0.44 0 0
-0.43 0 0
-0.42 0 0
-0.41 0 0
-0.4 0 0
-0.39 0 0
-0.38 0 0
-0.37 0 0
-0.36 0 0
-0.35 0 0
-0.34 0 0
-0.33 0 0
-0.32 0 0
-0.31 0 0
-0.3 0 0
-0.29 0 0
-0.28 0 0
-0.27 0 0
-0.26 0 0
-0.25 0 0
-0.24 0 0
-0.23 0 0
-0.22 0 0
-0.21 0 0
-0.2 0 0
-0.19 0 0
-0.18 0 0
-0.17 0 0
-0.16 0 0
-0.15 0 0
-0.14 0 0
-0.13 0 0
-0.12 0 0
-0.11 0 0
-0.1 0 0
-0.09 0 0
-0.08 0 0
-0.07 0 0
-0.06 0 0
-0.05 0 0
-0.04 0 0
-0.03 0 0
-0.02 0 0
-0.01 0 0
1.01 0 0
1.02 0 0
1.03 0 0
1.04 0 0
1.05 0 0
1.06 0 0
1.07 0 0
1.08 0 0
1.09 0 0
1.1 0 0
1.11 0 0
1.12 0 0
1.13 0 0
1.14 0 0
1.15 0 0
1.16 0 0
1.17 0 0
1.18 0 0
1.19 0 0
1.2 0 0
1.21 0 0
1.22 0 0
1.23 0 0
1.24 0 0
1.25 0 0
1.26 0 0
1.27 0 0
1.28 0 0
1.29 0 0
1.3 0 0
1.31 0 0
1.32 0 0
1.33 0 0
1.34 0 0
1.35 0 0
1.36 0 0
1.37 0 0
1.38 0 0
1.39 0 0
1.4 0 0
1.41 0 0
1.42 0 0
1.43 0 0
1.44 0 0
1.45 0 0
1.46 0 0
1.47 0 0
1.48 0 0
1.49 0 0
1.5 0 0
1.51 0 0
1.52 0 0
1.53 0 0
1.54 0 0
1.55 0 0
1.56 0 0
1.57 0 0
1.58 0 0
1.59 0 0
1.6 0 0
1.61 0 0
1.62 0 0
1.63 0 0
1.64 0 0
1.65 0 0
1.66 0 0
1.67 0 0
1.68 0 0
1.69 0 0
1.7 0 0
1.71 0 0
1.72 0 0
1.73 0 0
1.74 0 0
1.75 0 0
1.76 0 0
1.77 0 0
1.78 0 0
1.79 0 0
1.8 0 0
1.81 0 0
1.82 0 0
1.83 0 0
1.84 0 0
1.85 0 0
1.86 0 0
1.87 0 0
1.88 0 0
1.89 0 0
1.9 0 0
1.91 0 0
1.92 0 0
1.93 0 0
1.94 0 0
1.95 0 0
1.96 0 0
1.97 0 0
1.98 0 0
1.99 0 0
2 0.010289 0
2 0.0215307 0
2 0.0338135 0
2 0.0472336 0
2 0.0618965 0
2 0.0779171 0
2 0.0954213 0
2 0.114546 0
2 0.135442 0
2 0.158274 0
2 0.183219 0
2 0.210474 0
2 0.240253 0
2 0.27279 0
2 0.308339 0
2 0.347181 0
2 0.389619 0
2 0.435987 0
2 0.486649 0
2 0.542002 0
2 0.602481 0
2 0.66856 0
2 0.740758 0
2 0.819642 0
2 0.90583 0
1.9 1 0
1.8 1 0
1.7 1 0
1.6 1 0
1.5 1 0
1.4 1 0
1.3 1 0
1.2 1 0
1.1 1 0
1 1 0
0.9 1 0
0.8 1 0
0.7 1 0
0.6 1 0
0.5 1 0
0.4 1 0
0.3 1 0
0.2 1 0
0.1 1 0
3.69793e-12 1 0
-0.1 1 0
-0.2 1 0
-0.3 1 0
-0.4 1 0
-0.5 1 0
-0.6 1 0
-0.7 1 0
-0.8 1 0
-0.9 1 0
-1 0.90583 0
-1 0.819642 0
-1 0.740758 0
-1 0.66856 0
-1 0.602481 0
-1 0.542002 0
-1 0.486649 0
-1 0.435987 0
-1 0.389619 0
-1 0.347181 0
-1 0.308339 0
-1 0.27279 0
-1 0.240253 0
-1 0.210474 0
-1 0.183219 0
-1 0.158274 0
-1 0.135442 0
-1 0.114546 0
-1 0.0954213 0
-1 0.0779171 0
-1 0.0618965 0
-1 0.0472336 0
-1 0.0338135 0
-1 0.0215307 0
-1 0.010289 0
0.00921362 0.00379763 0
0.0184561 0.00752451 0
0.0277268 0.0111804 0
0.0370253 0.0147652 0
0.0463511 0.0182786 0
0.0557034 0.0217203 0
0.0650819 0.0250903 0
0.074486 0.0283883 0
0.083915 0.0316141 0
0.0933685 0.0347675 0
0.102846 0.0378484 0
0.112347 0.0408565 0
0.12187 0.0437917 0
0.131416 0.0466538 0
0.140983 0.0494427 0
0.150572 0.0521581 0
0.160181 0.0547999 0
0.16981 0.0573681 0
0.179458 0.0598623 0
0.189125 0.0622825 0
0.198811 0.0646285 0
0.208514 0.0669001 0
0.218234 0.0690974 0
0.227971 0.07122 0
0.237724 0.073268 0
0.247493 0.0752411 0
0.257276 0.0771393 0
0.267073 0.0789625 0
0.276884 0.0807105 0
0.286708 0.0823832 0
0.296545 0.0839806 0
0.306394 0.0855025 0
0.316254 0.0869488 0
0.326125 0.0883196 0
0.336006 0.0896146 0
0.345896 0.0908339 0
0.355796 0.0919773 0
0.365704 0.0930447 0
0.375621 0.0940362 0
0.385544 0.0949517 0
0.395474 0.095791 0
0.40541 0.0965542 0
0.415352 0.0972412 0
0.425299 0.097852 0
0.43525 0.0983865 0
0.445205 0.0988447 0
0.455164 0.0992266 0
0.465125 0.0995321 0
0.475088 0.0997613 0
0.485052 0.0999141 0
0.495017 0.0999904 0
0.504983 0.0999904 0
0.514948 0.0999141 0
0.524912 0.0997613 0
0.534875 0.0995321 0
0.544836 0.0992266 0
0.554795 0.0988447 0
0.56475 0.0983865 0
0.574701 0.097852 0
0.584648 0.0972412 0
0.59459 0.0965542 0
0.604526 0.095791 0
0.614456 0.0949517 0
0.624379 0.0940362 0
0.634296 0.0930447 0
0.644204 0.0919773 0
0.654104 0.0908339 0
0.663994 0.0896146 0
0.673875 0.0883196 0
0.683746 0.0869488 0
0.693606 0.0855025 0
0.703455 0.0839806 0
0.713292 0.0823832 0
0.723116 0.0807105 0
0.732927 0.0789625 0
0.742724 0.0771393 0
0.752508 0.0752411 0
0.762276 0.073268 0
0.772029 0.07122 0
0.781766 0.0690974 0
0.791486 0.0669001 0
0.801189 0.0646285 0
0.810875 0.0622825 0
0.820542 0.0598623 0
0.83019 0.0573681 0
0.839819 0.0547999 0
0.849428 0.0521581 0
0.859017 0.0494427 0
0.868584 0.0466538 0
0.87813 0.0437917 0
0.887653 0.0408565 0
0.897154 0.0378484 0
0.906631 0.0347675 0
0.916085 0.0316141 0
0.925514 0.0283883 0
0.934918 0.0250903 0
0.944297 0.0217203 0
0.953649 0.0182786 0
0.962975 0.0147652 0
0.972273 0.0111804 0
0.981544 0.00752451 0
0.990786 0.00379763 0
-1 0.90583 0.1
-1 0.819642 0.1
-1 0.740758 0.1
-1 0.66856 0.1
-1 0.602481 0.1
-1 0.542002 0.1
-1 0.486649 0.1
-1 0.435987 0.1
-1 0.389619 0.1
-1 0.347181 0.1
-1 0.308339 0.1
-1 0.27279 0.1
-1 0.240253 0.1
-1 0.210474 0.1
-1 0.183219 0.1
-1 0.158274 0.1
-1 0.135442 0.1
-1 0.114546 0.1
-1 0.0954213 0.1
-1 0.0779171 0.1
-1 0.0618965 0.1
-1 0.0472336 0.1
-1 0.0338135 0.1
-1 0.0215307 0.1
-1 0.010289 0.1
-0.99 0 0.1
-0.98 0 0.1
-0.97 0 0.1
-0.96 0 0.1
-0.95 0 0.1
-0.94 0 0.1
-0.93 0 0.1
-0.92 0 0.1
-0.91 0 0.1
-0.9 0 0.1
-0.89 0 0.1
-0.88 0 0.1
-0.87 0 0.1
-0.86 0 0.1
-0.85 0 0.1
-0.84 0 0.1
-0.83 0 0.1
-0.82 0 0.1
-0.81 0 0.1
-0.8 0 0.1
-0.79 0 0.1
-0.78 0 0.1
-0.77 0 0.1
-0.76 0 0.1
-0.75 0 0.1
-0.74 0 0.1
-0.73 0 0.1
-0.72 0 0.1
-0.71 0 0.1
-0.7 0 0.1
-0.69 0 0.1
-0.68 0 0.1
-0.67 0 0.1
-0.66 0 0.1
-0.65 0 0.1
-0.64 0 0.1
-0.63 0 0.1
-0.62 0 0.1
-0.61 0 0.1
-0.6 0 0.1
-0.59 0 0.1
-0.58 0 0.1
-0.57 0 0.1
-0.56 0 0.1
-0.55 0 0.1
-0.54 0 0.1
-0.53 0 0.1
-0.52 0 0.1
-0.51 0 0.1
-0.5 0 0.1
-0.49 0 0.1
-0.48 0 0.1
-0.47 0 0.1
-0.46 0 0.1
-0.45 0 0.1
-0.44 0 0.1
-0.43 0 0.1
-0.42 0 0.1
-0.41 0 0.1
-0.4 0 0.1
-0.39 0 0.1
-0.38 0 0.1
-0.37 0 0.1
-0.36 0 0.1
-0.35 0 0.1
-0.34 0 0.1
-0.33 0 0.1
-0.32 0 0.1
-0.31 0 0.1
-0.3 0 0.1
-0.29 0 0.1
-0.28 0 0.1
-0.27 0 0.1
-0.26 0 0.1
-0.25 0 0.1
-0.24 0 0.1
-0.23 0 0.1
-0.22 0 0.1
-0.21 0 0.1
-0.2 0 0.1
-0.19 0 0.1
-0.18 0 0.1
-0.17 0 0.1
-0.16 0 0.1
-0.15 0 0.1
-0.14 0 0.1
-0.13 0 0.1
-0.12 0 0.1
-0.11 0 0.1
-0.1 0 0.1
-0.09 0 0.1
-0.08 0 0.1
-0.07 0 0.1
-0.06 0 0.1
-0.05 0 0.1
-0.04 0 0.1
-0.03 0 0.1
-0.02 0 0.1
-0.01 0 0.1
0.00921362 0.00379763 0.1
0.0184561 0.00752451 0.1
0.0277268 0.0111804 0.1
0.0370253 0.0147652 0.1
0.0463511 0.0182786 0.1
0.0557034 0.0217203 0.1
0.0650819 0.0250903 0.1
0.074486 0.0283883 0.1
0.083915 0.0316141 0.1
0.0933685 0.0347675 0.1
0.102846 0.0378484 0.1
0.112347 0.0408565 0.1
0.12187 0.0437917 0.1
0.131416 0.0466538 0.1
0.140983 0.0494427 0.1
0.150572 0.0521581 0.1
0.160181 0.0547999 0.1
0.16981 0.0573681 0.1
0.179458 0.0598623 0.1
0.189125 0.0622825 0.1
0.198811 0.0646285 0.1
0.208514 0.0669001 0.1
0.218234 0.0690974 0.1
0.227971 0.07122 0.1
0.237724 0.073268 0.1
0.247493 0.0752411 0.1
0.257276 0.0771393 0.1
0.267073 0.0789625 0.1
0.276884 0.0807105 0.1
0.286708 0.0823832 0.1
0.296545 0.0839806 0.1
0.306394 0.0855025 0.1
0.316254 0.0869488 0.1
0.326125 0.0883196 0.1
0.336006 0.0896146 0.1
0.345896 0.0908339 0.1
0.355796 0.0919773 0.1
0.365704 0.0930447 0.1
0.375621 0.0940362 0.1
0.385544 0.0949517 0.1
0.395474 0.095791 0.1
0.40541 0.0965542 0.1
0.415352 0.0972412 0.1
0.425299 0.097852 0.1
0.43525 0.0983865 0.1
0.445205 0.0988447 0.1
0.455164 0.0992266 0.1
0.465125 0.0995321 0.1
0.475088 0.0997613 0.1
0.485052 0.0999141 0.1
0.495017 0.0999904 0.1
0.504983 0.0999904 0.1
0.514948 0.0999141 0.1
0.524912 0.0997613 0.1
0.534875 0.0995321 0.1
0.544836 0.0992266 0.1
0.554795 0.0988447 0.1
0.56475 0.0983865 0.1
0.574701 0.097852 0.1
0.584648 0.0972412 0.1
0.59459 0.0965542 0.1
0.604526 0.095791 0.1
0.614456 0.0949517 0.1
0.624379 0.0940362 0.1
0.634296 0.0930447 0.1
0.644204 0.0919773 0.1
0.654104 0.0908339 0.1
0.663994 0.0896146 0.1
0.673875 0.0883196 0.1
0.683746 0.0869488 0.1
0.693606 0.0855025 0.1
0.703455 0.0839806 0.1
0.713292 0.0823832 0.1
0.723116 0.0807105 0.1
0.732927 0.0789625 0.1
0.742724 0.0771393 0.1
0.752508 0.0752411 0.1
0.762276 0.073268 0.1
0.772029 0.07122 0.1
0.781766 0.0690974 0.1
0.791486 0.0669001 0.1
0.801189 0.0646285 0.1
0.810875 0.0622825 0.1
0.820542 0.0598623 0.1
0.83019 0.0573681 0.1
0.839819 0.0547999 0.1
0.849428 0.0521581 0.1
0.859017 0.0494427 0.1
0.868584 0.0466538 0.1
0.87813 0.0437917 0.1
0.887653 0.0408565 0.1
0.897154 0.0378484 0.1
0.906631 0.0347675 0.1
0.916085 0.0316141 0.1
0.925514 0.0283883 0.1
0.934918 0.0250903 0.1
0.944297 0.0217203 0.1
0.953649 0.0182786 0.1
0.962975 0.0147652 0.1
0.972273 0.0111804 0.1
0.981544 0.00752451 0.1
0.990786 0.00379763 0.1
1.01 0 0.1
1.02 0 0.1
1.03 0 0.1
1.04 0 0.1
1.05 0 0.1
1.06 0 0.1
1.07 0 0.1
1.08 0 0.1
1.09 0 0.1
1.1 0 0.1
1.11 0 0.1
1.12 0 0.1
1.13 0 0.1
1.14 0 0.1
1.15 0 0.1
1.16 0 0.1
1.17 0 0.1
1.18 0 0.1
1.19 0 0.1
1.2 0 0.1
1.21 0 0.1
1.22 0 0.1
1.23 0 0.1
1.24 0 0.1
1.25 0 0.1
1.26 0 0.1
1.27 0 0.1
1.28 0 0.1
1.29 0 0.1
1.3 0 0.1
1.31 0 0.1
1.32 0 0.1
1.33 0 0.1
1.34 0 0.1
1.35 0 0.1
1.36 0 0.1
1.37 0 0.1
1.38 0 0.1
1.39 0 0.1
1.4 0 0.1
1.41 0 0.1
1.42 0 0.1
1.43 0 0.1
1.44 0 0.1
1.45 0 0.1
1.46 0 0.1
1.47 0 0.1
1.48 0 0.1
1.49 0 0.1
1.5 0 0.1
1.51 0 0.1
1.52 0 0.1
1.53 0 0.1
1.54 0 0.1
1.55 0 0.1
1.56 0 0.1
1.57 0 0.1
1.58 0 0.1
1.59 0 0.1
1.6 0 0.1
1.61 0 0.1
1.62 0 0.1
1.63 0 0.1
1.64 0 0.1
1.65 0 0.1
1.66 0 0.1
1.67 0 0.1
1.68 0 0.1
1.69 0 0.1
1.7 0 0.1
1.71 0 0.1
1.72 0 0.1
1.73 0 0.1
1.74 0 0.1
1.75 0 0.1
1.76 0 0.1
1.77 0 0.1
1.78 0 0.1
1.79 0 0.1
1.8 0 0.1
1.81 0 0.1
1.82 0 0.1
1.83 0 0.1
1.84 0 0.1
1.85 0 0.1
1.86 0 0.1
1.87 0 0.1
1.88 0 0.1
[...]
CELL_DATA 7425
SCALARS rho float
LOOKUP_TABLE default
0.586964
0.805022
0.819469
0.82745
0.799344
0.81907
0.820848
0.814029
0.812868
0.738549
0.863454
0.810003
0.81379
0.827306
0.803642
0.81706
0.798681
0.813154
0.803457
0.767199
0.831207
0.822019
0.724695
0.827978
0.803863
0.702815
0.831141
0.848156
0.800148
0.807894
0.819304
0.725562
0.803603
0.651926
0.518886
0.827944
0.803496
0.814006
0.811112
0.827943
0.71581
0.702905
0.789913
0.702503
0.586229
0.748146
0.79923
0.813723
0.660865
0.719337
0.746297
0.805138
0.812331
0.799004
0.70996
0.618524
0.822835
0.800039
0.738419
0.700799
0.709209
0.807642
0.813123
0.799313
0.798757
0.817519
0.584164
0.773208
0.704909
0.807809
0.804119
0.803196
0.883376
0.821091
0.810814
0.812928
0.805034
0.800425
0.81313
0.757714
0.815883
0.807221
0.81018
0.788608
0.835854
0.801024
0.574251
0.829894
0.542216
0.84843
0.707241
0.729654
0.845121
0.803166
0.817308
0.758087
0.835979
0.787982
0.825553
0.8024
0.808004
0.738665
0.803276
0.828174
0.59706
0.811041
0.824301
0.707312
0.814896
0.799091
0.816617
0.784492
0.78973
0.812411
0.789644
0.786277
0.83119
0.803099
0.700346
0.628908
0.805033
0.777194
0.812831
0.79037
0.858892
0.838738
0.807677
0.804207
0.661062
0.503693
0.814374
0.65488
0.51478
0.867549
0.661154
0.799438
0.811077
0.72344
0.581808
0.724622
0.723092
0.809542
0.809532
0.707462
0.803089
0.779565
0.56528
0.788418
0.782531
0.827696
0.816699
0.704153
0.802833
0.744295
0.705372
0.803264
0.810404
0.830341
0.797491
0.651741
0.802481
0.703783
0.80103
0.829673
0.820374
0.802362
0.812951
0.784744
0.806257
0.800574
0.819623
0.804398
0.791087
0.799054
0.799822
0.739959
0.803622
0.758594
0.593791
0.707227
0.799606
0.792627
0.879767
0.831782
0.610647
0.822847
0.79856
0.827233
0.799801
0.813297
0.812492
0.803182
0.806923
0.704758
0.814912
0.819173
0.77004
0.797064
0.860979
0.807744
0.81178
0.811054
0.612713
0.838788
0.572825
0.531438
0.595316
0.600081
0.828071
0.8793
0.80751
0.798636
0.841334
0.812854
0.816591
0.820683
0.815104
0.637891
0.548218
0.81362
0.545248
0.592255
0.703609
0.811602
0.813963
0.812928
0.83307
0.812793
0.864063
0.710182
0.83516
0.712373
0.805149
0.80391
0.801936
0.713793
0.720244
0.619389
0.70586
0.863576
0.87523
0.806142
0.807678
0.798781
0.811471
0.715591
0.821526
0.800111
0.82562
0.794595
0.80974
0.721446
0.812695
0.823658
0.739608
0.528254
0.799796
0.736449
0.843238
0.814243
0.726669
0.815481
0.814741
0.849906
0.809407
0.803784
0.803244
0.825577
0.860715
0.805355
0.61915
0.848836
0.811902
0.805586
0.827469
0.837283
0.81288
0.821353
0.79347
0.814973
0.866462
0.8499
0.827257
0.836675
0.802644
0.817068
0.803185
0.759661
0.701044
0.580705
0.701176
0.802261
0.812778
0.81589
0.854578
0.77961
0.645634
0.827007
0.520464
0.774209
0.800904
0.646293
0.494654
0.63899
0.815099
0.813125
0.812853
0.812619
0.826641
0.77439
0.811458
0.802654
0.81279
0.840651
0.86696
0.833492
0.802701
0.706621
0.795821
0.834232
0.691467
0.798669
0.802028
0.864744
0.817008
0.592895
0.813286
0.740331
0.852173
0.731863
0.810002
0.907638
0.79979
0.79556
0.658835
0.635453
0.711922
0.780487
0.826466
0.814835
0.813586
0.882253
0.858032
0.799458
0.799098
0.825999
0.739085
0.802498
0.879353
0.80137
0.804614
0.800624
0.802556
0.812859
0.815624
0.816278
0.636005
0.829906
0.645215
0.808404
0.639122
0.80254
0.80222
0.840205
0.728503
0.816323
0.808479
0.816889
0.799433
0.802484
0.811212
0.696445
0.824439
0.812947
0.812821
0.800668
0.736791
0.559771
0.806397
0.810911
0.80318
0.812779
0.794658
0.502481
0.845931
0.813208
0.803837
0.785654
0.813153
0.804615
0.802971
0.816143
0.807494
0.822429
0.768534
0.812594
0.807751
0.562493
0.803039
0.640001
0.838709
0.636113
0.814601
0.877866
0.592831
0.818033
0.748859
0.804399
0.87331
0.533391
0.823042
0.822178
0.803486
0.825662
0.81101
0.823378
0.830567
0.82476
0.739544
0.827447
0.761661
0.81015
0.794212
0.793556
0.758503
0.805581
0.80208
0.814379
0.752089
0.804654
0.604279
0.614074
0.688779
0.812703
0.844142
0.864795
0.829812
0.798504
0.812528
0.804834
0.818443
0.680394
0.800923
0.742853
0.823999
0.814705
0.805306
0.712045
0.727123
0.533424
0.605479
0.801224
0.611257
0.792502
0.765323
0.769975
0.727168
0.762373
0.767438
0.809332
0.814833
0.819465
0.811356
0.710294
0.6018
0.838972
0.806842
0.783104
0.809745
0.802525
0.836494
0.717921
0.855236
0.763657
0.728125
0.764415
0.811415
0.544761
0.798752
0.841557
0.813232
0.813681
0.809614
0.799088
0.780201
0.835648
0.803099
0.842916
0.721008
0.707609
0.800288
0.795082
0.82194
0.708579
0.847908
0.800343
0.81596
0.798656
0.779129
0.808177
0.594471
0.677321
0.632302
0.812832
0.803755
0.826282
0.749174
0.810579
0.8147
0.820311
0.798901
0.729152
0.796792
0.814207
0.80319
0.702907
0.813488
0.818827
0.839966
0.81067
0.825261
0.862257
0.857233
0.74381
0.603271
0.837984
0.805748
0.843337
0.814127
0.822853
0.813418
0.8137
0.632716
0.805103
0.809228
0.81271
0.791838
0.810532
0.804691
0.860388
0.798587
0.812623
0.814616
0.871885
0.597491
0.813355
0.842318
0.883292
0.530235
0.816313
0.829879
0.796119
0.814727
0.794885
0.86756
0.812134
0.831282
0.812626
0.619224
0.802378
0.804135
0.690612
0.853101
0.759774
0.801784
0.813877
0.812606
0.859576
0.795329
0.833558
0.834658
0.784204
0.825124
0.842252
0.799669
0.810412
0.806879
0.805302
0.814762
0.802623
0.845173
0.769203
0.809762
0.803144
0.815153
0.723024
0.812784
0.818269
0.752527
0.813483
0.816284
0.827481
0.825044
0.800653
0.800609
0.85046
0.767944
0.825048
0.844154
0.804545
0.505326
0.812791
0.82821
0.852348
0.812555
0.803144
0.808504
0.855007
0.78007
0.802574
0.801177
0.812827
0.726938
0.802671
0.82995
0.807935
0.794948
0.793431
0.843145
0.806593
0.845277
0.802014
0.824176
0.812665
0.804206
0.84181
0.812761
0.679265
0.818696
0.807085
0.812737
0.906129
0.800763
0.815821
0.800443
0.80035
0.816115
0.800456
0.803347
0.783726
0.747315
0.806417
0.812788
0.757944
0.791324
0.822949
0.813001
0.822182
0.806275
0.825702
0.875276
0.830583
0.574446
0.708721
0.840698
0.817204
0.844108
0.814672
0.850059
0.807261
0.812343
0.799286
0.838355
0.860891
0.852746
0.731416
0.813992
0.822105
0.744008
0.81702
0.775886
0.80018
0.732973
0.815977
0.830801
0.82344
0.861713
0.814122
0.813197
0.810094
0.814553
0.835741
0.812183
0.798598
0.810217
0.737443
0.811244
0.774185
0.832783
0.812686
0.638688
0.7776
0.811073
0.799118
0.819748
0.802409
0.814585
0.817216
0.80441
0.81932
0.804153
0.805774
0.596988
0.846993
0.825062
0.826635
0.814843
0.803213
0.701753
0.806408
0.907819
0.813497
0.800961
0.812789
0.782244
0.807179
0.813193
0.821211
0.814618
0.813127
0.816153
0.702357
0.777774
0.764498
0.81256
0.805274
0.800957
0.621202
0.805639
0.802571
0.708081
0.837124
0.817116
0.802149
0.807386
0.799349
0.817169
0.813875
0.813189
0.812771
0.7096
0.83164
0.800262
0.807333
0.842732
0.817543
0.81621
0.80012
0.753628
0.823769
0.787341
0.821361
0.789384
0.80556
0.820878
0.737496
0.817331
0.650168
0.871995
0.704235
0.844956
0.800726
0.87513
0.793641
0.801644
0.820596
0.836154
0.838369
0.825407
0.819751
0.814626
0.801059
0.804164
0.808211
0.725545
0.827197
0.800071
0.719732
0.830479
0.706853
0.799933
0.860275
0.805566
0.701164
0.797821
0.813994
0.705167
0.785652
0.819308
0.831807
0.806878
0.572207
0.728449
0.812366
0.801256
0.812821
0.800613
0.737145
0.813924
0.815632
0.812388
0.7753
0.803257
0.804478
0.8035
0.560266
0.812608
0.834065
0.57954
0.815078
0.816019
0.814608
0.818281
0.814332
0.82447
0.799012
0.795103
0.771036
0.822856
0.829626
0.825066
0.83479
0.76528
0.808911
0.724221
0.772345
0.808731
0.820999
0.813188
0.800962
0.858164
0.812825
0.800259
0.809502
0.816013
0.815101
0.836573
0.814404
0.812706
0.811965
0.813726
0.800071
0.820922
0.803753
0.822758
0.813371
0.575275
0.813419
0.834405
0.85795
0.838138
0.490344
0.816726
0.804468
0.496216
0.669167
0.642813
0.834245
0.807919
0.811635
0.812702
0.8032
0.816667
0.810917
0.534316
0.686268
0.818203
0.806612
0.81553
0.803498
0.810215
0.810811
0.820166
0.799464
0.692025
0.855802
0.803146
0.814697
0.813531
0.757711
0.485274
0.832834
0.813497
0.742028
0.802697
0.806132
0.590583
0.82747
0.814697
0.827655
0.818703
0.8259
0.804718
0.719203
0.64344
0.561884
0.825248
0.80844
0.782976
0.812871
0.77972
0.81781
0.873286
0.762302
0.821536
0.813437
0.825771
0.883538
0.814353
0.81174
0.803248
0.813849
0.691565
0.828143
0.799827
0.810087
0.802188
0.784219
0.854118
0.821969
0.840442
0.82145
0.757605
0.755847
0.803238
0.818026
0.803058
0.805231
0.802569
0.775571
0.814597
0.761496
0.821066
0.661948
0.813882
0.802944
0.735805
0.823206
0.817908
0.739916
0.801148
0.75714
0.880502
0.800712
0.812735
0.762606
0.800015
0.814182
0.803938
0.58969
0.820884
0.798602
0.80127
0.814436
0.825548
0.757043
0.805452
0.841524
0.826853
0.814058
0.83578
0.701316
0.70005
0.812821
0.744086
0.822145
0.771306
0.812728
0.802503
0.810341
0.751885
0.794175
0.764249
0.809803
0.803138
0.631073
0.778961
0.799223
0.848899
0.814278
0.828586
0.526156
0.825308
0.785086
0.858696
0.800929
0.817937
0.800213
0.78572
0.798679
0.825648
0.83572
0.821709
0.817039
0.707112
0.773757
0.815285
0.805367
0.809876
0.803897
0.70714
0.792768
0.803422
0.810576
0.827097
0.851173
0.83179
0.813369
0.799361
0.804172
0.801976
0.779591
0.611454
0.80025
0.731158
0.661776
0.822737
0.798781
0.777271
0.799912
0.75409
0.785265
0.811351
0.822108
0.803277
0.815925
0.817287
0.820611
0.813292
0.808415
0.712062
0.699291
0.640781
0.829214
0.869534
0.815312
0.841291
0.847791
0.863705
0.735508
0.816515
0.862977
0.810122
0.812765
0.81613
0.732677
0.812339
0.806576
0.806115
0.516923
0.812862
0.761107
0.813059
0.813763
0.803532
0.705725
0.813099
0.610455
0.824973
0.80222
0.82219
0.855121
0.803419
0.795348
0.820857
0.811485
0.805667
0.762184
0.50942
0.820821
0.803069
0.828838
0.825693
0.80202
0.807009
0.834414
0.720705
0.499972
0.886237
0.800515
0.815601
0.804309
0.710608
0.79856
0.799935
0.814974
0.735907
0.646376
0.883225
0.714046
0.836491
0.811888
0.832827
0.84261
0.792096
0.804732
0.813501
0.852742
0.738236
0.870674
0.813922
0.562604
0.802381
0.748959
0.852867
0.760199
0.804204
0.803942
0.799565
0.80156
0.808783
0.8128
0.855435
0.80591
0.80286
0.801301
0.799939
0.812133
0.816788
0.80261
0.812376
0.849158
0.803093
0.783382
0.802225
0.839489
0.724805
0.813531
0.813732
0.635653
0.712993
0.805524
0.822952
0.803473
0.511336
0.856202
0.813119
0.832899
0.805291
0.803305
0.801312
0.786168
0.587015
0.804274
0.816013
0.835946
0.820487
0.812843
0.79808
0.746812
0.801549
0.765673
0.787501
0.799261
0.790934
0.751057
0.800777
0.811372
0.810273
0.832148
0.848953
0.552978
0.841848
0.812735
0.820825
0.801941
0.822631
0.810968
0.894593
0.800177
0.866964
0.805667
0.759672
0.862089
0.802264
0.80023
0.82409
0.660267
0.645151
0.803384
0.803841
0.705536
0.654172
0.799888
0.823779
0.812925
0.822512
0.732815
0.817124
0.812738
0.826061
0.816873
0.811923
0.812755
0.754505
0.803819
0.81559
0.811222
0.676106
0.566225
0.812792
0.649874
0.721837
0.554874
0.841342
0.800053
0.526535
0.600594
0.827463
0.908051
0.818063
0.65218
0.814064
0.786364
0.801655
0.786317
0.82056
0.810025
0.788248
0.820979
0.800927
0.587449
0.817741
0.766591
0.815843
0.701158
0.822145
0.789566
0.813855
0.799972
0.662741
0.843469
0.80649
0.806531
0.493101
0.816746
0.800317
0.852042
0.711446
0.817
0.583388
0.718669
0.801341
0.796597
0.732551
0.715397
0.71615
0.506533
0.588586
0.799909
0.517074
0.822524
0.519614
0.757115
0.671018
0.598499
0.54019
0.74535
0.803075
0.715404
0.821218
0.80089
0.802887
0.761118
0.889655
0.798969
0.824409
0.803414
0.81268
0.705857
0.807492
0.736609
0.821833
0.886013
0.833516
0.747623
0.822714
0.770415
0.879876
0.804183
0.75859
0.850636
0.776786
0.799914
0.805206
0.758156
0.744459
0.664712
0.80497
0.803016
0.817828
0.833428
0.611338
0.807827
0.537765
0.668467
0.615877
0.818423
0.820964
0.808902
0.803963
0.615529
0.872429
0.80267
0.80294
0.863477
0.812315
0.77196
0.812052
0.802356
0.817818
0.80314
0.716943
0.803309
0.654963
0.798934
0.80402
0.801522
0.639033
0.811462
0.810245
0.725606
0.817713
0.548845
0.576487
0.804131
0.69637
0.725854
0.571894
0.723466
0.813523
0.70789
0.772921
0.716798
0.812747
0.67007
0.762032
0.806407
0.810515
0.654299
0.801928
0.895134
0.79667
0.816709
0.584792
0.693684
0.800852
0.812836
0.813914
0.851616
0.812542
0.804234
0.803712
0.803327
0.713676
0.717625
0.615446
0.771382
0.532283
0.724039
0.809824
0.814316
0.806049
0.799188
0.534539
0.808971
0.803745
0.553686
0.542953
0.746513
0.80356
0.8061
0.549082
0.798165
0.56936
0.720245
0.60759
0.813477
0.802195
0.596844
0.608117
0.86786
0.80999
0.765334
0.717707
0.621327
0.655195
0.710059
0.815926
0.759701
0.765507
0.623847
0.753779
0.809217
0.815275
0.812345
0.815381
0.865457
0.754589
0.818849
0.803314
0.851236
0.812748
0.802764
0.812974
0.722718
0.812863
0.811905
0.815097
0.811064
0.815806
0.803262
0.817842
0.810297
0.809647
0.817182
0.800099
0.816508
0.818868
0.667341
0.818524
0.868378
0.818083
0.7929
0.645772
0.858537
0.818704
0.824812
0.799468
0.8111
0.757507
0.852497
0.558535
0.726436
0.809842
0.815575
0.803861
0.80335
0.831981
0.804942
0.805151
0.81517
0.780648
0.838492
0.841891
0.815134
0.664183
0.611674
0.815674
0.816533
0.788215
0.849578
0.84721
0.810757
0.813541
0.777679
0.813992
0.817747
0.814016
0.818691
0.813005
0.815732
0.850993
0.815877
0.814413
0.817466
0.817681
0.784853
0.81403
0.803973
0.804041
0.804544
0.818483
0.811373
0.788274
0.753998
0.812566
0.80626
0.80868
0.806359
0.85773
0.803282
0.8139
0.812585
0.805128
0.554429
0.803872
0.812628
0.814925
0.81029
0.81267
0.813194
0.812913
0.810157
0.864356
0.501083
0.8127
0.841605
0.812538
0.802941
0.808378
0.814902
0.839618
0.800371
0.801129
0.812549
0.706609
0.812717
0.808148
0.807265
0.812444
0.812771
0.812915
0.81325
0.51136
0.811836
0.715524
0.885815
0.820977
0.73349
0.670623
0.815266
0.803428
0.81864
0.646348
0.80162
0.813222
0.647839
0.799776
0.804071
0.815336
0.806211
0.856692
0.80983
0.60675
0.80077
0.775175
0.811191
0.889046
0.803214
0.815489
0.819254
0.832152
0.813288
0.822316
0.836279
0.634816
0.802553
0.655639
0.813639
0.813539
0.712663
0.813424
0.804735
0.713218
0.81484
0.70098
0.861029
0.784019
0.814192
0.812774
0.813318
0.667701
0.813545
0.633156
0.800137
0.792334
0.822212
0.81508
0.715856
0.766686
0.829976
0.812642
0.821239
0.821819
0.813326
0.825252
0.799428
0.551854
0.754919
0.759107
0.731526
0.837541
0.822254
0.834284
0.775928
0.802749
0.81291
0.812831
0.812834
0.774578
0.56359
0.803193
0.528086
0.808128
0.824175
0.799626
0.803745
0.812863
0.805991
0.782537
0.73212
0.813275
0.859101
0.813623
0.799218
0.736964
0.809509
0.788683
0.833664
0.503338
0.795953
0.805809
0.798797
0.688626
0.812725
0.810668
0.856927
0.568861
0.807311
0.803259
0.812711
0.612158
0.81297
0.803324
0.803391
0.803016
0.813083
0.813182
0.816008
0.81292
0.71805
0.804483
0.803191
0.812868
0.896139
0.813028
0.773902
0.841064
0.799164
0.803125
0.601153
0.81276
0.803347
0.825557
0.801941
0.86618
0.814746
0.853285
0.800263
0.820543
0.777827
0.558041
0.752585
0.794157
0.80384
0.813914
0.813693
0.555255
0.861742
0.857774
0.768367
0.757636
0.73849
0.811967
0.848304
0.812799
0.813645
0.812834
0.804258
0.726773
0.803487
0.799033
0.764229
0.824174
0.822906
0.8618
0.815546
0.812845
0.523422
0.808867
0.812804
0.800645
0.773893
0.818042
0.803103
0.812763
0.826798
0.798422
0.803528
0.80117
0.815085
0.839047
0.802295
0.799093
0.80141
0.766099
0.819766
0.566843
0.868338
0.803672
0.545485
0.803093
0.803055
0.819474
0.590817
0.605962
0.801489
0.803554
0.800777
0.860686
0.77986
0.814534
0.802923
0.865577
0.804697
0.804435
0.826247
0.815849
0.819997
0.821177
0.820225
0.867438
0.729165
0.852096
0.817092
0.653527
0.802482
0.803169
0.803621
0.821019
0.823409
0.803913
0.801019
0.79998
0.822577
0.803142
0.803587
0.799587
0.824287
0.803956
0.801959
0.806057
0.827774
0.800458
0.801459
0.824166
0.799517
0.815264
0.651122
0.826292
0.849783
0.804819
0.819465
0.803211
0.828654
0.837413
0.803385
0.821373
0.800477
0.806895
0.789524
0.802125
0.803101
0.806337
0.805848
0.804439
0.818435
0.814625
0.811206
0.831317
0.802102
0.802198
0.799831
0.78898
0.833701
0.803125
0.819193
0.815087
0.80706
0.80497
0.80294
0.838828
0.864589
0.799497
0.67882
0.801135
0.842072
0.816475
0.805041
0.804446
0.819639
0.844523
0.600834
0.828651
0.794406
0.850232
0.818619
0.811959
0.813224
0.80815
0.803938
0.812728
0.808719
0.591663
0.847911
0.794545
0.814052
0.854522
0.819167
0.7631
0.808583
0.814325
0.815346
0.802941
0.661548
0.809113
0.863095
0.802502
0.800652
0.775317
0.871172
0.800382
0.877026
0.806612
0.817047
0.820503
0.802138
0.803761
0.812465
0.81576
0.803387
0.81319
0.816618
0.881309
0.820645
0.809271
0.800055
0.828324
0.810453
0.838737
0.808747
0.806919
0.812024
0.816426
0.829829
0.813527
0.822433
0.832436
0.814069
0.699438
0.690358
0.812904
0.817626
0.803723
0.812986
0.513542
0.854816
0.799695
0.806204
0.813807
0.813348
0.803937
0.812341
0.800405
0.80115
0.807952
0.814642
0.75677
0.784566
0.822835
0.842553
0.834728
0.800184
0.804979
0.803342
0.812879
0.805645
0.799448
0.799722
0.800957
0.810826
0.797775
0.802667
0.835404
0.831213
0.729638
0.659363
0.807545
0.698274
0.799414
0.571528
0.804383
0.80688
0.80303
0.818046
0.83366
0.813789
0.812713
0.810234
0.803821
0.881478
0.816142
0.804712
0.77219
0.585309
0.810211
0.806537
0.769288
0.814283
0.813737
0.79143
0.800673
0.804009
0.623551
0.830368
0.803487
0.781389
0.779246
0.852648
0.809963
0.802801
0.802517
0.810113
0.811024
0.518236
0.801734
0.839407
0.813788
0.798536
0.588464
0.814457
0.813934
0.812799
0.833638
0.81378
0.803896
0.821781
0.805493
0.575574
0.808594
0.736373
0.798474
0.813494
0.72209
0.814794
0.845862
0.831548
0.664348
0.890868
0.785537
0.777312
0.796839
0.779487
0.808551
0.84983
0.807893
0.802834
0.813407
0.80873
0.782558
0.785877
0.813746
0.808228
0.834776
0.821163
0.835609
0.801186
0.799589
0.812898
0.856548
0.816355
0.818259
0.813202
0.607171
0.795486
0.823787
0.829268
0.865841
0.812452
0.818845
0.508262
0.809609
0.800524
0.812468
0.814628
0.847514
0.812903
0.811058
0.881458
0.764446
0.812501
0.813092
0.808893
0.805184
0.81409
0.65577
0.800469
0.849456
0.833444
0.810499
0.813438
0.813222
0.809538
0.698664
0.812372
0.800086
0.838482
0.818354
0.811495
0.831236
0.792617
0.811425
0.817693
0.808703
0.819169
0.744106
0.854603
0.818844
0.813671
0.812906
0.812553
0.81559
0.817033
0.812599
0.810659
0.840994
0.818473
0.800079
0.825215
0.826851
0.815929
0.814406
0.800292
0.801462
0.812895
0.818903
0.829335
0.812644
0.816331
0.799748
0.809832
0.812681
0.812649
0.80248
0.814527
0.813182
0.803209
0.812704
0.835566
0.799995
0.809301
0.821412
0.559689
0.814074
0.818041
0.815399
0.814879
0.821852
0.828729
0.815491
0.818713
0.70132
0.812906
0.801281
0.815483
0.818886
0.834993
0.821448
0.815456
0.829268
0.82483
0.810525
0.819146
0.819413
0.804103
0.813005
0.81547
0.819382
0.832014
0.812479
0.815564
0.802701
0.812777
0.8129
0.522106
0.62737
0.81431
0.821322
0.801667
0.822358
0.815773
0.841784
0.708007
0.8136
0.730307
0.817295
0.810182
0.81301
0.829257
0.81351
0.804777
0.812763
0.829994
0.839165
0.812647
0.719088
0.819201
0.8159
0.799854
0.803018
0.815174
0.85586
0.812495
0.813223
0.849624
0.828913
0.843197
0.572992
0.829007
0.8138
0.810764
0.817272
0.85037
0.817637
0.718296
0.799469
0.831681
0.799692
0.79966
0.805346
0.747744
0.813248
0.814207
0.725279
0.814219
0.82726
0.813169
0.813893
0.799147
0.818251
0.812829
0.823428
0.808672
0.808087
0.814843
0.705276
0.818951
0.813941
0.812813
0.639666
0.718869
0.59919
0.823195
0.52902
0.853676
0.727228
0.842715
0.812377
0.722487
0.821326
0.815752
0.742462
0.807613
0.818227
0.794384
0.816394
0.815729
0.815658
0.81283
0.807752
0.803646
0.737202
0.836012
0.820049
0.816479
0.799159
0.815358
0.801917
0.815872
0.813313
0.854474
0.817646
0.496506
0.813173
0.818663
0.818536
0.778004
0.81567
0.806698
0.818503
0.845221
0.596222
0.809017
0.799227
0.815183
0.817492
0.817562
0.812298
0.818473
0.813725
0.814448
0.803057
0.814145
0.846028
0.813795
0.791976
0.811348
0.622359
0.718766
0.812908
0.816863
0.802899
0.822183
0.735424
0.803142
0.803178
0.820082
0.615689
0.817465
0.799275
0.815277
0.864507
0.785445
0.821828
0.817847
0.82266
0.813874
0.769532
0.802404
0.813418
0.90227
0.827087
0.816293
0.832133
0.809457
0.868038
0.719441
0.68463
0.852211
0.80269
0.656806
0.850177
0.786004
0.831916