# vtk DataFile Version 1.0
unstructured grid
ascii
DATASET UNSTRUCTURED_GRID
points 3920 float
-1 0 0
-1 1 0
2 0 0
2 1 0
0 0 0
1 0 0
-1 1 0.1
-1 0 0.1
0 0 0.1
1 0 0.1
2 0 0.1
2 1 0.1
-0.98 0 0
-0.96 0 0
-0.94 0 0
-0.92 0 0
-0.9 0 0
-0.88 0 0
-0.86 0 0
-0.84 0 0
-0.82 0 0
-0.8 0 0
-0.78 0 0
-0.76 0 0
-0.74 0 0
-0.72 0 0
-0.7 0 0
-0.68 0 0
-0.66 0 0
-0.64 0 0
-0.62 0 0
-0.6 0 0
-0.58 0 0
-0.56 0 0
-0.54 0 0
-0.52 0 0
-0.5 0 0
-0.48 0 0
-0.46 0 0
-0.44 0 0
-0.42 0 0
-0.4 0 0
-0.38 0 0
-0.36 0 0
-0.34 0 0
-0.32 0 0
-0.3 0 0
-0.28 0 0
-0.26 0 0
-0.24 0 0
-0.22 0 0
-0.2 0 0
-0.18 0 0
-0.16 0 0
-0.14 0 0
-0.12 0 0
-0.1 0 0
-0.08 0 0
-0.06 0 0
-0.04 0 0
-0.02 0 0
1.02 0 0
1.04 0 0
1.06 0 0
1.08 0 0
1.1 0 0
1.12 0 0
1.14 0 0
1.16 0 0
1.18 0 0
1.2 0 0
1.22 0 0
1.24 0 0
1.26 0 0
1.28 0 0
1.3 0 0
1.32 0 0
1.34 0 0
1.36 0 0
1.38 0 0
1.4 0 0
1.42 0 0
1.44 0 0
1.46 0 0
1.48 0 0
1.5 0 0
1.52 0 0
1.54 0 0
1.56 0 0
1.58 0 0
1.6 0 0
1.62 0 0
1.64 0 0
1.66 0 0
1.68 0 0
1.7 0 0
1.72 0 0
1.74 0 0
1.76 0 0
1.78 0 0
1.8 0 0
1.82 0 0
1.84 0 0
1.86 0 0
1.88 0 0
1.9 0 0
1.92 0 0
1.94 0 0
1.96 0 0
1.98 0 0
2 0.0199133 0
2 0.0414128 0
2 0.0646247 0
2 0.0896856 0
2 0.116743 0
2 0.145955 0
2 0.177494 0
2 0.211545 0
2 0.248309 0
2 0.288001 0
2 0.330854 0
2 0.377121 0
2 0.427073 0
2 0.481004 0
2 0.539231 0
2 0.602096 0
2 0.669968 0
2 0.743247 0
2 0.822362 0
2 0.907779 0
1.9 1 0
1.8 1 0
1.7 1 0
1.6 1 0
1.5 1 0
1.4 1 0
1.3 1 0
1.2 1 0
1.1 1 0
1 1 0
0.9 1 0
0.8 1 0
0.7 1 0
0.6 1 0
0.5 1 0
0.4 1 0
0.3 1 0
0.2 1 0
0.1 1 0
3.69793e-12 1 0
-0.1 1 0
-0.2 1 0
-0.3 1 0
-0.4 1 0
-0.5 1 0
-0.6 1 0
-0.7 1 0
-0.8 1 0
-0.9 1 0
-1 0.907779 0
-1 0.822362 0
-1 0.743247 0
-1 0.669968 0
-1 0.602096 0
-1 0.539231 0
-1 0.481004 0
-1 0.427073 0
-1 0.377121 0
-1 0.330854 0
-1 0.288001 0
-1 0.248309 0
-1 0.211545 0
-1 0.177494 0
-1 0.145955 0
-1 0.116743 0
-1 0.0896856 0
-1 0.0646247 0
-1 0.0414128 0
-1 0.0199133 0
0.0182781 0.00745351 0
0.0366672 0.0146286 0
0.0551632 0.0215237 0
0.0737617 0.0281372 0
0.0924585 0.0344675 0
0.111249 0.0405131 0
0.13013 0.0462728 0
0.149095 0.0517451 0
0.168142 0.0569289 0
0.187265 0.0618228 0
0.20646 0.0664258 0
0.225723 0.0707368 0
0.245049 0.0747549 0
0.264434 0.078479 0
0.283873 0.0819084 0
0.303362 0.0850422 0
0.322896 0.0878798 0
0.342472 0.0904204 0
0.362083 0.0926635 0
0.381726 0.0946086 0
0.401397 0.0962552 0
0.42109 0.0976029 0
0.440802 0.0986514 0
0.460527 0.0994006 0
0.480261 0.0998501 0
0.5 0.1 0
0.519739 0.0998501 0
0.539473 0.0994006 0
0.559198 0.0986514 0
0.57891 0.0976029 0
0.598603 0.0962552 0
0.618274 0.0946086 0
0.637917 0.0926635 0
0.657528 0.0904204 0
0.677104 0.0878798 0
0.696638 0.0850422 0
0.716127 0.0819084 0
0.735566 0.078479 0
0.754951 0.0747549 0
0.774277 0.0707368 0
0.79354 0.0664258 0
0.812735 0.0618228 0
0.831858 0.0569289 0
0.850905 0.0517451 0
0.86987 0.0462728 0
0.888751 0.0405131 0
0.907542 0.0344675 0
0.926238 0.0281372 0
0.944837 0.0215237 0
0.963333 0.0146286 0
0.981722 0.00745351 0
-1 0.907779 0.1
-1 0.822362 0.1
-1 0.743247 0.1
-1 0.669968 0.1
-1 0.602096 0.1
-1 0.539231 0.1
-1 0.481004 0.1
-1 0.427073 0.1
-1 0.377121 0.1
-1 0.330854 0.1
-1 0.288001 0.1
-1 0.248309 0.1
-1 0.211545 0.1
-1 0.177494 0.1
-1 0.145955 0.1
-1 0.116743 0.1
-1 0.0896856 0.1
-1 0.0646247 0.1
-1 0.0414128 0.1
-1 0.0199133 0.1
-0.98 0 0.1
-0.96 0 0.1
-0.94 0 0.1
-0.92 0 0.1
-0.9 0 0.1
-0.88 0 0.1
-0.86 0 0.1
-0.84 0 0.1
-0.82 0 0.1
-0.8 0 0.1
-0.78 0 0.1
-0.76 0 0.1
-0.74 0 0.1
-0.72 0 0.1
-0.7 0 0.1
-0.68 0 0.1
-0.66 0 0.1
-0.64 0 0.1
-0.62 0 0.1
-0.6 0 0.1
-0.58 0 0.1
-0.56 0 0.1
-0.54 0 0.1
-0.52 0 0.1
-0.5 0 0.1
-0.48 0 0.1
-0.46 0 0.1
-0.44 0 0.1
-0.42 0 0.1
-0.4 0 0.1
-0.38 0 0.1
-0.36 0 0.1
-0.34 0 0.1
-0.32 0 0.1
-0.3 0 0.1
-0.28 0 0.1
-0.26 0 0.1
-0.24 0 0.1
-0.22 0 0.1
-0.2 0 0.1
-0.18 0 0.1
-0.16 0 0.1
-0.14 0 0.1
-0.12 0 0.1
-0.1 0 0.1
-0.08 0 0.1
-0.06 0 0.1
-0.04 0 0.1
-0.02 0 0.1
0.0182781 0.00745351 0.1
0.0366672 0.0146286 0.1
0.0551632 0.0215237 0.1
0.0737617 0.0281372 0.1
0.0924585 0.0344675 0.1
0.111249 0.0405131 0.1
0.13013 0.0462728 0.1
0.149095 0.0517451 0.1
0.168142 0.0569289 0.1
0.187265 0.0618228 0.1
0.20646 0.0664258 0.1
0.225723 0.0707368 0.1
0.245049 0.0747549 0.1
0.264434 0.078479 0.1
0.283873 0.0819084 0.1
0.303362 0.0850422 0.1
0.322896 0.0878798 0.1
0.342472 0.0904204 0.1
0.362083 0.0926635 0.1
0.381726 0.0946086 0.1
0.401397 0.0962552 0.1
0.42109 0.0976029 0.1
0.440802 0.0986514 0.1
0.460527 0.0994006 0.1
0.480261 0.0998501 0.1
0.5 0.1 0.1
0.519739 0.0998501 0.1
0.539473 0.0994006 0.1
0.559198 0.0986514 0.1
0.57891 0.0976029 0.1
0.598603 0.0962552 0.1
0.618274 0.0946086 0.1
0.637917 0.0926635 0.1
0.657528 0.0904204 0.1
0.677104 0.0878798 0.1
0.696638 0.0850422 0.1
0.716127 0.0819084 0.1
0.735566 0.078479 0.1
0.754951 0.0747549 0.1
0.774277 0.0707368 0.1
0.79354 0.0664258 0.1
0.812735 0.0618228 0.1
0.831858 0.0569289 0.1
0.850905 0.0517451 0.1
0.86987 0.0462728 0.1
0.888751 0.0405131 0.1
0.907542 0.0344675 0.1
0.926238 0.0281372 0.1
0.944837 0.0215237 0.1
0.963333 0.0146286 0.1
0.981722 0.00745351 0.1
1.02 0 0.1
1.04 0 0.1
1.06 0 0.1
1.08 0 0.1
1.1 0 0.1
1.12 0 0.1
1.14 0 0.1
1.16 0 0.1
1.18 0 0.1
1.2 0 0.1
1.22 0 0.1
1.24 0 0.1
1.26 0 0.1
1.28 0 0.1
1.3 0 0.1
1.32 0 0.1
1.34 0 0.1
1.36 0 0.1
1.38 0 0.1
1.4 0 0.1
1.42 0 0.1
1.44 0 0.1
1.46 0 0.1
1.48 0 0.1
1.5 0 0.1
1.52 0 0.1
1.54 0 0.1
1.56 0 0.1
1.58 0 0.1
1.6 0 0.1
1.62 0 0.1
1.64 0 0.1
1.66 0 0.1
1.68 0 0.1
1.7 0 0.1
1.72 0 0.1
1.74 0 0.1
1.76 0 0.1
1.78 0 0.1
1.8 0 0.1
1.82 0 0.1
1.84 0 0.1
1.86 0 0.1
1.88 0 0.1
1.9 0 0.1
1.92 0 0.1
1.94 0 0.1
1.96 0 0.1
1.98 0 0.1
2 0.0199133 0.1
2 0.0414128 0.1
2 0.0646247 0.1
2 0.0896856 0.1
2 0.116743 0.1
2 0.145955 0.1
2 0.177494 0.1
2 0.211545 0.1
2 0.248309 0.1
2 0.288001 0.1
2 0.330854 0.1
2 0.377121 0.1
2 0.427073 0.1
2 0.481004 0.1
2 0.539231 0.1
2 0.602096 0.1
2 0.669968 0.1
2 0.743247 0.1
2 0.822362 0.1
2 0.907779 0.1
1.9 1 0.1
1.8 1 0.1
1.7 1 0.1
1.6 1 0.1
1.5 1 0.1
1.4 1 0.1
1.3 1 0.1
1.2 1 0.1
1.1 1 0.1
1 1 0.1
0.9 1 0.1
0.8 1 0.1
0.7 1 0.1
0.6 1 0.1
0.5 1 0.1
0.4 1 0.1
0.3 1 0.1
0.2 1 0.1
0.1 1 0.1
3.69793e-12 1 0.1
-0.1 1 0.1
-0.2 1 0.1
-0.3 1 0.1
-0.4 1 0.1
-0.5 1 0.1
-0.6 1 0.1
-0.7 1 0.1
-0.8 1 0.1
-0.9 1 0.1
1.08758 0.0158154 0
-0.0898513 0.0203294 0
0.0966181 0.0537636 0
0.90205 0.0548881 0
1.21055 0.0202058 0
-0.209811 0.0159577 0
1.3305 0.0176902 0
-0.33 0.0173205 0
1.45324 0.0148141 0
-0.448654 0.0159854 0
1.56842 0.0191785 0
-0.569936 0.0166364 0
0.193292 0.0805369 0
0.805051 0.0813623 0
0.709096 0.100353 0
0.288591 0.0996656 0
0.390184 0.111848 0
0.61033 0.111742 0
0.488809 0.116278 0
1.67175 0.0169692 0
-0.67 0.0169809 0
-0.955017 0.454039 0
1.95131 0.44569 0
1.74981 0.0168753 0
-0.75 0.0173205 0
-0.968032 0.266538 0
1.96871 0.266267 0
0.978232 0.0305687 0
0.0208675 0.026451 0
-0.150454 0.91842 0
1.13854 0.907437 0
1.45012 0.904365 0
-0.445923 0.908903 0
-0.853423 0.0157019 0
1.84881 0.016319 0
0.853689 0.915652 0
0.153944 0.912184 0
0.545151 0.914125 0
0.549913 0.115152 0
1.51 0.0173205 0
-0.506989 0.01651 0
1.27 0.0173205 0
1.14976 0.0173333 0
-0.268171 0.0206442 0
-0.150501 0.0153244 0
-0.391384 0.0153993 0
1.38886 0.0171544 0
-0.973694 0.161724 0
1.97441 0.162392 0
-0.945221 0.633523 0
1.94544 0.63312 0
1.91008 0.0186068 0
-0.91 0.0169616 0
-0.030664 0.0194327 0
1.03074 0.0165456 0
-0.966065 0.353575 0
1.96128 0.359765 0
1.93879 0.781254 0
-0.937057 0.781882 0
-0.980746 0.080709 0
1.9772 0.0760699 0
0.058735 0.0409372 0
0.355202 0.913001 0
0.86356 0.0661005 0
0.134223 0.0651111 0
0.941972 0.0397386 0
-0.653034 0.915003 0
1.65328 0.904589 0
0.770126 0.0881325 0
0.232946 0.0902008 0
0.330582 0.105648 0
0.670612 0.108365 0
0.428707 0.116145 0
1.80993 0.016629 0
-0.810168 0.0172178 0
-0.71 0.0173205 0
1.63047 0.0175504 0
1.70842 0.0169661 0
-0.628824 0.0181787 0
-0.949815 0.0133898 0
1.95 0.0173205 0
1.85542 0.907891 0
-0.85 0.913397 0
1.9833 0.0307692 0
-0.983315 0.0309709 0
-0.750025 0.916468 0
-0.701107 0.836904 0
-0.607741 0.836428 0
-0.656448 0.759827 0
-0.572936 0.758144 0
-0.61411 0.691195 0
-0.539534 0.689068 0
-0.578542 0.626111 0
-0.507461 0.624216 0
-0.544001 0.566638 0
-0.477696 0.564279 0
-0.511582 0.51001 0
-0.451689 0.507147 0
-0.481834 0.457732 0
-0.426137 0.454624 0
-0.453236 0.407539 0
-0.398845 0.406233 0
-0.507958 0.409496 0
-0.368427 0.460177 0
-0.344602 0.405209 0
-0.315696 0.447824 0
-0.294128 0.402169 0
-0.262844 0.444518 0
-0.241968 0.388746 0
-0.209878 0.439557 0
-0.185184 0.391135 0
-0.156687 0.437338 0
-0.133719 0.390776 0
-0.104405 0.434306 0
-0.0818745 0.388334 0
-0.0528785 0.431165 0
-0.0305984 0.385639 0
-0.00180552 0.427863 0
0.0194564 0.382608 0
0.0485809 0.42449 0
0.0701962 0.37973 0
0.0985483 0.421145 0
0.119893 0.377339 0
0.147837 0.417911 0
0.172552 0.36751 0
0.197018 0.412597 0
0.221203 0.37141 0
0.24512 0.409646 0
-0.48178 0.364657 0
-0.531053 0.364782 0
-0.0599102 0.344151 0
-0.324909 0.359566 0
0.266181 0.368462 0
0.292132 0.407649 0
0.311992 0.365779 0
0.338918 0.404821 0
0.357567 0.355909 0
0.384723 0.40053 0
0.404675 0.359681 0
0.430617 0.398558 0
0.450457 0.35827 0
0.474237 0.395182 0
0.496746 0.34898 0
0.520548 0.397931 0
0.542071 0.353121 0
0.566011 0.389914 0
0.585061 0.350856 0
0.609352 0.38696 0
0.629069 0.348168 0
0.655979 0.391217 0
0.67472 0.346182 0
0.699346 0.381414 0
0.719333 0.341965 0
0.743718 0.377547 0
0.764028 0.339036 0
0.788201 0.373582 0
0.807659 0.336101 0
0.832821 0.372249 0
0.852309 0.334017 0
0.877785 0.370339 0
0.897875 0.331141 0
0.922904 0.366281 0
0.943173 0.327335 0
0.968282 0.363358 0
0.989029 0.324222 0
1.01391 0.361511 0
1.03465 0.321428 0
1.05949 0.358447 0
1.08389 0.312052 0
1.10575 0.355104 0
1.12889 0.31562 0
1.15067 0.353235 0
1.17157 0.312819 0
1.19626 0.349369 0
1.21618 0.309863 0
1.2416 0.346914 0
1.26131 0.30715 0
1.28691 0.344312 0
1.30571 0.303752 0
1.33144 0.341222 0
1.35018 0.300911 0
1.3758 0.338308 0
1.39501 0.298931 0
1.42015 0.335235 0
1.43904 0.296349 0
1.46355 0.330194 0
1.48256 0.293347 0
1.50685 0.326967 0
1.52589 0.29055 0
1.54996 0.325305 0
1.56909 0.287929 0
[...]
CELL_DATA 3694
SCALARS rho float
LOOKUP_TABLE default
0.91914
0.910648
0.8407
0.944776
0.945398
0.841201
0.876676
0.826165
0.941408
0.820599
0.948323
0.948301
0.919726
0.881902
0.826166
0.92432
0.817654
0.823501
0.9254
0.94996
0.943126
0.948525
0.917925
0.84334
0.917509
0.919614
0.908243
0.862534
0.907726
0.806542
0.80634
0.907529
0.823384
0.896426
0.830625
0.934324
0.945245
0.947976
0.945168
0.908177
0.83667
0.885751
0.905681
0.897439
0.903403
0.94467
0.839156
0.905569
0.90821
0.919416
0.848152
0.813173
0.948976
0.877812
0.909003
0.945847
0.829577
0.944577
0.907672
0.923587
0.887053
0.945839
0.949749
0.823158
0.951288
0.948348
0.86287
0.945139
0.901337
0.954492
0.808973
0.867814
0.948531
0.818827
0.947972
0.8138
0.903304
0.811006
0.94538
0.845001
0.913173
0.888837
0.807432
0.907606
0.941201
0.811944
0.944277
0.912529
0.903571
0.943387
0.935397
0.819774
0.892167
0.942277
0.905641
0.85354
0.914549
0.948348
0.943977
0.949235
0.946521
0.925691
0.90181
0.941101
0.940637
0.945847
0.948369
0.855377
0.908985
0.945467
0.874785
0.919405
0.90146
0.942652
0.957015
0.818119
0.935767
0.943742
0.808367
0.817175
0.908908
0.914108
0.946173
0.928155
0.897512
0.90964
0.947633
0.928951
0.947617
0.918522
0.908542
0.904079
0.867816
0.897609
0.840067
0.934431
0.843053
0.807962
0.805918
0.946487
0.945183
0.919324
0.947765
0.945291
0.91054
0.906475
0.906241
0.808489
0.947999
0.87943
0.914394
0.811748
0.898672
0.930063
0.908979
0.926066
0.912677
0.93155
0.898213
0.890004
0.911614
0.902616
0.893309
0.919855
0.951572
0.897435
0.884347
0.823327
0.848483
0.906465
0.828075
0.910165
0.954454
0.895783
0.875796
0.909911
0.928402
0.949617
0.946313
0.902077
0.945197
0.906768
0.948826
0.907856
0.902794
0.819193
0.897611
0.948084
0.847903
0.952754
0.906283
0.900512
0.945351
0.808898
0.912748
0.917993
0.883598
0.948992
0.919483
0.915252
0.90617
0.933699
0.949361
0.911356
0.896297
0.945969
0.91237
0.834895
0.921662
0.813846
0.91567
0.934462
0.863977
0.877735
0.9487
0.926467
0.949222
0.922004
0.94872
0.945125
0.947962
0.91785
0.903568
0.917826
0.948828
0.897635
0.896283
0.940605
0.952856
0.948041
0.939893
0.909445
0.914592
0.948397
0.948938
0.948355
0.920003
0.935833
0.908253
0.933475
0.864301
0.941114
0.909584
0.857728
0.926124
0.905771
0.808305
0.926389
0.946793
0.926412
0.908849
0.89569
0.900149
0.839372
0.903592
0.932334
0.897362
0.819426
0.946094
0.94585
0.899311
0.946993
0.911941
0.933948
0.947496
0.810938
0.896367
0.940505
0.909553
0.925477
0.806345
0.94981
0.873638
0.809254
0.881954
0.945678
0.899664
0.8936
0.947681
0.912586
0.947955
0.91145
0.91501
0.947485
0.94707
0.943344
0.914778
0.934368
0.945963
0.897505
0.808234
0.9551
0.899079
0.924797
0.949339
0.944117
0.945479
0.901845
0.880182
0.945897
0.827326
0.821258
0.901386
0.945051
0.887182
0.907679
0.870546
0.812971
0.901748
0.948458
0.948879
0.913216
0.93302
0.94844
0.913526
0.912189
0.893798
0.948454
0.94779
0.865851
0.902969
0.917256
0.918663
0.916732
0.948037
0.928641
0.831881
0.917551
0.900964
0.947784
0.941421
0.890596
0.928484
0.946794
0.945633
0.948285
0.947137
0.82651
0.857022
0.848745
0.896144
0.807274
0.875896
0.913729
0.865664
0.844282
0.948453
0.887791
0.898076
0.893533
0.945803
0.948468
0.948451
0.810737
0.914475
0.916058
0.871145
0.883294
0.908164
0.829416
0.866703
0.885239
0.912888
0.868801
0.947016
0.943283
0.948292
0.841287
0.877618
0.927219
0.855431
0.951333
0.890795
0.900182
0.837364
0.918887
0.896993
0.821686
0.896301
0.906339
0.901765
0.911119
0.944792
0.945696
0.94745
0.93976
0.948448
0.948209
0.81722
0.927401
0.89741
0.910973
0.947887
0.92551
0.92186
0.909849
0.945826
0.950598
0.947863
0.870175
0.91439
0.947296
0.896069
0.926104
0.941059
0.908394
0.876441
0.948607
0.911292
0.852053
0.956116
0.881572
0.945214
0.948384
0.907026
0.908924
0.935336
0.917671
0.806368
0.907723
0.942699
0.879764
0.932371
0.895819
0.946067
0.902424
0.943685
0.818609
0.846421
0.948111
0.827337
0.914377
0.905767
0.808659
0.946203
0.944762
0.944034
0.9572
0.948851
0.867655
0.949382
0.913403
0.948502
0.950192
0.947885
0.900089
0.947219
0.864861
0.951683
0.948426
0.821083
0.894747
0.8672
0.91821
0.855831
0.814121
0.877194
0.944936
0.898497
0.844405
0.898498
0.947262
0.917724
0.955614
0.807158
0.952656
0.947199
0.89969
0.829357
0.88716
0.943279
0.948328
0.908713
0.817631
0.867774
0.875782
0.859084
0.869712
0.947739
0.94774
0.933829
0.854108
0.947943
0.945498
0.918493
0.856013
0.872017
0.944567
0.90909
0.844975
0.944834
0.810564
0.837413
0.894645
0.949548
0.92644
0.945453
0.948234
0.948534
0.949583
0.946787
0.943468
0.913553
0.810732
0.949745
0.940143
0.912034
0.810603
0.816144
0.957391
0.951614
0.948397
0.806152
0.890738
0.923935
0.947483
0.877962
0.895063
0.822381
0.920827
0.908981
0.830365
0.943121
0.907747
0.915242
0.947355
0.908422
0.945631
0.863884
0.94002
0.904536
0.922021
0.831731
0.939972
0.945482
0.827139
0.909465
0.91708
0.945133
0.879915
0.898284
0.896609
0.945482
0.941766
0.948603
0.819918
0.939406
0.946487
0.893566
0.950647
0.82407
0.882428
0.945559
0.947731
0.941274
0.942517
0.917491
0.90348
0.933948
0.81859
0.95224
0.823236
0.936228
0.900454
0.93898
0.945292
0.869718
0.948449
0.84832
0.944908
0.916278
0.951339
0.898696
0.815137
0.948359
0.859271
0.909646
0.895018
0.88551
0.850374
0.841488
0.931603
0.828347
0.948423
0.944337
0.838851
0.821374
0.943664
0.898097
0.94422
0.832431
0.914332
0.945246
0.907896
0.930013
0.947167
0.945734
0.938288
0.944422
0.932568
0.934469
0.840328
0.830501
0.943883
0.8715
0.940587
0.817565
0.903527
0.851956
0.944467
0.944005
0.942102
0.943411
0.947863
0.946532
0.94443
0.916238
0.853865
0.947619
0.828004
0.893515
0.916116
0.875341
0.944975
0.947305
0.907564
0.868855
0.878506
0.833833
0.864107
0.827156
0.942507
0.943433
0.946738
0.931249
0.939508
0.938179
0.895572
0.90111
0.910505
0.936591
0.917955
0.914844
0.805398
0.907509
0.947918
0.945781
0.946196
0.890272
0.892099
0.885141
0.893963
0.915545
0.948579
0.955331
0.922898
0.947393
0.953056
0.916115
0.946991
0.895027
0.88051
0.911909
0.90558
0.953886
0.907853
0.920764
0.870779
0.83897
0.806508
0.906248
0.947076
0.914502
0.940367
0.83885
0.914897
0.95066
0.809503
0.901242
0.902959
0.947695
0.939746
0.946623
0.908169
0.917779
0.927215
0.918341
0.909306
0.948006
0.944308
0.948827
0.926008
0.948507
0.917208
0.839028
0.905288
0.911576
0.935456
0.894296
0.931169
0.945309
0.94751
0.947228
0.945144
0.89721
0.805578
0.945744
0.9202
0.87783
0.947544
0.943777
0.90321
0.899285
0.919664
0.906987
0.911901
0.913474
0.947807
0.805337
0.946735
0.917659
0.900834
0.936906
0.945514
0.944016
0.922236
0.930763
0.904333
0.927783
0.942557
0.898824
0.896736
0.947347
0.845759
0.942273
0.836522
0.91997
0.929939
0.914491
0.905621
0.818619
0.949334
0.873776
0.908033
0.948523
0.941667
0.942624
0.916532
0.897451
0.914592
0.958127
0.947861
0.945753
0.899873
0.914506
0.903332
0.83553
0.806375
0.908049
0.873864
0.942002
0.923825
0.825172
0.913192
0.946202
0.909456
0.945726
0.904077
0.936575
0.809416
0.942239
0.921773
0.947874
0.946161
0.901713
0.898237
0.887032
0.942516
0.910474
0.944993
0.904647
0.83556
0.944603
0.908121
0.948363
0.805253
0.910817
0.899803
0.899609
0.921594
0.851009
0.943695
0.94246
0.948028
0.883738
0.947792
0.911599
0.805077
0.944369
0.948062
0.912447
0.920136
0.944155
0.939957
0.91633
0.913197
0.928044
0.902023
0.881501
0.911293
0.937712
0.906137
0.812405
0.90436
0.913131
0.942715
0.899312
0.923514
0.901323
0.948087
0.912647
0.945197
0.927678
0.945236
0.807554
0.931684
0.812454
0.859922
0.944784
0.921431
0.885734
0.811274
0.948424
0.898268
0.825729
0.94382
0.944266
0.943022
0.943378
0.911651
0.936661
0.908745
0.911812
0.947791
0.911448
0.947474
0.947186
0.811169
0.945934
0.946871
0.915787
0.907296
0.948035
0.931989
0.854941
0.946539
0.957211
0.945673
0.934499
0.94828
0.94743
0.870042
0.948406
0.944749
0.901202
0.916842
0.950915
0.907279
0.81084
0.893131
0.930036
0.948191
0.909557
0.948367
0.948245
0.95744
0.811723
0.845105
0.948294
0.812232
0.947498
0.861887
0.914152
0.947349
0.948431
0.904475
0.916918
0.947145
0.911915
0.894434
0.910533
0.948494
0.904336
0.94015
0.82565
0.921018
0.810606
0.808518
0.881848
0.945586
0.907307
0.918795
0.820334
0.907238
0.834043
0.942031
0.90324
0.946284
0.825423
0.824555
0.941297
0.947566
0.919971
0.947588
0.908529
0.852778
0.915109
0.823446
0.929263
0.910022
0.909907
0.947144
0.898131
0.945718
0.900603
0.910593
0.825191
0.948454
0.946202
0.816024
0.947121
0.938469
0.92131
0.908431
0.954045
0.811599
0.94463
0.882193
0.896907
0.90631
0.929206
0.911331
0.92307
0.898674
0.94032
0.944816
0.941172
0.80792
0.908544
0.914705
0.927164
0.902551
0.899055
0.945674
0.918304
0.94844
0.858463
0.910773
0.941364
0.828549
0.864401
0.910482
0.82681
0.923451
0.86973
0.807892
0.925023
0.943471
0.892736
0.825193
0.931897
0.947672
0.91029
0.812018
0.816868
0.846954
0.896971
0.947623
0.947476
0.893916
0.909251
0.94731
0.947369
0.809042
0.831533
0.885366
0.929362
0.863529
0.934021
0.94802
0.905618
0.93749
0.957458
0.907924
0.924541
0.939092
0.907983
0.951027
0.935907
0.928932
0.943637
0.868546
0.894143
0.873914
0.948677
0.949841
0.860447
0.89602
0.947688
0.947756
0.90815
0.949163
0.948201
0.947636
0.947684
0.876441
0.94794
0.948721
0.906587
0.86815
0.943013
0.938809
0.948431
0.824845
0.907462
0.904316
0.852116
0.892276
0.921829
0.887623
0.896098
0.948044
0.948597
0.948904
0.857183
0.887057
0.948494
0.888402
0.948388
0.950319
0.949469
0.932054
0.805795
0.948401
0.946845
0.948163
0.814105
0.864422
0.955728
0.948385
0.951969
0.94687
0.813052
0.900125
0.901279
0.916166
0.944885
0.944226
0.852556
0.914785
0.817171
0.841453
0.947134
0.849584
0.935732
0.895808
0.911637
0.836281
0.903965
0.891549
0.909875
0.880378
0.929528
0.91004
0.827117
0.877773
0.911778
0.920306
0.948372
0.882464
0.904014
0.947297
0.932124
0.948108
0.919863
0.904739
0.941034
0.873177
0.812805
0.923871
0.916095
0.946634
0.91475
0.928441
0.945165
0.859519
0.943268
0.846882
0.809855
0.905337
0.807679
0.809736
0.948797
0.948186
0.871933
0.901312
0.897378
0.91346
0.859928
0.931302
0.839061
0.946708
0.851015
0.948044
0.901723
0.946912
0.842894
0.942216
0.835351
0.947693
0.806663
0.94793
0.942288
0.947283
0.94395
0.920464
0.944768
0.947793
0.896415
0.946512
0.882775
0.834114
0.95428
0.946026
0.942155
0.957228
0.94721
0.947372
0.948247
0.948219
0.945585
0.908826
0.90954
0.824694
0.820107
0.94426
0.947334
0.948262
0.947065
0.943809
0.893029
0.840147
0.943324
0.863831
0.882085
0.890134
0.947024
0.942918
0.947553
0.8854
0.898984
0.911803
0.81492
0.86663
0.821739
0.94259
0.947266
0.946392
0.81595
0.850274
0.815929
0.811261
0.947088
0.948204
0.94839
0.873844
0.947623
0.948328
0.914086
0.946947
0.891054
0.89918
0.946248
0.861718
0.83788
0.889489
0.941586
0.947902
0.946821
0.946978
0.913416
0.938491
0.944537
0.946608
0.89101
0.82339
0.825346
0.849969
0.942503
0.947072
0.811978
0.937008
0.948189
0.892883
0.817867
0.89612
0.833962
0.934017
0.885375
0.90333
0.840538
0.921873
0.950738
0.863585
0.809094
0.949745
0.949084
0.868733
0.948708
0.812249
0.948112
0.945222
0.94833
0.825131
0.948234
0.919368
0.948448
0.888703
0.813458
0.87585
0.948418
0.88
0.828629
0.930778
0.880548
0.947399
0.94755
0.94818
0.853375
0.948315
0.947708
0.944858
0.893985
0.950223
0.849107
0.909474
0.947555
0.946544
0.948402
0.841172
0.807075
0.831871
0.944244
0.878007
0.947694
0.909943
0.922161
0.816941
0.856559
0.947464
0.946321
0.934762
0.911919
0.912771
0.864803
0.906437
0.947881
0.906691
0.812828
0.918065
0.806833
0.889208
0.809653
0.948217
0.944436
0.850839
0.861337
0.933795
0.91382
0.947594
0.820052
0.828524
0.946943
0.947661
0.92487
0.944281
0.825171
0.908173
0.947442
0.826818
0.871887
0.945395
0.946895
0.948336
0.933363
0.804855
0.947266
0.92412
0.853098
0.945727
0.856245
0.947503
0.916615
0.824104
0.949489
0.938108
0.932207
0.943729
0.815506
0.919601
0.907392
0.819469
0.947982
0.94934
0.862773
0.94554
0.947664
0.81723
0.82646
0.898734
0.929922
0.946136
0.947292
0.910848
0.947541
0.912994
0.887148
0.948556
0.947617
0.911149
0.94601
0.946854
0.919482
0.945803
0.828858
0.805866
0.814027
0.947406
0.955482
0.812995
0.818762
0.888539
0.951006
0.902747
0.94774
0.944694
0.922321
0.936955
0.807599
0.918814
0.823729
0.915361
0.941913
0.833771
0.909464
0.959104
0.909679
0.905659
0.842459
0.923925
0.865051
0.809692
0.812925
0.906918
0.859654
0.901664
0.813475
0.920077
0.948016
0.94849
0.959998
0.869446
0.902917
0.90469
0.819392
0.931697
0.922986
0.912785
0.926776
0.918941
0.838605
0.815111
0.839267
0.907878
0.902868
0.871224
0.901365
0.944896
0.941151
0.87686
0.909653
0.938904
0.933363
0.945745
0.892289
0.939055
0.857219
0.941352
0.914986
0.814824
0.919594
0.813864
0.807766
0.916837
0.833716
0.946241
0.946479
0.816293
0.925704
0.946546
0.905188
0.911137
0.80992
0.946373
0.958269
0.94605
0.946276
0.95862
0.953895
0.943591
0.904123
0.814919
0.877222
0.892543
0.935077
0.916428
0.915991
0.915142
0.81928
0.903013
0.904867
0.80706
0.908297
0.901943
0.945473
0.929094
0.923727
0.947803
0.926284
0.907507
0.900922
0.921386
0.931699
0.943571
0.955412
0.946506
0.947478
0.934021
0.807781
0.919153
0.947129
0.912194
0.909689
0.946131
0.908616
0.925899
0.936046
0.931161
0.852458
0.809704
0.943078
0.900777
0.955272
0.900153
0.89527
0.812782
0.937828
0.917027
0.870261
0.813094
0.947105
0.82948
0.805437
0.898638
0.899545
0.910171
0.943824
0.94689
0.918696
0.80904
0.93931
0.915384
0.94296
0.80925
0.944896
0.805668
0.935216
0.805087
0.945077
0.805437
0.909861
0.820051
0.954407
0.94524
0.805155
0.899079
0.913999
0.947233
0.90122
0.940527
0.868148
0.947262
0.94483
0.817074
0.878591
0.944682
0.944687
0.945378
0.804958
0.923075
0.95336
0.831325
0.912959
0.939825
0.908564
0.844853
0.814729
0.944413
0.921474
0.806089
0.944054
0.944255
0.946445
0.947045
0.925606
0.905738
0.82686
0.947405
0.840863
0.941689
0.847158
0.843904
0.850441
0.945048
0.86451
0.812955
0.876088
0.853861
0.895043
0.870242
0.864234
0.948114
0.857296
0.806281
0.94456
0.814338
0.805762
0.858297
0.860855
0.944675
0.901513
0.852419
0.820031
0.945432
0.804775
0.827078
0.881838
0.947406
0.846853
0.912398
0.807497
0.946574
0.841375
0.891971
0.90861
0.946648
0.911867
0.824757
0.805409
0.831521
0.887049
0.952297
0.836262
0.806896
0.906383
0.947376
0.946003
0.94748
0.906337
0.943681
0.914275
0.947937
0.915977
0.867586
0.947357
0.808879
0.913218
0.947349
0.94246
0.948094
0.947345
0.947368
0.904379
0.948097
0.911893
0.917156
0.946199
0.947358
0.913619
0.948413
0.904934
0.947419
0.860746
0.948124
0.809052
0.85568
0.943125
0.903037
0.903326
0.894346
0.944772
0.950727
0.899051
0.951471
0.839119
0.918222
0.950138
0.948335
0.949696
0.916146
0.913196
0.949316
0.911587
0.949028
0.946448
0.948798
0.887211
0.948648
0.892619
0.948538
0.948443
0.919186
0.956221
0.948378
0.948345
0.899582
0.926261
0.811596
0.894593
0.936994
0.948339
0.945353
0.891963
0.948152
0.945442
0.804479
0.948336
0.815724
0.911247
0.885082
0.904854
0.945922
0.920374
0.935388
0.895487
0.901285
0.946536
0.947659
0.896425
0.873695
0.921627
0.942777
0.812216
0.822413
0.876816
0.933571
0.900547
0.90985
0.806725
0.944354
0.891213
0.945997
0.894714
0.963307
0.911039
0.868796
0.923313
0.903814
0.945533
0.94776
0.947657
0.900871
0.946418
0.886765
0.831852
0.944817
0.907116
0.909101
0.906319
0.850409
0.860555
0.920147
0.925132
0.947048
0.925809
0.882208
0.948065
0.946629
0.877606
0.823842
0.929133
0.873053
0.948021
0.910711
0.868424
0.947905
0.948383
0.857436
0.86397
0.927066
0.945652
0.859539
0.817795
0.855231
0.904541
0.850982
0.835359
0.846873
0.947787
0.913565
0.839049
0.927838
0.842868
0.908042
0.947821
0.938382
0.944527
0.945454
0.917145
0.822535
0.910262
0.889794
0.947019
0.919991
0.828402
0.948104
0.909374
0.944447
0.893984
0.853177
0.908506
0.831348
0.937867
0.944127
0.948363
0.833975
0.943126
0.947364
0.815882
0.852106
0.912483
0.947926
0.876003
0.945983
0.842358
0.840705
0.808302
0.817849
0.938844
0.946044
0.820084
0.927417
0.948091
0.938688
0.874633
0.945536
0.896643
0.896286
0.88713
0.947219
0.931723
0.924752
0.900168
0.944397
0.945496
0.947819
0.931646
0.899901
0.927899
0.91087
0.948265
0.903614
0.944279
0.902983
0.916386
0.80834
0.948654
0.92395
0.852139
0.815148
0.947253
0.935305
0.912223
0.810346
0.896735
0.824276
0.813727
0.839581
0.896419
0.809277
0.823014
0.832795
0.91651
0.920597
0.829546
0.929419
0.947728
0.917363
0.914191
0.946897
0.856232
0.923969
0.950682
0.945261
0.944284
0.908849
0.845697
0.806773
0.808869
0.806771
0.91009
0.821561
0.94727
0.906552
0.911348
0.903872
0.932949
0.946747
0.941622
0.946937
0.94724
0.947872
0.83461
0.946994
0.94686
0.938888
0.900454
0.83258
0.813838
0.869846
0.919454
0.872827
0.946663
0.953479
0.938405
0.9046
0.928091
0.811735
0.905707
0.948134
0.943403
0.943771
0.87947
0.954369
0.835407
0.94654
0.899823
0.883302
0.945264
0.806991
0.945428
0.903043
0.946186
0.817281
0.948074
0.806345
0.948061
0.947791
0.906209
0.849643
0.80594
0.946205
0.954109
0.88881
0.94806
0.905212
0.922932
0.808647
0.818401
0.875645
0.947844
0.805932
0.815637
0.947388
0.938871
0.860458
0.906233
0.810273
0.946712
0.943678
0.905063
0.906984
0.942672
0.90716
0.953244
0.915751
0.946637
0.942265
0.904138
0.88383
0.946339
0.908868
0.804825
0.90952
0.947082
0.930124
0.90801
0.945223
0.903278
0.8046
0.927659
0.946876
0.948368
0.815906
0.932498
0.922735
0.925037
0.927301
0.946313
0.94829
0.938374
0.902264
0.936512
0.934599
0.908292
0.909499
0.944784
0.880632
0.842257
0.910244
0.845428
0.848681
0.953171
0.829162
0.866123
0.946896
0.851952
0.94157
0.952401
0.906279
0.833775
0.948083
0.860981
0.855166
0.866913
0.844012
0.849367
0.838615
0.872835
0.855476
0.920533
0.878628
0.858871
0.938149
0.946363
0.862571
0.943692
0.806739
0.835025
0.946536
0.946479
0.941526
0.806564
0.908479
0.87746
0.939481
0.947642
0.918534
0.945862
0.947025
0.946813
0.953797
0.921583
0.939764
0.945955
0.835244
0.901471
0.82028
0.92687
0.948493
0.897546
0.94766
0.947064
0.946239
0.940662
0.810967
0.916701
0.941224
0.830102
0.925266
0.948061
0.909223
0.894657
0.945164
0.897224
0.916764
0.906703
0.947101
0.948248
0.948032
0.951558
0.900862
0.931925
0.884218
0.947127
0.947142
0.944535
0.915231
0.946168
0.947167
0.948053
0.836508
0.906288
0.904151
0.89717
0.941686
0.950804
0.832742
0.950227
0.947231
0.807012
0.914141
0.912418
0.94731
0.949733
0.814852
0.942492
0.805918
0.949388
0.814512
0.943031
0.949071
0.948806
0.900846
0.9486
0.902321
0.902369
0.913631
0.900315
0.948628
0.948529
0.906724
0.910485
0.938801
0.948432
0.916917
0.902276
0.948347
0.948305
0.948293
0.9483
0.889391
0.89701
0.912814
0.913336
0.948302
0.810203
0.926939
0.963113
0.901925
0.937471
0.905516
0.906488
0.915413
0.916858
0.893011
0.893987
0.896045
0.912398
0.806607
0.946864
0.889128
0.917999
0.935937
0.888686
0.898334
0.912138
0.940917
0.902024
0.947815
0.948759
0.884137
0.934167
0.94805
0.947945
0.904998
0.833523
0.919034
0.910629
0.881299
0.942143
0.893468
0.837146
0.911684
0.805061
0.87962
0.87509
0.870591
0.866023
0.861492
0.857282
0.84883
0.840886
0.85306
0.918719
0.844756
0.805189
0.873204
0.82148
0.914116
0.920027
0.815633
0.907226
0.95952
0.924505
0.864902
0.921199
0.836918
0.90813
0.911403
0.823111
0.823312
0.922567
0.874708
0.932395
0.809579
0.816767
0.910866
0.930039
0.937515
0.924276
0.908833
0.927932
0.818838
0.946637
0.863294
0.926031
0.910049
0.856348
0.945287
0.818537
0.932098
0.806015
0.974315
0.952095
0.946
0.945401
0.900152
0.949976
0.920715
0.896945
0.939033
0.964804
0.946052
0.806352
0.897217
0.946298
0.807332
0.946541
0.808421
0.947768
0.892793
0.948179
0.843697
0.849099
0.905891
0.838404
0.919618
0.810308
0.947964
0.909148
0.890714
0.901878
0.946764
0.889111
0.807336
0.920776
0.946277
0.913414
0.889319
0.935528
0.946218
0.945638
0.914722
0.821981
0.888505
0.811701
0.947162
0.81297
0.813648
0.814379
0.947513
0.944469
0.807026
0.81899
0.947918
0.820753
0.94802
0.883694
0.82259
0.948109
0.945659
0.948188
0.826369
0.948255
0.905642
0.828355
0.948311
0.810606
0.830463
0.948353
0.917763
0.94656
0.805395
0.945701
0.909644
0.941375
0.909326
0.955514
0.808041
0.837463
0.948434
0.88145
0.83505
0.832722
0.927269
0.938899
0.948419
0.941925
0.950259
0.948961
0.947525
0.898472
0.952173
0.946354
0.845138
0.948449
0.937977
0.847705
0.94655
0.821037
0.936216
0.906495