# vtk DataFile Version 1.0
unstructured grid
ascii
DATASET UNSTRUCTURED_GRID
points 3920 float
-1 0 0
-1 1 0
2 0 0
2 1 0
0 0 0
1 0 0
-1 1 0.1
-1 0 0.1
0 0 0.1
1 0 0.1
2 0 0.1
2 1 0.1
-0.98 0 0
-0.96 0 0
-0.94 0 0
-0.92 0 0
-0.9 0 0
-0.88 0 0
-0.86 0 0
-0.84 0 0
-0.82 0 0
-0.8 0 0
-0.78 0 0
-0.76 0 0
-0.74 0 0
-0.72 0 0
-0.7 0 0
-0.68 0 0
-0.66 0 0
-0.64 0 0
-0.62 0 0
-0.6 0 0
-0.58 0 0
-0.56 0 0
-0.54 0 0
-0.52 0 0
-0.5 0 0
-0.48 0 0
-0.46 0 0
-0.44 0 0
-0.42 0 0
-0.4 0 0
-0.38 0 0
-0.36 0 0
-0.34 0 0
-0.32 0 0
-0.3 0 0
-0.28 0 0
-0.26 0 0
-0.24 0 0
-0.22 0 0
-0.2 0 0
-0.18 0 0
-0.16 0 0
-0.14 0 0
-0.12 0 0
-0.1 0 0
-0.08 0 0
-0.06 0 0
-0.04 0 0
-0.02 0 0
1.02 0 0
1.04 0 0
1.06 0 0
1.08 0 0
1.1 0 0
1.12 0 0
1.14 0 0
1.16 0 0
1.18 0 0
1.2 0 0
1.22 0 0
1.24 0 0
1.26 0 0
1.28 0 0
1.3 0 0
1.32 0 0
1.34 0 0
1.36 0 0
1.38 0 0
1.4 0 0
1.42 0 0
1.44 0 0
1.46 0 0
1.48 0 0
1.5 0 0
1.52 0 0
1.54 0 0
1.56 0 0
1.58 0 0
1.6 0 0
1.62 0 0
1.64 0 0
1.66 0 0
1.68 0 0
1.7 0 0
1.72 0 0
1.74 0 0
1.76 0 0
1.78 0 0
1.8 0 0
1.82 0 0
1.84 0 0
1.86 0 0
1.88 0 0
1.9 0 0
1.92 0 0
1.94 0 0
1.96 0 0
1.98 0 0
2 0.0199133 0
2 0.0414128 0
2 0.0646247 0
2 0.0896856 0
2 0.116743 0
2 0.145955 0
2 0.177494 0
2 0.211545 0
2 0.248309 0
2 0.288001 0
2 0.330854 0
2 0.377121 0
2 0.427073 0
2 0.481004 0
2 0.539231 0
2 0.602096 0
2 0.669968 0
2 0.743247 0
2 0.822362 0
2 0.907779 0
1.9 1 0
1.8 1 0
1.7 1 0
1.6 1 0
1.5 1 0
1.4 1 0
1.3 1 0
1.2 1 0
1.1 1 0
1 1 0
0.9 1 0
0.8 1 0
0.7 1 0
0.6 1 0
0.5 1 0
0.4 1 0
0.3 1 0
0.2 1 0
0.1 1 0
3.69793e-12 1 0
-0.1 1 0
-0.2 1 0
-0.3 1 0
-0.4 1 0
-0.5 1 0
-0.6 1 0
-0.7 1 0
-0.8 1 0
-0.9 1 0
-1 0.907779 0
-1 0.822362 0
-1 0.743247 0
-1 0.669968 0
-1 0.602096 0
-1 0.539231 0
-1 0.481004 0
-1 0.427073 0
-1 0.377121 0
-1 0.330854 0
-1 0.288001 0
-1 0.248309 0
-1 0.211545 0
-1 0.177494 0
-1 0.145955 0
-1 0.116743 0
-1 0.0896856 0
-1 0.0646247 0
-1 0.0414128 0
-1 0.0199133 0
0.0182781 0.00745351 0
0.0366672 0.0146286 0
0.0551632 0.0215237 0
0.0737617 0.0281372 0
0.0924585 0.0344675 0
0.111249 0.0405131 0
0.13013 0.0462728 0
0.149095 0.0517451 0
0.168142 0.0569289 0
0.187265 0.0618228 0
0.20646 0.0664258 0
0.225723 0.0707368 0
0.245049 0.0747549 0
0.264434 0.078479 0
0.283873 0.0819084 0
0.303362 0.0850422 0
0.322896 0.0878798 0
0.342472 0.0904204 0
0.362083 0.0926635 0
0.381726 0.0946086 0
0.401397 0.0962552 0
0.42109 0.0976029 0
0.440802 0.0986514 0
0.460527 0.0994006 0
0.480261 0.0998501 0
0.5 0.1 0
0.519739 0.0998501 0
0.539473 0.0994006 0
0.559198 0.0986514 0
0.57891 0.0976029 0
0.598603 0.0962552 0
0.618274 0.0946086 0
0.637917 0.0926635 0
0.657528 0.0904204 0
0.677104 0.0878798 0
0.696638 0.0850422 0
0.716127 0.0819084 0
0.735566 0.078479 0
0.754951 0.0747549 0
0.774277 0.0707368 0
0.79354 0.0664258 0
0.812735 0.0618228 0
0.831858 0.0569289 0
0.850905 0.0517451 0
0.86987 0.0462728 0
0.888751 0.0405131 0
0.907542 0.0344675 0
0.926238 0.0281372 0
0.944837 0.0215237 0
0.963333 0.0146286 0
0.981722 0.00745351 0
-1 0.907779 0.1
-1 0.822362 0.1
-1 0.743247 0.1
-1 0.669968 0.1
-1 0.602096 0.1
-1 0.539231 0.1
-1 0.481004 0.1
-1 0.427073 0.1
-1 0.377121 0.1
-1 0.330854 0.1
-1 0.288001 0.1
-1 0.248309 0.1
-1 0.211545 0.1
-1 0.177494 0.1
-1 0.145955 0.1
-1 0.116743 0.1
-1 0.0896856 0.1
-1 0.0646247 0.1
-1 0.0414128 0.1
-1 0.0199133 0.1
-0.98 0 0.1
-0.96 0 0.1
-0.94 0 0.1
-0.92 0 0.1
-0.9 0 0.1
-0.88 0 0.1
-0.86 0 0.1
-0.84 0 0.1
-0.82 0 0.1
-0.8 0 0.1
-0.78 0 0.1
-0.76 0 0.1
-0.74 0 0.1
-0.72 0 0.1
-0.7 0 0.1
-0.68 0 0.1
-0.66 0 0.1
-0.64 0 0.1
-0.62 0 0.1
-0.6 0 0.1
-0.58 0 0.1
-0.56 0 0.1
-0.54 0 0.1
-0.52 0 0.1
-0.5 0 0.1
-0.48 0 0.1
-0.46 0 0.1
-0.44 0 0.1
-0.42 0 0.1
-0.4 0 0.1
-0.38 0 0.1
-0.36 0 0.1
-0.34 0 0.1
-0.32 0 0.1
-0.3 0 0.1
-0.28 0 0.1
-0.26 0 0.1
-0.24 0 0.1
-0.22 0 0.1
-0.2 0 0.1
-0.18 0 0.1
-0.16 0 0.1
-0.14 0 0.1
-0.12 0 0.1
-0.1 0 0.1
-0.08 0 0.1
-0.06 0 0.1
-0.04 0 0.1
-0.02 0 0.1
0.0182781 0.00745351 0.1
0.0366672 0.0146286 0.1
0.0551632 0.0215237 0.1
0.0737617 0.0281372 0.1
0.0924585 0.0344675 0.1
0.111249 0.0405131 0.1
0.13013 0.0462728 0.1
0.149095 0.0517451 0.1
0.168142 0.0569289 0.1
0.187265 0.0618228 0.1
0.20646 0.0664258 0.1
0.225723 0.0707368 0.1
0.245049 0.0747549 0.1
0.264434 0.078479 0.1
0.283873 0.0819084 0.1
0.303362 0.0850422 0.1
0.322896 0.0878798 0.1
0.342472 0.0904204 0.1
0.362083 0.0926635 0.1
0.381726 0.0946086 0.1
0.401397 0.0962552 0.1
0.42109 0.0976029 0.1
0.440802 0.0986514 0.1
0.460527 0.0994006 0.1
0.480261 0.0998501 0.1
0.5 0.1 0.1
0.519739 0.0998501 0.1
0.539473 0.0994006 0.1
0.559198 0.0986514 0.1
0.57891 0.0976029 0.1
0.598603 0.0962552 0.1
0.618274 0.0946086 0.1
0.637917 0.0926635 0.1
0.657528 0.0904204 0.1
0.677104 0.0878798 0.1
0.696638 0.0850422 0.1
0.716127 0.0819084 0.1
0.735566 0.078479 0.1
0.754951 0.0747549 0.1
0.774277 0.0707368 0.1
0.79354 0.0664258 0.1
0.812735 0.0618228 0.1
0.831858 0.0569289 0.1
0.850905 0.0517451 0.1
0.86987 0.0462728 0.1
0.888751 0.0405131 0.1
0.907542 0.0344675 0.1
0.926238 0.0281372 0.1
0.944837 0.0215237 0.1
0.963333 0.0146286 0.1
0.981722 0.00745351 0.1
1.02 0 0.1
1.04 0 0.1
1.06 0 0.1
1.08 0 0.1
1.1 0 0.1
1.12 0 0.1
1.14 0 0.1
1.16 0 0.1
1.18 0 0.1
1.2 0 0.1
1.22 0 0.1
1.24 0 0.1
1.26 0 0.1
1.28 0 0.1
1.3 0 0.1
1.32 0 0.1
1.34 0 0.1
1.36 0 0.1
1.38 0 0.1
1.4 0 0.1
1.42 0 0.1
1.44 0 0.1
1.46 0 0.1
1.48 0 0.1
1.5 0 0.1
1.52 0 0.1
1.54 0 0.1
1.56 0 0.1
1.58 0 0.1
1.6 0 0.1
1.62 0 0.1
1.64 0 0.1
1.66 0 0.1
1.68 0 0.1
1.7 0 0.1
1.72 0 0.1
1.74 0 0.1
1.76 0 0.1
1.78 0 0.1
1.8 0 0.1
1.82 0 0.1
1.84 0 0.1
1.86 0 0.1
1.88 0 0.1
1.9 0 0.1
1.92 0 0.1
1.94 0 0.1
1.96 0 0.1
1.98 0 0.1
2 0.0199133 0.1
2 0.0414128 0.1
2 0.0646247 0.1
2 0.0896856 0.1
2 0.116743 0.1
2 0.145955 0.1
2 0.177494 0.1
2 0.211545 0.1
2 0.248309 0.1
2 0.288001 0.1
2 0.330854 0.1
2 0.377121 0.1
2 0.427073 0.1
2 0.481004 0.1
2 0.539231 0.1
2 0.602096 0.1
2 0.669968 0.1
2 0.743247 0.1
2 0.822362 0.1
2 0.907779 0.1
1.9 1 0.1
1.8 1 0.1
1.7 1 0.1
1.6 1 0.1
1.5 1 0.1
1.4 1 0.1
1.3 1 0.1
1.2 1 0.1
1.1 1 0.1
1 1 0.1
0.9 1 0.1
0.8 1 0.1
0.7 1 0.1
0.6 1 0.1
0.5 1 0.1
0.4 1 0.1
0.3 1 0.1
0.2 1 0.1
0.1 1 0.1
3.69793e-12 1 0.1
-0.1 1 0.1
-0.2 1 0.1
-0.3 1 0.1
-0.4 1 0.1
-0.5 1 0.1
-0.6 1 0.1
-0.7 1 0.1
-0.8 1 0.1
-0.9 1 0.1
1.08758 0.0158154 0
-0.0898513 0.0203294 0
0.0966181 0.0537636 0
0.90205 0.0548881 0
1.21055 0.0202058 0
-0.209811 0.0159577 0
1.3305 0.0176902 0
-0.33 0.0173205 0
1.45324 0.0148141 0
-0.448654 0.0159854 0
1.56842 0.0191785 0
-0.569936 0.0166364 0
0.193292 0.0805369 0
0.805051 0.0813623 0
0.709096 0.100353 0
0.288591 0.0996656 0
0.390184 0.111848 0
0.61033 0.111742 0
0.488809 0.116278 0
1.67175 0.0169692 0
-0.67 0.0169809 0
-0.955017 0.454039 0
1.95131 0.44569 0
1.74981 0.0168753 0
-0.75 0.0173205 0
-0.968032 0.266538 0
1.96871 0.266267 0
0.978232 0.0305687 0
0.0208675 0.026451 0
-0.150454 0.91842 0
1.13854 0.907437 0
1.45012 0.904365 0
-0.445923 0.908903 0
-0.853423 0.0157019 0
1.84881 0.016319 0
0.853689 0.915652 0
0.153944 0.912184 0
0.545151 0.914125 0
0.549913 0.115152 0
1.51 0.0173205 0
-0.506989 0.01651 0
1.27 0.0173205 0
1.14976 0.0173333 0
-0.268171 0.0206442 0
-0.150501 0.0153244 0
-0.391384 0.0153993 0
1.38886 0.0171544 0
-0.973694 0.161724 0
1.97441 0.162392 0
-0.945221 0.633523 0
1.94544 0.63312 0
1.91008 0.0186068 0
-0.91 0.0169616 0
-0.030664 0.0194327 0
1.03074 0.0165456 0
-0.966065 0.353575 0
1.96128 0.359765 0
1.93879 0.781254 0
-0.937057 0.781882 0
-0.980746 0.080709 0
1.9772 0.0760699 0
0.058735 0.0409372 0
0.355202 0.913001 0
0.86356 0.0661005 0
0.134223 0.0651111 0
0.941972 0.0397386 0
-0.653034 0.915003 0
1.65328 0.904589 0
0.770126 0.0881325 0
0.232946 0.0902008 0
0.330582 0.105648 0
0.670612 0.108365 0
0.428707 0.116145 0
1.80993 0.016629 0
-0.810168 0.0172178 0
-0.71 0.0173205 0
1.63047 0.0175504 0
1.70842 0.0169661 0
-0.628824 0.0181787 0
-0.949815 0.0133898 0
1.95 0.0173205 0
1.85542 0.907891 0
-0.85 0.913397 0
1.9833 0.0307692 0
-0.983315 0.0309709 0
-0.750025 0.916468 0
-0.701107 0.836904 0
-0.607741 0.836428 0
-0.656448 0.759827 0
-0.572936 0.758144 0
-0.61411 0.691195 0
-0.539534 0.689068 0
-0.578542 0.626111 0
-0.507461 0.624216 0
-0.544001 0.566638 0
-0.477696 0.564279 0
-0.511582 0.51001 0
-0.451689 0.507147 0
-0.481834 0.457732 0
-0.426137 0.454624 0
-0.453236 0.407539 0
-0.398845 0.406233 0
-0.507958 0.409496 0
-0.368427 0.460177 0
-0.344602 0.405209 0
-0.315696 0.447824 0
-0.294128 0.402169 0
-0.262844 0.444518 0
-0.241968 0.388746 0
-0.209878 0.439557 0
-0.185184 0.391135 0
-0.156687 0.437338 0
-0.133719 0.390776 0
-0.104405 0.434306 0
-0.0818745 0.388334 0
-0.0528785 0.431165 0
-0.0305984 0.385639 0
-0.00180552 0.427863 0
0.0194564 0.382608 0
0.0485809 0.42449 0
0.0701962 0.37973 0
0.0985483 0.421145 0
0.119893 0.377339 0
0.147837 0.417911 0
0.172552 0.36751 0
0.197018 0.412597 0
0.221203 0.37141 0
0.24512 0.409646 0
-0.48178 0.364657 0
-0.531053 0.364782 0
-0.0599102 0.344151 0
-0.324909 0.359566 0
0.266181 0.368462 0
0.292132 0.407649 0
0.311992 0.365779 0
0.338918 0.404821 0
0.357567 0.355909 0
0.384723 0.40053 0
0.404675 0.359681 0
0.430617 0.398558 0
0.450457 0.35827 0
0.474237 0.395182 0
0.496746 0.34898 0
0.520548 0.397931 0
0.542071 0.353121 0
0.566011 0.389914 0
0.585061 0.350856 0
0.609352 0.38696 0
0.629069 0.348168 0
0.655979 0.391217 0
0.67472 0.346182 0
0.699346 0.381414 0
0.719333 0.341965 0
0.743718 0.377547 0
0.764028 0.339036 0
0.788201 0.373582 0
0.807659 0.336101 0
0.832821 0.372249 0
0.852309 0.334017 0
0.877785 0.370339 0
0.897875 0.331141 0
0.922904 0.366281 0
0.943173 0.327335 0
0.968282 0.363358 0
0.989029 0.324222 0
1.01391 0.361511 0
1.03465 0.321428 0
1.05949 0.358447 0
1.08389 0.312052 0
1.10575 0.355104 0
1.12889 0.31562 0
1.15067 0.353235 0
1.17157 0.312819 0
1.19626 0.349369 0
1.21618 0.309863 0
1.2416 0.346914 0
1.26131 0.30715 0
1.28691 0.344312 0
1.30571 0.303752 0
1.33144 0.341222 0
1.35018 0.300911 0
1.3758 0.338308 0
1.39501 0.298931 0
1.42015 0.335235 0
1.43904 0.296349 0
1.46355 0.330194 0
1.48256 0.293347 0
1.50685 0.326967 0
1.52589 0.29055 0
1.54996 0.325305 0
1.56909 0.287929 0
[...]
CELL_DATA 3694
SCALARS rho float
LOOKUP_TABLE default
0.734759
0.66994
0.80368
0.812545
0.82617
0.804946
0.791417
0.799618
0.809557
0.802529
0.816876
0.81687
0.840143
0.789136
0.800441
0.74977
0.803166
0.802776
0.759546
0.849736
0.816858
0.822638
0.696042
0.80326
0.69261
0.83903
0.719786
0.805896
0.836661
0.798263
0.798461
0.718349
0.803333
0.824334
0.802573
0.796959
0.836897
0.822435
0.82445
0.778075
0.804496
0.817147
0.833988
0.824903
0.80496
0.812431
0.800438
0.664122
0.678681
0.719697
0.801929
0.802865
0.846496
0.801899
0.62749
0.837797
0.802389
0.818637
0.832478
0.753637
0.796071
0.814613
0.841774
0.799233
0.842291
0.830483
0.807256
0.813085
0.736479
0.858031
0.803082
0.807432
0.822661
0.80313
0.824071
0.802838
0.814009
0.799323
0.813462
0.80262
0.712728
0.818008
0.802163
0.776673
0.809419
0.799275
0.817981
0.713842
0.736189
0.824747
0.798792
0.802208
0.820112
0.815065
0.674281
0.806353
0.722592
0.817365
0.811882
0.839628
0.814181
0.761894
0.718893
0.809359
0.808857
0.814609
0.817342
0.806852
0.715089
0.813919
0.799088
0.721422
0.721138
0.823156
0.867657
0.802028
0.79935
0.811683
0.803067
0.80193
0.765523
0.822291
0.819317
0.769428
0.704755
0.758069
0.81701
0.776441
0.843272
0.699433
0.766996
0.800191
0.807767
0.777287
0.800549
0.795224
0.805298
0.80227
0.797634
0.814113
0.813342
0.709633
0.816533
0.813171
0.757196
0.666479
0.676475
0.797763
0.815593
0.812937
0.743686
0.802581
0.553755
0.778181
0.684091
0.762816
0.713053
0.783341
0.605551
0.792855
0.837345
0.643957
0.781799
0.736607
0.843823
0.55199
0.817037
0.800068
0.802509
0.672691
0.801465
0.661796
0.857554
0.534291
0.799718
0.631852
0.872243
0.832995
0.820291
0.745026
0.813688
0.721947
0.826585
0.73731
0.64774
0.803025
0.674192
0.823042
0.801559
0.850693
0.791591
0.704797
0.814329
0.798032
0.741495
0.852625
0.81123
0.848583
0.736132
0.742234
0.770633
0.793448
0.831391
0.834074
0.816718
0.813717
0.668294
0.804464
0.726199
0.803115
0.707635
0.797044
0.795483
0.801348
0.825376
0.763112
0.830092
0.749071
0.825316
0.819523
0.815546
0.852881
0.829276
0.702191
0.826733
0.688197
0.787569
0.809653
0.850861
0.829872
0.8079
0.794222
0.744658
0.817239
0.836415
0.817052
0.714328
0.799438
0.694141
0.791871
0.795339
0.809641
0.636585
0.807385
0.757201
0.797697
0.803043
0.758767
0.81477
0.865555
0.784073
0.692623
0.80427
0.801301
0.646353
0.791925
0.777618
0.80228
0.83873
0.814369
0.607305
0.814792
0.809978
0.796501
0.815067
0.802545
0.815215
0.81424
0.835454
0.75577
0.801723
0.834566
0.810141
0.803083
0.79594
0.814535
0.728301
0.58665
0.8165
0.829465
0.820087
0.804106
0.680273
0.815065
0.814793
0.816474
0.712391
0.796938
0.814638
0.537985
0.802746
0.868958
0.677194
0.755764
0.83842
0.826728
0.814376
0.707677
0.809271
0.814633
0.803675
0.801494
0.811979
0.836416
0.817026
0.766908
0.806878
0.802979
0.645782
0.820686
0.827571
0.670844
0.790677
0.818527
0.820729
0.678298
0.685468
0.821107
0.823788
0.809396
0.733546
0.706317
0.713046
0.731916
0.819993
0.776264
0.804021
0.731746
0.742029
0.82221
0.809882
0.818854
0.769514
0.814769
0.813443
0.81701
0.815633
0.80267
0.807388
0.803576
0.692505
0.802641
0.812618
0.693798
0.806851
0.804969
0.819113
0.785601
0.805788
0.791648
0.814521
0.820676
0.819864
0.797908
0.68021
0.709953
0.799273
0.810736
0.62161
0.803745
0.807184
0.817093
0.74271
0.804132
0.816044
0.811206
0.817488
0.804899
0.797154
0.763997
0.804011
0.843299
0.819775
0.707336
0.803474
0.70153
0.704892
0.802928
0.614082
0.770312
0.784592
0.807917
0.813042
0.825018
0.8168
0.812416
0.819874
0.827986
0.802767
0.764146
0.80962
0.658275
0.818933
0.756829
0.727178
0.686503
0.813583
0.853826
0.81896
0.808477
0.821962
0.814953
0.786678
0.757846
0.809265
0.692761
0.791034
0.843354
0.826464
0.800695
0.863864
0.813235
0.816231
0.817226
0.830904
0.628752
0.798373
0.730623
0.797682
0.735057
0.81876
0.808526
0.786978
0.685312
0.814424
0.82987
0.81154
0.802813
0.80367
0.824088
0.803725
0.710149
0.790175
0.803055
0.814378
0.813677
0.812296
0.871496
0.827544
0.809241
0.831855
0.68163
0.823133
0.837393
0.815885
0.627142
0.814929
0.809031
0.845291
0.821076
0.802869
0.591706
0.809946
0.695302
0.805977
0.802839
0.811955
0.813173
0.825072
0.804945
0.811069
0.81572
0.723516
0.862773
0.80184
0.849993
0.8161
0.573314
0.803778
0.796547
0.811268
0.817352
0.647583
0.802766
0.809497
0.812846
0.806979
0.793737
0.815266
0.817009
0.79587
0.803635
0.821165
0.836719
0.729684
0.806145
0.809419
0.812812
0.682031
0.805079
0.815731
0.799055
0.803941
0.520391
0.832698
0.763279
0.814288
0.817432
0.830639
0.846071
0.815829
0.811272
0.715354
0.798724
0.852231
0.808153
0.709633
0.800023
0.802569
0.872085
0.845103
0.818769
0.801946
0.809535
0.755175
0.815083
0.813699
0.584268
0.802523
0.728957
0.750045
0.802963
0.81106
0.780859
0.821157
0.814919
0.837877
0.815687
0.800365
0.808676
0.738632
0.736491
0.804047
0.807782
0.820847
0.802075
0.751613
0.688213
0.813206
0.81503
0.81387
0.594072
0.813322
0.816449
0.824469
0.802935
0.808427
0.819393
0.811712
0.839239
0.802931
0.812536
0.823487
0.815265
0.817551
0.821307
0.688224
0.784037
0.794603
0.803039
0.84744
0.802016
0.802497
0.634753
0.810641
0.81323
0.810611
0.818766
0.805659
0.812773
0.726769
0.843436
0.707684
0.800249
0.817039
0.807112
0.651547
0.683718
0.815149
0.805557
0.804109
0.785142
0.801482
0.829042
0.813233
0.804871
0.802027
0.811996
0.61921
0.812065
0.80291
0.697735
0.815274
0.616632
0.783697
0.815217
0.837631
0.805646
0.812165
0.792173
0.795299
0.803909
0.801385
0.811704
0.810978
0.808703
0.803195
0.757229
0.803998
0.812199
0.811651
0.815996
0.811209
0.815616
0.814579
0.8341
0.737719
0.806538
0.815343
0.802308
0.541695
0.681562
0.811035
0.812933
0.814887
0.780234
0.808114
0.812565
0.803057
0.799824
0.802623
0.81972
0.820549
0.81466
0.784575
0.807901
0.805401
0.543077
0.773675
0.757033
0.806289
0.735313
0.675025
0.79745
0.767343
0.827509
0.814578
0.814358
0.808257
0.539458
0.815384
0.582811
0.695172
0.824431
0.869611
0.741029
0.816299
0.85273
0.694505
0.815094
0.808904
0.814765
0.807234
0.655762
0.854413
0.737307
0.729498
0.803231
0.804504
0.799423
0.833315
0.814856
0.690578
0.815284
0.800222
0.690857
0.83934
0.798
0.621514
0.772652
0.815384
0.807634
0.814494
0.784335
0.724546
0.769784
0.836893
0.68821
0.815646
0.817082
0.826708
0.765022
0.821819
0.691046
0.804499
0.660136
0.70034
0.800281
0.822555
0.788209
0.814228
0.815074
0.814889
0.813642
0.57645
0.802514
0.814622
0.74305
0.809974
0.815114
0.811487
0.715597
0.693035
0.741012
0.619617
0.807175
0.681113
0.815336
0.801847
0.814669
0.836878
0.686832
0.804272
0.819559
0.832307
0.737368
0.781545
0.76471
0.772816
0.812086
0.562731
0.671663
0.814977
0.805246
0.812064
0.804483
0.712329
0.780063
0.723919
0.760548
0.799503
0.831726
0.812132
0.690888
0.823163
0.817639
0.81064
0.684997
0.693529
0.681047
0.872031
0.815583
0.816363
0.608372
0.711023
0.640835
0.803343
0.800294
0.671341
0.811835
0.824308
0.748729
0.799354
0.729284
0.813847
0.692062
0.814399
0.810398
0.80126
0.803066
0.825384
0.743987
0.815439
0.814639
0.780187
0.551643
0.816128
0.810654
0.757569
0.813525
0.747488
0.80282
0.82625
0.657249
0.817876
0.802685
0.80991
0.58264
0.626534
0.734892
0.806301
0.811817
0.810546
0.820828
0.814604
0.815683
0.704088
0.801887
0.812881
0.826034
0.703131
0.72567
0.811947
0.811659
0.69579
0.81426
0.774222
0.702376
0.811809
0.695575
0.804011
0.661985
0.802866
0.730256
0.666246
0.810901
0.786046
0.74388
0.63063
0.839955
0.821
0.814656
0.770127
0.813849
0.800027
0.785908
0.799836
0.801628
0.814906
0.731205
0.809624
0.799955
0.818521
0.597711
0.801292
0.812676
0.813638
0.811327
0.811889
0.745883
0.802794
0.763898
0.7504
0.818364
0.645754
0.818303
0.817423
0.803066
0.81533
0.816561
0.719988
0.768441
0.821881
0.785123
0.803687
0.815765
0.874992
0.817775
0.798061
0.81654
0.815012
0.793887
0.818232
0.816662
0.773044
0.697391
0.84105
0.796938
0.803157
0.8225
0.780927
0.817591
0.824725
0.818407
0.816614
0.87044
0.803085
0.804808
0.818008
0.803081
0.815126
0.806877
0.735303
0.815052
0.819466
0.753847
0.707715
0.814938
0.843102
0.822259
0.651971
0.821529
0.773489
0.808073
0.801852
0.729351
0.803109
0.798591
0.815397
0.816666
0.692747
0.703986
0.802152
0.787493
0.801491
0.824682
0.722184
0.814636
0.802364
0.800081
0.823247
0.815114
0.712416
0.815374
0.762908
0.802391
0.832507
0.803311
0.773128
0.797841
0.794588
0.814762
0.579102
0.81459
0.695471
0.67689
0.803416
0.819292
0.814646
0.802513
0.814788
0.808234
0.723627
0.78754
0.857018
0.803007
0.833366
0.807347
0.541301
0.762198
0.77958
0.646897
0.737277
0.577644
0.819958
0.81292
0.813753
0.8024
0.766665
0.684226
0.764126
0.752171
0.781912
0.81456
0.844806
0.81913
0.805756
0.819216
0.823584
0.80259
0.807455
0.704136
0.803087
0.75604
0.808597
0.797741
0.751257
0.822161
0.788312
0.803494
0.789559
0.840768
0.727526
0.800827
0.799351
0.804822
0.616911
0.815154
0.815032
0.821616
0.630229
0.814911
0.814917
0.798433
0.803794
0.793119
0.775004
0.806101
0.794372
0.815652
0.753123
0.80359
0.875205
0.762425
0.747589
0.80678
0.783902
0.842434
0.799686
0.779287
0.815204
0.798119
0.792439
0.807983
0.825341
0.835544
0.799659
0.57291
0.820189
0.828037
0.77199
0.83054
0.838054
0.822628
0.826057
0.807192
0.832739
0.826609
0.783633
0.808808
0.811057
0.806084
0.822452
0.803326
0.827255
0.792818
0.803028
0.805648
0.726099
0.80701
0.560134
0.817681
0.825075
0.828393
0.805622
0.817962
0.823658
0.819286
0.820545
0.838606
0.8329
0.787651
0.800279
0.821443
0.815073
0.816652
0.800134
0.806298
0.865454
0.819764
0.847208
0.814782
0.800543
0.824494
0.799649
0.833325
0.813136
0.815071
0.805195
0.725594
0.802839
0.80444
0.814722
0.803255
0.801871
0.821962
0.80447
0.804092
0.777752
0.819603
0.716878
0.813952
0.779994
0.758546
0.803484
0.813154
0.818866
0.714478
0.819039
0.815073
0.826429
0.816788
0.789475
0.815967
0.847169
0.832898
0.814689
0.811594
0.801487
0.743266
0.676558
0.814724
0.820406
0.770546
0.81408
0.807631
0.811472
0.80529
0.798356
0.775969
0.802332
0.799922
0.841273
0.817081
0.811242
0.806154
0.602366
0.730439
0.802068
0.78307
0.803964
0.815381
0.805777
0.815738
0.779614
0.814796
0.804657
0.810351
0.803585
0.817538
0.803137
0.815521
0.81056
0.815512
0.812502
0.716661
0.814161
0.81533
0.596136
0.814558
0.796621
0.802644
0.858631
0.818039
0.810367
0.872385
0.814951
0.815032
0.81651
0.818523
0.81495
0.763983
0.830176
0.801166
0.803049
0.814229
0.814898
0.816389
0.814751
0.813109
0.822663
0.803845
0.812183
0.808903
0.814964
0.819823
0.81477
0.811457
0.818961
0.808778
0.696477
0.658471
0.802506
0.808362
0.803209
0.810956
0.818061
0.816791
0.802771
0.803626
0.800404
0.800678
0.816573
0.844206
0.818222
0.811294
0.818167
0.817842
0.845857
0.817155
0.82087
0.785436
0.815479
0.806646
0.801047
0.791843
0.810461
0.818177
0.8146
0.814817
0.835862
0.805799
0.812316
0.81629
0.821367
0.803376
0.803059
0.805368
0.810536
0.814716
0.801418
0.802739
0.816561
0.822341
0.800629
0.592111
0.804116
0.796619
0.817026
0.798459
0.802632
0.74789
0.840621
0.802597
0.799573
0.834559
0.829471
0.810056
0.825932
0.800294
0.817517
0.817111
0.81837
0.803469
0.817952
0.727301
0.822002
0.811359
0.799913
0.812858
0.820198
0.798961
0.803845
0.782016
0.814987
0.814998
0.815107
0.81816
0.806264
0.816707
0.8154
0.825761
0.82182
0.837436
0.805753
0.694671
0.817594
0.840424
0.81943
0.804424
0.79987
0.803173
0.815919
0.813935
0.815607
0.743459
0.737466
0.80055
0.802814
0.815279
0.816212
0.798389
0.651822
0.707795
0.807857
0.768902
0.815447
0.702504
0.802974
0.72761
0.803123
0.819745
0.803059
0.816939
0.812381
0.798421
0.808399
0.793141
0.829698
0.815138
0.801009
0.803322
0.815478
0.821322
0.74889
0.822373
0.803577
0.783016
0.815011
0.803675
0.810253
0.814175
0.814589
0.835063
0.792384
0.798781
0.814887
0.75856
0.806414
0.814314
0.800846
0.815548
0.841059
0.802066
0.843025
0.808387
0.790058
0.811388
0.802554
0.851795
0.788261
0.803058
0.815588
0.831333
0.808194
0.813265
0.815286
0.802686
0.802587
0.825776
0.782363
0.813823
0.81487
0.642627
0.815074
0.71212
0.817438
0.838009
0.824161
0.803776
0.814076
0.814724
0.725147
0.814262
0.80058
0.801421
0.800658
0.815298
0.863704
0.80105
0.800769
0.785159
0.840405
0.827794
0.8192
0.81279
0.746318
0.803136
0.803272
0.730255
0.799169
0.713809
0.810014
0.800812
0.675681
0.880165
0.701854
0.771966
0.801015
0.742749
0.808184
0.798686
0.802966
0.659585
0.796569
0.783861
0.798732
0.727988
0.818286
0.822074
0.884498
0.809262
0.831057
0.644312
0.799706
0.786522
0.74376
0.750803
0.768531
0.70518
0.802983
0.799059
0.803057
0.763247
0.626263
0.811233
0.611895
0.820747
0.822535
0.811308
0.73636
0.811719
0.79502
0.818711
0.782497
0.806752
0.796965
0.809522
0.716132
0.801281
0.721819
0.801127
0.798528
0.685067
0.803434
0.81462
0.814683
0.803
0.760794
0.814453
0.73211
0.6901
0.802164
0.81468
0.874333
0.814579
0.813962
0.880514
0.865341
0.830647
0.717863
0.801807
0.811701
0.821066
0.797603
0.680082
0.722164
0.67502
0.802283
0.704581
0.768097
0.799178
0.615163
0.688804
0.835867
0.773185
0.744872
0.830166
0.758764
0.76905
0.630349
0.730882
0.784735
0.819302
0.869414
0.837567
0.815025
0.794247
0.799443
0.715265
0.814876
0.693463
0.796854
0.814658
0.783332
0.762134
0.801303
0.782427
0.802072
0.800546
0.811197
0.810894
0.867035
0.568543
0.537433
0.802248
0.806624
0.697671
0.80976
0.802684
0.837287
0.803365
0.802265
0.566309
0.553914
0.808226
0.811857
0.814789
0.725751
0.803069
0.810137
0.683809
0.810875
0.802589
0.813293
0.803101
0.800205
0.802137
0.81374
0.802857
0.816839
0.80311
0.861945
0.814097
0.802405
0.721094
0.669373
0.814828
0.584388
0.812328
0.809826
0.835622
0.813347
0.802923
0.810551
0.812787
0.812568
0.814411
0.801483
0.85372
0.856313
0.802092
0.654461
0.808001
0.822222
0.799295
0.803077
0.819592
0.733441
0.803175
0.824879
0.820936
0.81514
0.814664
0.766299
0.745332
0.800595
0.833718
0.802628
0.813889
0.804295
0.803497
0.804831
0.813418
0.808647
0.798494
0.806709
0.805824
0.824375
0.80652
0.806119
0.817016
0.806657
0.803309
0.812514
0.80288
0.802744
0.805649
0.807633
0.812653
0.773333
0.805176
0.802611
0.814573
0.799527
0.80362
0.806695
0.831525
0.804882
0.649139
0.800626
0.814836
0.804515
0.814585
0.762705
0.814604
0.750235
0.803546
0.802085
0.803923
0.818734
0.850837
0.804224
0.803189
0.746868
0.829244
0.814563
0.819913
0.824755
0.814313
0.736088
0.817571
0.721443
0.800915
0.827216
0.802275
0.699009
0.825442
0.814302
0.815778
0.823689
0.814983
0.773041
0.816599
0.647397
0.709714
0.814658
0.822163
0.674704
0.818777
0.658136
0.820963
0.806593
0.816091
0.803102
0.80538
0.814435
0.831424
0.824936
0.670841
0.812643
0.841779
0.781247
0.846061
0.800143
0.705061
0.838232
0.819004
0.835252
0.687299
0.682359
0.832563
0.655956
0.830258
0.814674
0.828219
0.806142
0.826492
0.787502
0.824981
0.823582
0.70686
0.865516
0.822381
0.821367
0.823451
0.758877
0.802734
0.522697
0.802799
0.820483
0.813136
0.804601
0.825539
0.814611
0.797821
0.819706
0.802906
0.679068
0.792244
0.834009
0.814002
0.715284
0.798924
0.821406
0.574994
0.81436
0.815191
0.802493
0.809772
0.725655
0.817558
0.802947
0.803379
0.795821
0.793645
0.797772
0.794562
0.803225
0.81201
0.819169
0.813708
0.571786
0.892926
0.705318
0.797742
0.739188
0.791304
0.814588
0.815306
0.815187
0.603826
0.818632
0.817063
0.803773
0.817628
0.836427
0.839324
0.782723
0.798314
0.799355
0.724613
0.75236
0.814853
0.763731
0.815023
0.818692
0.81442
0.813347
0.801863
0.775023
0.811908
0.815727
0.7281
0.810446
0.815506
0.817745
0.807656
0.809323
0.764397
0.8142
0.808046
0.803086
0.80729
0.615902
0.806353
0.804196
0.805776
0.820979
0.845396
0.804565
0.773945
0.805139
0.771399
0.81993
0.805509
0.81237
0.814597
0.850019
0.803303
0.744167
0.819637
0.814851
0.726799
0.800741
0.815869
0.758283
0.812245
0.568511
0.806428
0.685347
0.801041
0.810868
0.812114
0.816863
0.804081
0.815424
0.817377
0.800896
0.804174
0.844214
0.815786
0.796077
0.815851
0.80179
0.801358
0.800159
0.801118
0.806816
0.814226
0.80148
0.769676
0.818077
0.812683
0.808734
0.814607
0.586019
0.803221
0.81354
0.814902
0.78722
0.747974
0.718858
0.812107
0.814452
0.825644
0.789081
0.602346
0.771282
0.639473
0.816374
0.744996
0.811828
0.830015
0.694447
0.799556
0.833599
0.749116
0.800482
0.803082
0.815189
0.802062
0.698519
0.800581
0.547707
0.801646
0.802346
0.802105
0.568894
0.802847
0.803334
0.803084
0.728252
0.73715
0.803331
0.776192
0.815252
0.721849
0.706369
0.814648
0.801219
0.752324
0.853977
0.813451
0.811888
0.668924
0.80269
0.80045
0.800348
0.802385
0.656124
0.803146
0.814909
0.653927
0.685035
0.805687
0.790198
0.814738
0.822937
0.814635
0.814837
0.816073
0.803555
0.814811
0.814573
0.813156
0.829066
0.802347
0.8017
0.810206
0.72644
0.809443
0.814429
0.862638
0.810719
0.637471
0.774347
0.802093
0.775964
0.816328
0.811453
0.829789
0.813893
0.86444
0.801797
0.814202
0.593051
0.815443
0.83362
0.802842
0.813868
0.624344
0.815026
0.802636
0.816285
0.802144
0.81716
0.815577
0.75453
0.80346
0.803077
0.83488
0.861747
0.819465
0.815711
0.725059
0.741142
0.802428
0.802936
0.811852
0.817709
0.799425
0.802768
0.819152
0.8062
0.807408
0.739294
0.802631
0.817155
0.813596
0.76802
0.760349
0.811389
0.7963
0.856832
0.718418
0.834339
0.810644
0.711585
0.799565
0.814058
0.787338
0.800591
0.799603
0.814663
0.777067
0.774343
0.812994
0.696655
0.798529
0.765252
0.814522
0.816901
0.801894
0.787316
0.738144
0.752001
0.773722
0.814234
0.818596
0.805451
0.657989
0.801863
0.795498
0.777677
0.809612
0.812561
0.799416
0.803018
0.633086
0.803863
0.804488
0.851113
0.803604
0.808913
0.833066
0.805166
0.809771
0.852041
0.61211
0.803935
0.815773
0.805286
0.8049
0.805588
0.80447
0.804567
0.804088
0.805672
0.80619
0.724206
0.805563
0.806875
0.806482
0.814747
0.808006
0.818221
0.803045
0.803417
0.814333
0.814511
0.80967
0.803302
0.816098
0.812995
0.809505
0.815662
0.707932
0.813541
0.831262
0.814536
0.854097
0.749426
0.807748
0.814591
0.800662
0.600883
0.803176
0.772093
0.821567
0.626785
0.815192
0.829266
0.814272
0.811564
0.801987
0.8269
0.818933
0.803479
0.764505
0.816718
0.75831
0.546402
0.813933
0.695209
0.694558
0.820265
0.827378
0.827185
0.816316
0.847345
0.571199
0.876647
0.805115
0.825667
0.823988
0.812614
0.681284
0.814462
0.822439
0.816023
0.800864
0.773547
0.822136
0.56495
0.812825
0.842978
0.80304
0.839405
0.821193
0.803227
0.668623
0.843136
0.820129
0.836205
0.800747
0.813529
0.803
0.833559
0.802729
0.81345
0.831122
0.828965
0.821895
0.824002
0.830658
0.738848
0.660756
0.563469
0.827109
0.825575
0.76705
0.756167
0.806075
0.824137
0.846681
0.590447
0.822846
0.821747
0.820829
0.819288
0.803813
0.820655
0.657263
0.743852
0.820021
0.797233
0.869897
0.890028
0.776182
0.803639
0.669121
0.835362
0.729983
0.718059
0.819002
0.801516
0.783253
0.660175
0.802084
0.814686
0.788694
0.711139
0.800208
0.817024
0.797847
0.675845
0.823278
0.792656
0.815376
0.833042
0.815022
0.795415
0.815826
0.815583
0.785676
0.803876
0.710139
0.840472
0.792903
0.810791
0.78172
0.804269
0.695572
0.800701
0.813353
0.811988
0.810821
0.809294
0.808202
0.807445
0.805818
0.804706
0.806627
0.724606
0.805257
0.801336
0.795762
0.803202
0.844307
0.714647
0.803126
0.775923
0.883873
0.854193
0.797873
0.72301
0.803177
0.797574
0.718592
0.803213
0.801568
0.73382
0.803537
0.789655
0.797141
0.80096
0.73705
0.779404
0.804204
0.746873
0.764131
0.769097
0.801281
0.814318
0.808471
0.758291
0.750989
0.799405
0.813337
0.803232
0.79271
0.800998
0.928605
0.860425
0.817427
0.814479
0.723502
0.844157
0.747294
0.825893
0.816306
0.898066
0.814651
0.79699
0.587961
0.814684
0.797105
0.81472
0.797524
0.845399
0.520046
0.832606
0.801446
0.805472
0.804745
0.803638
0.855686
0.801163
0.817064
0.701219
0.662666
0.666272
0.814766
0.501985
0.79753
0.721423
0.841645
0.814571
0.557224
0.80184
0.814177
0.813846
0.718669
0.801572
0.52385
0.797027
0.814906
0.797146
0.802618
0.797387
0.815079
0.833746
0.803216
0.798094
0.815479
0.798359
0.815632
0.813827
0.798641
0.815805
0.813398
0.816007
0.79875
0.816233
0.679143
0.798944
0.816486
0.803
0.799134
0.81674
0.697348
0.814677
0.798091
0.814617
0.798207
0.809708
0.838133
0.861152
0.800831
0.800221
0.817687
0.815206
0.799863
0.799487
0.863362
0.812011
0.817357
0.81016
0.84974
0.828276
0.816329
0.825484
0.846031
0.814615
0.80135
0.818932
0.811418
0.801775
0.81451
0.799855
0.807307
0.782924