# vtk DataFile Version 1.0
unstructured grid
ascii
DATASET UNSTRUCTURED_GRID
points 3920 float
-1 0 0
-1 1 0
2 0 0
2 1 0
0 0 0
1 0 0
-1 1 0.1
-1 0 0.1
0 0 0.1
1 0 0.1
2 0 0.1
2 1 0.1
-0.98 0 0
-0.96 0 0
-0.94 0 0
-0.92 0 0
-0.9 0 0
-0.88 0 0
-0.86 0 0
-0.84 0 0
-0.82 0 0
-0.8 0 0
-0.78 0 0
-0.76 0 0
-0.74 0 0
-0.72 0 0
-0.7 0 0
-0.68 0 0
-0.66 0 0
-0.64 0 0
-0.62 0 0
-0.6 0 0
-0.58 0 0
-0.56 0 0
-0.54 0 0
-0.52 0 0
-0.5 0 0
-0.48 0 0
-0.46 0 0
-0.44 0 0
-0.42 0 0
-0.4 0 0
-0.38 0 0
-0.36 0 0
-0.34 0 0
-0.32 0 0
-0.3 0 0
-0.28 0 0
-0.26 0 0
-0.24 0 0
-0.22 0 0
-0.2 0 0
-0.18 0 0
-0.16 0 0
-0.14 0 0
-0.12 0 0
-0.1 0 0
-0.08 0 0
-0.06 0 0
-0.04 0 0
-0.02 0 0
1.02 0 0
1.04 0 0
1.06 0 0
1.08 0 0
1.1 0 0
1.12 0 0
1.14 0 0
1.16 0 0
1.18 0 0
1.2 0 0
1.22 0 0
1.24 0 0
1.26 0 0
1.28 0 0
1.3 0 0
1.32 0 0
1.34 0 0
1.36 0 0
1.38 0 0
1.4 0 0
1.42 0 0
1.44 0 0
1.46 0 0
1.48 0 0
1.5 0 0
1.52 0 0
1.54 0 0
1.56 0 0
1.58 0 0
1.6 0 0
1.62 0 0
1.64 0 0
1.66 0 0
1.68 0 0
1.7 0 0
1.72 0 0
1.74 0 0
1.76 0 0
1.78 0 0
1.8 0 0
1.82 0 0
1.84 0 0
1.86 0 0
1.88 0 0
1.9 0 0
1.92 0 0
1.94 0 0
1.96 0 0
1.98 0 0
2 0.0199133 0
2 0.0414128 0
2 0.0646247 0
2 0.0896856 0
2 0.116743 0
2 0.145955 0
2 0.177494 0
2 0.211545 0
2 0.248309 0
2 0.288001 0
2 0.330854 0
2 0.377121 0
2 0.427073 0
2 0.481004 0
2 0.539231 0
2 0.602096 0
2 0.669968 0
2 0.743247 0
2 0.822362 0
2 0.907779 0
1.9 1 0
1.8 1 0
1.7 1 0
1.6 1 0
1.5 1 0
1.4 1 0
1.3 1 0
1.2 1 0
1.1 1 0
1 1 0
0.9 1 0
0.8 1 0
0.7 1 0
0.6 1 0
0.5 1 0
0.4 1 0
0.3 1 0
0.2 1 0
0.1 1 0
3.69793e-12 1 0
-0.1 1 0
-0.2 1 0
-0.3 1 0
-0.4 1 0
-0.5 1 0
-0.6 1 0
-0.7 1 0
-0.8 1 0
-0.9 1 0
-1 0.907779 0
-1 0.822362 0
-1 0.743247 0
-1 0.669968 0
-1 0.602096 0
-1 0.539231 0
-1 0.481004 0
-1 0.427073 0
-1 0.377121 0
-1 0.330854 0
-1 0.288001 0
-1 0.248309 0
-1 0.211545 0
-1 0.177494 0
-1 0.145955 0
-1 0.116743 0
-1 0.0896856 0
-1 0.0646247 0
-1 0.0414128 0
-1 0.0199133 0
0.0182781 0.00745351 0
0.0366672 0.0146286 0
0.0551632 0.0215237 0
0.0737617 0.0281372 0
0.0924585 0.0344675 0
0.111249 0.0405131 0
0.13013 0.0462728 0
0.149095 0.0517451 0
0.168142 0.0569289 0
0.187265 0.0618228 0
0.20646 0.0664258 0
0.225723 0.0707368 0
0.245049 0.0747549 0
0.264434 0.078479 0
0.283873 0.0819084 0
0.303362 0.0850422 0
0.322896 0.0878798 0
0.342472 0.0904204 0
0.362083 0.0926635 0
0.381726 0.0946086 0
0.401397 0.0962552 0
0.42109 0.0976029 0
0.440802 0.0986514 0
0.460527 0.0994006 0
0.480261 0.0998501 0
0.5 0.1 0
0.519739 0.0998501 0
0.539473 0.0994006 0
0.559198 0.0986514 0
0.57891 0.0976029 0
0.598603 0.0962552 0
0.618274 0.0946086 0
0.637917 0.0926635 0
0.657528 0.0904204 0
0.677104 0.0878798 0
0.696638 0.0850422 0
0.716127 0.0819084 0
0.735566 0.078479 0
0.754951 0.0747549 0
0.774277 0.0707368 0
0.79354 0.0664258 0
0.812735 0.0618228 0
0.831858 0.0569289 0
0.850905 0.0517451 0
0.86987 0.0462728 0
0.888751 0.0405131 0
0.907542 0.0344675 0
0.926238 0.0281372 0
0.944837 0.0215237 0
0.963333 0.0146286 0
0.981722 0.00745351 0
-1 0.907779 0.1
-1 0.822362 0.1
-1 0.743247 0.1
-1 0.669968 0.1
-1 0.602096 0.1
-1 0.539231 0.1
-1 0.481004 0.1
-1 0.427073 0.1
-1 0.377121 0.1
-1 0.330854 0.1
-1 0.288001 0.1
-1 0.248309 0.1
-1 0.211545 0.1
-1 0.177494 0.1
-1 0.145955 0.1
-1 0.116743 0.1
-1 0.0896856 0.1
-1 0.0646247 0.1
-1 0.0414128 0.1
-1 0.0199133 0.1
-0.98 0 0.1
-0.96 0 0.1
-0.94 0 0.1
-0.92 0 0.1
-0.9 0 0.1
-0.88 0 0.1
-0.86 0 0.1
-0.84 0 0.1
-0.82 0 0.1
-0.8 0 0.1
-0.78 0 0.1
-0.76 0 0.1
-0.74 0 0.1
-0.72 0 0.1
-0.7 0 0.1
-0.68 0 0.1
-0.66 0 0.1
-0.64 0 0.1
-0.62 0 0.1
-0.6 0 0.1
-0.58 0 0.1
-0.56 0 0.1
-0.54 0 0.1
-0.52 0 0.1
-0.5 0 0.1
-0.48 0 0.1
-0.46 0 0.1
-0.44 0 0.1
-0.42 0 0.1
-0.4 0 0.1
-0.38 0 0.1
-0.36 0 0.1
-0.34 0 0.1
-0.32 0 0.1
-0.3 0 0.1
-0.28 0 0.1
-0.26 0 0.1
-0.24 0 0.1
-0.22 0 0.1
-0.2 0 0.1
-0.18 0 0.1
-0.16 0 0.1
-0.14 0 0.1
-0.12 0 0.1
-0.1 0 0.1
-0.08 0 0.1
-0.06 0 0.1
-0.04 0 0.1
-0.02 0 0.1
0.0182781 0.00745351 0.1
0.0366672 0.0146286 0.1
0.0551632 0.0215237 0.1
0.0737617 0.0281372 0.1
0.0924585 0.0344675 0.1
0.111249 0.0405131 0.1
0.13013 0.0462728 0.1
0.149095 0.0517451 0.1
0.168142 0.0569289 0.1
0.187265 0.0618228 0.1
0.20646 0.0664258 0.1
0.225723 0.0707368 0.1
0.245049 0.0747549 0.1
0.264434 0.078479 0.1
0.283873 0.0819084 0.1
0.303362 0.0850422 0.1
0.322896 0.0878798 0.1
0.342472 0.0904204 0.1
0.362083 0.0926635 0.1
0.381726 0.0946086 0.1
0.401397 0.0962552 0.1
0.42109 0.0976029 0.1
0.440802 0.0986514 0.1
0.460527 0.0994006 0.1
0.480261 0.0998501 0.1
0.5 0.1 0.1
0.519739 0.0998501 0.1
0.539473 0.0994006 0.1
0.559198 0.0986514 0.1
0.57891 0.0976029 0.1
0.598603 0.0962552 0.1
0.618274 0.0946086 0.1
0.637917 0.0926635 0.1
0.657528 0.0904204 0.1
0.677104 0.0878798 0.1
0.696638 0.0850422 0.1
0.716127 0.0819084 0.1
0.735566 0.078479 0.1
0.754951 0.0747549 0.1
0.774277 0.0707368 0.1
0.79354 0.0664258 0.1
0.812735 0.0618228 0.1
0.831858 0.0569289 0.1
0.850905 0.0517451 0.1
0.86987 0.0462728 0.1
0.888751 0.0405131 0.1
0.907542 0.0344675 0.1
0.926238 0.0281372 0.1
0.944837 0.0215237 0.1
0.963333 0.0146286 0.1
0.981722 0.00745351 0.1
1.02 0 0.1
1.04 0 0.1
1.06 0 0.1
1.08 0 0.1
1.1 0 0.1
1.12 0 0.1
1.14 0 0.1
1.16 0 0.1
1.18 0 0.1
1.2 0 0.1
1.22 0 0.1
1.24 0 0.1
1.26 0 0.1
1.28 0 0.1
1.3 0 0.1
1.32 0 0.1
1.34 0 0.1
1.36 0 0.1
1.38 0 0.1
1.4 0 0.1
1.42 0 0.1
1.44 0 0.1
1.46 0 0.1
1.48 0 0.1
1.5 0 0.1
1.52 0 0.1
1.54 0 0.1
1.56 0 0.1
1.58 0 0.1
1.6 0 0.1
1.62 0 0.1
1.64 0 0.1
1.66 0 0.1
1.68 0 0.1
1.7 0 0.1
1.72 0 0.1
1.74 0 0.1
1.76 0 0.1
1.78 0 0.1
1.8 0 0.1
1.82 0 0.1
1.84 0 0.1
1.86 0 0.1
1.88 0 0.1
1.9 0 0.1
1.92 0 0.1
1.94 0 0.1
1.96 0 0.1
1.98 0 0.1
2 0.0199133 0.1
2 0.0414128 0.1
2 0.0646247 0.1
2 0.0896856 0.1
2 0.116743 0.1
2 0.145955 0.1
2 0.177494 0.1
2 0.211545 0.1
2 0.248309 0.1
2 0.288001 0.1
2 0.330854 0.1
2 0.377121 0.1
2 0.427073 0.1
2 0.481004 0.1
2 0.539231 0.1
2 0.602096 0.1
2 0.669968 0.1
2 0.743247 0.1
2 0.822362 0.1
2 0.907779 0.1
1.9 1 0.1
1.8 1 0.1
1.7 1 0.1
1.6 1 0.1
1.5 1 0.1
1.4 1 0.1
1.3 1 0.1
1.2 1 0.1
1.1 1 0.1
1 1 0.1
0.9 1 0.1
0.8 1 0.1
0.7 1 0.1
0.6 1 0.1
0.5 1 0.1
0.4 1 0.1
0.3 1 0.1
0.2 1 0.1
0.1 1 0.1
3.69793e-12 1 0.1
-0.1 1 0.1
-0.2 1 0.1
-0.3 1 0.1
-0.4 1 0.1
-0.5 1 0.1
-0.6 1 0.1
-0.7 1 0.1
-0.8 1 0.1
-0.9 1 0.1
1.08758 0.0158154 0
-0.0898513 0.0203294 0
0.0966181 0.0537636 0
0.90205 0.0548881 0
1.21055 0.0202058 0
-0.209811 0.0159577 0
1.3305 0.0176902 0
-0.33 0.0173205 0
1.45324 0.0148141 0
-0.448654 0.0159854 0
1.56842 0.0191785 0
-0.569936 0.0166364 0
0.193292 0.0805369 0
0.805051 0.0813623 0
0.709096 0.100353 0
0.288591 0.0996656 0
0.390184 0.111848 0
0.61033 0.111742 0
0.488809 0.116278 0
1.67175 0.0169692 0
-0.67 0.0169809 0
-0.955017 0.454039 0
1.95131 0.44569 0
1.74981 0.0168753 0
-0.75 0.0173205 0
-0.968032 0.266538 0
1.96871 0.266267 0
0.978232 0.0305687 0
0.0208675 0.026451 0
-0.150454 0.91842 0
1.13854 0.907437 0
1.45012 0.904365 0
-0.445923 0.908903 0
-0.853423 0.0157019 0
1.84881 0.016319 0
0.853689 0.915652 0
0.153944 0.912184 0
0.545151 0.914125 0
0.549913 0.115152 0
1.51 0.0173205 0
-0.506989 0.01651 0
1.27 0.0173205 0
1.14976 0.0173333 0
-0.268171 0.0206442 0
-0.150501 0.0153244 0
-0.391384 0.0153993 0
1.38886 0.0171544 0
-0.973694 0.161724 0
1.97441 0.162392 0
-0.945221 0.633523 0
1.94544 0.63312 0
1.91008 0.0186068 0
-0.91 0.0169616 0
-0.030664 0.0194327 0
1.03074 0.0165456 0
-0.966065 0.353575 0
1.96128 0.359765 0
1.93879 0.781254 0
-0.937057 0.781882 0
-0.980746 0.080709 0
1.9772 0.0760699 0
0.058735 0.0409372 0
0.355202 0.913001 0
0.86356 0.0661005 0
0.134223 0.0651111 0
0.941972 0.0397386 0
-0.653034 0.915003 0
1.65328 0.904589 0
0.770126 0.0881325 0
0.232946 0.0902008 0
0.330582 0.105648 0
0.670612 0.108365 0
0.428707 0.116145 0
1.80993 0.016629 0
-0.810168 0.0172178 0
-0.71 0.0173205 0
1.63047 0.0175504 0
1.70842 0.0169661 0
-0.628824 0.0181787 0
-0.949815 0.0133898 0
1.95 0.0173205 0
1.85542 0.907891 0
-0.85 0.913397 0
1.9833 0.0307692 0
-0.983315 0.0309709 0
-0.750025 0.916468 0
-0.701107 0.836904 0
-0.607741 0.836428 0
-0.656448 0.759827 0
-0.572936 0.758144 0
-0.61411 0.691195 0
-0.539534 0.689068 0
-0.578542 0.626111 0
-0.507461 0.624216 0
-0.544001 0.566638 0
-0.477696 0.564279 0
-0.511582 0.51001 0
-0.451689 0.507147 0
-0.481834 0.457732 0
-0.426137 0.454624 0
-0.453236 0.407539 0
-0.398845 0.406233 0
-0.507958 0.409496 0
-0.368427 0.460177 0
-0.344602 0.405209 0
-0.315696 0.447824 0
-0.294128 0.402169 0
-0.262844 0.444518 0
-0.241968 0.388746 0
-0.209878 0.439557 0
-0.185184 0.391135 0
-0.156687 0.437338 0
-0.133719 0.390776 0
-0.104405 0.434306 0
-0.0818745 0.388334 0
-0.0528785 0.431165 0
-0.0305984 0.385639 0
-0.00180552 0.427863 0
0.0194564 0.382608 0
0.0485809 0.42449 0
0.0701962 0.37973 0
0.0985483 0.421145 0
0.119893 0.377339 0
0.147837 0.417911 0
0.172552 0.36751 0
0.197018 0.412597 0
0.221203 0.37141 0
0.24512 0.409646 0
-0.48178 0.364657 0
-0.531053 0.364782 0
-0.0599102 0.344151 0
-0.324909 0.359566 0
0.266181 0.368462 0
0.292132 0.407649 0
0.311992 0.365779 0
0.338918 0.404821 0
0.357567 0.355909 0
0.384723 0.40053 0
0.404675 0.359681 0
0.430617 0.398558 0
0.450457 0.35827 0
0.474237 0.395182 0
0.496746 0.34898 0
0.520548 0.397931 0
0.542071 0.353121 0
0.566011 0.389914 0
0.585061 0.350856 0
0.609352 0.38696 0
0.629069 0.348168 0
0.655979 0.391217 0
0.67472 0.346182 0
0.699346 0.381414 0
0.719333 0.341965 0
0.743718 0.377547 0
0.764028 0.339036 0
0.788201 0.373582 0
0.807659 0.336101 0
0.832821 0.372249 0
0.852309 0.334017 0
0.877785 0.370339 0
0.897875 0.331141 0
0.922904 0.366281 0
0.943173 0.327335 0
0.968282 0.363358 0
0.989029 0.324222 0
1.01391 0.361511 0
1.03465 0.321428 0
1.05949 0.358447 0
1.08389 0.312052 0
1.10575 0.355104 0
1.12889 0.31562 0
1.15067 0.353235 0
1.17157 0.312819 0
1.19626 0.349369 0
1.21618 0.309863 0
1.2416 0.346914 0
1.26131 0.30715 0
1.28691 0.344312 0
1.30571 0.303752 0
1.33144 0.341222 0
1.35018 0.300911 0
1.3758 0.338308 0
1.39501 0.298931 0
1.42015 0.335235 0
1.43904 0.296349 0
1.46355 0.330194 0
1.48256 0.293347 0
1.50685 0.326967 0
1.52589 0.29055 0
1.54996 0.325305 0
1.56909 0.287929 0
[...]
CELL_DATA 3694
SCALARS rho float
LOOKUP_TABLE default
0.735248
0.670821
0.803764
0.813067
0.826457
0.805055
0.791583
0.799829
0.81
0.802633
0.817313
0.817306
0.840373
0.789324
0.800628
0.750554
0.803231
0.802881
0.760202
0.849921
0.81719
0.822999
0.697698
0.803349
0.69428
0.839285
0.720204
0.806138
0.836925
0.798422
0.798614
0.71863
0.803431
0.824572
0.802707
0.797371
0.837101
0.82279
0.824746
0.778142
0.804601
0.817282
0.834256
0.825147
0.805105
0.812957
0.80068
0.668221
0.679368
0.721065
0.802023
0.802905
0.84669
0.802026
0.630443
0.838001
0.802526
0.818976
0.832594
0.754069
0.79623
0.815168
0.842008
0.799442
0.842541
0.830777
0.807461
0.813626
0.736519
0.858221
0.80312
0.807548
0.823022
0.803195
0.82441
0.80288
0.814143
0.799479
0.813916
0.802709
0.714216
0.818247
0.802233
0.776742
0.809829
0.799434
0.818322
0.715292
0.736069
0.825013
0.799156
0.802316
0.820368
0.815399
0.674945
0.806472
0.723093
0.817791
0.812366
0.839869
0.81468
0.762541
0.718503
0.809793
0.809267
0.815163
0.81777
0.806971
0.715914
0.814354
0.799222
0.722769
0.720819
0.823421
0.867818
0.802133
0.799719
0.812168
0.803105
0.802033
0.765714
0.822424
0.819675
0.769858
0.704405
0.758551
0.817427
0.776948
0.843467
0.700789
0.767204
0.800345
0.80789
0.777601
0.800792
0.795567
0.805408
0.80234
0.79781
0.814608
0.813788
0.710564
0.816963
0.813698
0.757671
0.670379
0.677134
0.797946
0.816069
0.813065
0.74458
0.802651
0.556194
0.778569
0.686634
0.763452
0.713584
0.783723
0.606726
0.793033
0.837459
0.644825
0.782061
0.737094
0.844066
0.554366
0.817173
0.800253
0.802748
0.673384
0.801523
0.662789
0.857746
0.538939
0.79985
0.634908
0.872507
0.833288
0.820642
0.745113
0.814121
0.7218
0.826915
0.737383
0.648581
0.80308
0.67744
0.823393
0.801652
0.850907
0.791758
0.703912
0.814892
0.798215
0.742285
0.852881
0.811362
0.848763
0.736615
0.743156
0.770979
0.793796
0.831691
0.834184
0.816844
0.814224
0.669377
0.804568
0.72706
0.803168
0.70934
0.797352
0.795612
0.801476
0.825715
0.763724
0.830401
0.749509
0.825656
0.819862
0.816025
0.853113
0.829397
0.703842
0.827062
0.686432
0.787784
0.810025
0.851075
0.830167
0.808332
0.794426
0.745536
0.817669
0.836674
0.817486
0.715244
0.799818
0.696075
0.792267
0.795468
0.810037
0.638351
0.807521
0.757779
0.797847
0.803079
0.759251
0.815299
0.865809
0.784157
0.691899
0.804408
0.801525
0.64722
0.792357
0.777931
0.802325
0.838932
0.814919
0.608485
0.81531
0.810086
0.796915
0.815569
0.802614
0.815345
0.814545
0.83557
0.756249
0.801796
0.834849
0.810376
0.803119
0.796095
0.815092
0.728343
0.587885
0.816929
0.829576
0.820466
0.804314
0.682366
0.815567
0.815308
0.816815
0.713956
0.797245
0.81519
0.542869
0.802794
0.869092
0.680205
0.756487
0.838672
0.826989
0.814938
0.706946
0.809398
0.815186
0.803772
0.801622
0.812114
0.83662
0.817266
0.76727
0.807
0.803033
0.646624
0.821066
0.827894
0.671932
0.791079
0.818935
0.820826
0.679169
0.680695
0.821482
0.824127
0.809521
0.73338
0.707066
0.713786
0.733098
0.820375
0.776772
0.804122
0.732934
0.742087
0.822564
0.810286
0.819109
0.769945
0.815297
0.813959
0.817442
0.816068
0.802735
0.807523
0.803789
0.691589
0.802689
0.812758
0.695886
0.807094
0.805078
0.819513
0.785825
0.805924
0.791833
0.815075
0.821056
0.820254
0.798101
0.682571
0.711617
0.799401
0.810862
0.623555
0.803842
0.807424
0.81722
0.743497
0.804243
0.816465
0.811696
0.817911
0.805005
0.797299
0.764517
0.80425
0.843543
0.820014
0.70663
0.80361
0.7029
0.704589
0.803025
0.614995
0.770665
0.784813
0.808015
0.813606
0.825319
0.817217
0.812726
0.820264
0.828297
0.802815
0.764661
0.809748
0.659396
0.819325
0.757304
0.728054
0.688958
0.814099
0.853994
0.819352
0.808715
0.822123
0.815464
0.786897
0.758429
0.809709
0.693359
0.791201
0.843563
0.826572
0.800796
0.864037
0.813363
0.81661
0.817657
0.831015
0.630484
0.798759
0.731829
0.797858
0.735073
0.819066
0.808649
0.787343
0.683551
0.814967
0.829994
0.812041
0.802907
0.803761
0.824429
0.803819
0.711756
0.790334
0.803088
0.814916
0.814093
0.812736
0.871637
0.827867
0.809364
0.832152
0.682512
0.823489
0.837662
0.816339
0.628034
0.815442
0.809163
0.845526
0.821452
0.802926
0.592897
0.810078
0.696635
0.806088
0.802879
0.812186
0.813733
0.82519
0.805047
0.811207
0.816158
0.724856
0.862947
0.801916
0.85021
0.816527
0.575262
0.803869
0.796705
0.811744
0.817779
0.651767
0.802817
0.809622
0.812977
0.807096
0.793881
0.815756
0.817429
0.79628
0.803875
0.821531
0.836927
0.730915
0.806262
0.809656
0.813257
0.682711
0.805206
0.816111
0.799212
0.804065
0.525403
0.832991
0.763896
0.814849
0.817855
0.830934
0.846275
0.816251
0.811778
0.716791
0.798897
0.852399
0.808586
0.710176
0.800148
0.802608
0.872227
0.845339
0.819172
0.802014
0.809667
0.755603
0.815564
0.813854
0.585606
0.802632
0.730142
0.750288
0.803084
0.81155
0.781044
0.821391
0.815419
0.838126
0.816083
0.800481
0.809051
0.738579
0.737069
0.804145
0.808189
0.82118
0.802208
0.75186
0.689502
0.813752
0.815178
0.814003
0.595351
0.813849
0.816759
0.824814
0.803031
0.808784
0.819756
0.811837
0.839501
0.802993
0.812667
0.823797
0.815754
0.81784
0.821587
0.68982
0.784248
0.794941
0.803128
0.847668
0.802068
0.80282
0.635626
0.810947
0.81369
0.810753
0.81917
0.805772
0.813313
0.727267
0.843679
0.70721
0.800391
0.817474
0.807234
0.655619
0.681819
0.815406
0.805671
0.804245
0.785573
0.801541
0.829348
0.813649
0.804978
0.80214
0.812436
0.620086
0.812553
0.803044
0.699728
0.81567
0.619733
0.784168
0.815668
0.837836
0.806062
0.812692
0.792604
0.79565
0.804048
0.801448
0.812203
0.811118
0.809145
0.803248
0.757338
0.804091
0.812739
0.812185
0.816318
0.811716
0.816081
0.815111
0.834311
0.738768
0.806672
0.815813
0.80244
0.543488
0.683379
0.811269
0.813477
0.815386
0.780413
0.808353
0.8128
0.80319
0.799941
0.802741
0.820013
0.82085
0.815186
0.785012
0.808267
0.805818
0.556618
0.774038
0.757654
0.806568
0.735779
0.677188
0.797626
0.767695
0.82782
0.815134
0.814896
0.808385
0.541222
0.815626
0.584145
0.697195
0.824776
0.869743
0.741944
0.816725
0.852934
0.695367
0.815545
0.809041
0.814902
0.807333
0.656612
0.854617
0.737387
0.730681
0.803348
0.804603
0.79955
0.83343
0.815375
0.691419
0.815578
0.8003
0.692964
0.839602
0.798184
0.622591
0.773017
0.815853
0.808052
0.815017
0.78447
0.725871
0.770348
0.837084
0.688843
0.816119
0.817433
0.827038
0.765415
0.822188
0.692346
0.804604
0.660939
0.700936
0.800583
0.822794
0.788657
0.814792
0.815562
0.815398
0.814202
0.57812
0.80256
0.81518
0.743499
0.810098
0.815596
0.812003
0.715157
0.691743
0.741467
0.621475
0.807308
0.682034
0.815823
0.801913
0.815196
0.837046
0.687708
0.804591
0.819905
0.832523
0.738363
0.781976
0.76486
0.773184
0.812472
0.569572
0.674234
0.815484
0.805356
0.812442
0.804585
0.713386
0.780415
0.72517
0.760589
0.799682
0.832024
0.812271
0.691493
0.823519
0.817936
0.811118
0.686809
0.69218
0.682086
0.872179
0.816052
0.816752
0.609626
0.711597
0.641731
0.803477
0.800392
0.672109
0.811994
0.824545
0.749545
0.799569
0.730322
0.814338
0.692676
0.814953
0.810535
0.801633
0.803108
0.825619
0.744458
0.815922
0.815184
0.780453
0.555164
0.816385
0.811108
0.758184
0.814089
0.747445
0.802972
0.826524
0.66129
0.818293
0.802725
0.810019
0.58447
0.637568
0.73547
0.806417
0.812267
0.811011
0.8212
0.814847
0.816141
0.704659
0.801949
0.813308
0.826358
0.703721
0.726929
0.812456
0.81198
0.696677
0.8144
0.774585
0.701602
0.811939
0.696198
0.804385
0.662786
0.802898
0.73012
0.667496
0.811344
0.786266
0.74444
0.631524
0.840179
0.82111
0.815061
0.770512
0.81441
0.800136
0.786249
0.799981
0.801736
0.815296
0.732313
0.809753
0.800084
0.818929
0.599001
0.801444
0.813087
0.814039
0.811759
0.81231
0.74655
0.803126
0.764244
0.751056
0.818762
0.647756
0.818696
0.817824
0.803108
0.81574
0.816969
0.721389
0.768499
0.822242
0.785508
0.803787
0.816181
0.875115
0.818143
0.798475
0.816986
0.815516
0.794031
0.818644
0.817026
0.773406
0.699241
0.841303
0.797075
0.8032
0.822644
0.781276
0.818009
0.82484
0.818815
0.817056
0.870591
0.80313
0.804943
0.818421
0.803124
0.815602
0.806997
0.736296
0.815522
0.81986
0.753857
0.709391
0.815402
0.843351
0.822392
0.655244
0.8219
0.773825
0.808499
0.801986
0.729987
0.803139
0.79875
0.815533
0.817047
0.694626
0.705444
0.802262
0.787653
0.80168
0.824919
0.721911
0.815178
0.802481
0.800268
0.823483
0.815612
0.713604
0.815838
0.763362
0.802491
0.832645
0.803405
0.773558
0.797939
0.794667
0.815267
0.59459
0.815147
0.694395
0.679833
0.803508
0.819689
0.815191
0.802604
0.815298
0.808556
0.7246
0.78774
0.857208
0.803048
0.833584
0.807474
0.544153
0.762226
0.780073
0.648458
0.738065
0.579367
0.820202
0.81348
0.814079
0.802465
0.766869
0.685162
0.764677
0.752299
0.782171
0.815119
0.84498
0.819529
0.80587
0.819329
0.82382
0.802712
0.807661
0.705744
0.803197
0.756454
0.808719
0.797924
0.751907
0.82245
0.788521
0.803594
0.789996
0.840981
0.728191
0.800935
0.799528
0.804929
0.617791
0.815649
0.815532
0.821872
0.632397
0.815416
0.81541
0.798595
0.803886
0.793292
0.775488
0.806344
0.794776
0.816125
0.753126
0.803975
0.875328
0.76295
0.748207
0.807157
0.784045
0.842679
0.800075
0.779786
0.815565
0.798248
0.792621
0.808103
0.82568
0.835821
0.799772
0.574489
0.820562
0.828342
0.772209
0.830844
0.838292
0.822975
0.826376
0.807315
0.833011
0.826937
0.78382
0.809011
0.811533
0.806483
0.822813
0.803405
0.827373
0.792981
0.803267
0.805788
0.726943
0.807142
0.561759
0.818095
0.825415
0.82871
0.805827
0.81816
0.824009
0.819417
0.820925
0.838868
0.833191
0.78808
0.800375
0.821814
0.815517
0.817091
0.800275
0.806416
0.865613
0.820154
0.847434
0.815241
0.800666
0.824617
0.799796
0.83346
0.813579
0.815445
0.805305
0.726822
0.802926
0.804541
0.815222
0.803348
0.802164
0.822087
0.804611
0.80419
0.778027
0.819732
0.717778
0.814164
0.780484
0.759031
0.803574
0.813286
0.81897
0.715548
0.819438
0.815206
0.82655
0.817202
0.789798
0.816427
0.847349
0.83313
0.815003
0.811724
0.801585
0.743964
0.678323
0.815257
0.820593
0.771046
0.8145
0.807766
0.811922
0.805419
0.79853
0.776232
0.802398
0.800046
0.841498
0.817509
0.811403
0.806304
0.603498
0.731478
0.802175
0.783502
0.804091
0.815811
0.80591
0.816207
0.779886
0.81532
0.804783
0.810817
0.803708
0.817947
0.803166
0.815998
0.811003
0.815958
0.81293
0.717596
0.814567
0.815816
0.597341
0.815089
0.796775
0.802796
0.858814
0.81841
0.810821
0.872521
0.815422
0.815508
0.816956
0.818927
0.815361
0.764341
0.830287
0.801319
0.803139
0.81462
0.815386
0.816839
0.815261
0.813511
0.822851
0.80393
0.812594
0.809039
0.815176
0.819952
0.815285
0.811879
0.819347
0.808903
0.695087
0.659718
0.802595
0.808569
0.803301
0.811389
0.818454
0.817186
0.802857
0.803838
0.800544
0.800787
0.816986
0.844404
0.818634
0.811493
0.818565
0.818259
0.846085
0.817556
0.821061
0.78566
0.815896
0.806761
0.801269
0.792025
0.810853
0.818581
0.815117
0.815281
0.835968
0.80618
0.812838
0.816698
0.821512
0.803466
0.803166
0.805477
0.811014
0.815221
0.801515
0.803118
0.817003
0.82247
0.80077
0.617724
0.804211
0.796923
0.81723
0.798603
0.802715
0.748333
0.840875
0.802707
0.799703
0.834842
0.829782
0.810186
0.826266
0.800421
0.817936
0.81748
0.818779
0.803557
0.818365
0.72857
0.822368
0.811484
0.800058
0.813013
0.820583
0.7991
0.803944
0.782454
0.815114
0.815502
0.815606
0.818568
0.806379
0.817149
0.815872
0.826042
0.821947
0.837705
0.805883
0.69527
0.817999
0.840623
0.819825
0.804551
0.799982
0.803294
0.816284
0.81407
0.816065
0.743827
0.738466
0.800692
0.802916
0.815743
0.816614
0.798802
0.653456
0.708358
0.807977
0.768938
0.815928
0.703463
0.803017
0.728132
0.803156
0.819938
0.803093
0.817372
0.812857
0.79852
0.808532
0.79354
0.829805
0.815632
0.801149
0.803434
0.815914
0.821683
0.749487
0.822674
0.803673
0.783101
0.815511
0.803777
0.810454
0.814736
0.815101
0.835324
0.792789
0.798914
0.815392
0.758966
0.806553
0.814867
0.80095
0.816001
0.841197
0.802186
0.843247
0.808699
0.790379
0.811911
0.802591
0.851977
0.788417
0.803114
0.816064
0.831633
0.808316
0.813775
0.815763
0.802778
0.802651
0.825899
0.7827
0.814329
0.815364
0.64521
0.815561
0.712659
0.817563
0.838253
0.824495
0.803934
0.814612
0.815247
0.725746
0.814812
0.800773
0.801497
0.800783
0.815756
0.863871
0.801158
0.800911
0.785386
0.840663
0.827914
0.819586
0.813246
0.746782
0.803492
0.803294
0.730771
0.799382
0.714379
0.81048
0.800881
0.676442
0.880278
0.702409
0.772127
0.801254
0.743439
0.808308
0.798847
0.803
0.660432
0.796687
0.784087
0.79891
0.72923
0.818689
0.82244
0.884598
0.809386
0.831306
0.645215
0.799884
0.786861
0.744654
0.751552
0.769114
0.706273
0.803064
0.799236
0.803139
0.763764
0.627335
0.811362
0.61316
0.821072
0.822775
0.811435
0.736702
0.812015
0.795442
0.819069
0.782754
0.807177
0.797078
0.809976
0.716678
0.80139
0.722473
0.801235
0.798685
0.686643
0.803556
0.815163
0.81522
0.80305
0.761213
0.814977
0.731971
0.690768
0.802243
0.81522
0.87447
0.815127
0.814458
0.880621
0.865481
0.83087
0.717443
0.801907
0.811828
0.8213
0.797982
0.681613
0.722682
0.676909
0.802327
0.70386
0.768538
0.79931
0.61779
0.689674
0.836082
0.773617
0.745433
0.830455
0.759259
0.76914
0.640569
0.731521
0.785124
0.819618
0.869548
0.837786
0.81552
0.794603
0.799574
0.716008
0.815392
0.694125
0.79697
0.815205
0.783441
0.76255
0.801641
0.782812
0.802171
0.800653
0.81166
0.811029
0.867181
0.576037
0.540247
0.802336
0.806951
0.69857
0.809962
0.802756
0.837516
0.803439
0.802318
0.568136
0.557606
0.808348
0.812327
0.815313
0.727051
0.803108
0.810463
0.684859
0.811367
0.802648
0.813856
0.803129
0.800506
0.802192
0.814304
0.802894
0.816962
0.803197
0.862111
0.814661
0.802451
0.721045
0.670647
0.815317
0.58628
0.812658
0.80999
0.835865
0.813781
0.803007
0.810682
0.81335
0.813044
0.814975
0.801553
0.85396
0.856499
0.802248
0.656139
0.808388
0.822344
0.799383
0.803125
0.81992
0.734532
0.803201
0.825156
0.821248
0.81557
0.815164
0.766679
0.745339
0.800778
0.833977
0.802815
0.814227
0.804472
0.80368
0.805007
0.813978
0.808813
0.798677
0.806825
0.805998
0.824512
0.806633
0.806227
0.817445
0.806827
0.803331
0.813077
0.802915
0.802784
0.805754
0.807802
0.813213
0.773693
0.805277
0.80266
0.815137
0.79964
0.8037
0.806815
0.8318
0.804979
0.651186
0.800722
0.815281
0.804606
0.814712
0.763166
0.815062
0.750902
0.803616
0.802145
0.804007
0.818885
0.851044
0.804312
0.803216
0.746866
0.829535
0.815112
0.820287
0.82488
0.814689
0.737076
0.817985
0.722822
0.801033
0.827522
0.802347
0.70097
0.825762
0.814651
0.816246
0.824024
0.81549
0.773382
0.817037
0.649986
0.711356
0.815204
0.822511
0.677185
0.819181
0.658936
0.821324
0.806798
0.816547
0.803134
0.805585
0.814797
0.831661
0.825061
0.672342
0.813187
0.842026
0.781511
0.846289
0.800221
0.706679
0.838495
0.819403
0.835529
0.689307
0.684842
0.832854
0.659111
0.830563
0.815212
0.828536
0.806267
0.826821
0.787714
0.825321
0.823933
0.708299
0.86568
0.822743
0.821738
0.823579
0.759367
0.802796
0.525511
0.803188
0.820864
0.813646
0.804735
0.825869
0.815175
0.797986
0.820096
0.802955
0.681938
0.792419
0.834194
0.814537
0.716466
0.799317
0.821534
0.577046
0.81488
0.815686
0.802633
0.8099
0.726633
0.817876
0.802988
0.803444
0.795966
0.794053
0.797922
0.79466
0.803246
0.812573
0.819301
0.814199
0.573341
0.893014
0.706924
0.79787
0.739979
0.791468
0.815151
0.815792
0.815682
0.60517
0.819003
0.817192
0.803887
0.817982
0.836662
0.839507
0.782912
0.798413
0.799468
0.725881
0.753015
0.815372
0.764129
0.815157
0.81909
0.814939
0.813479
0.801915
0.775512
0.812038
0.816196
0.7288
0.810577
0.815982
0.818165
0.807784
0.809454
0.764954
0.814752
0.808177
0.803142
0.807417
0.617282
0.806481
0.804312
0.8059
0.821346
0.845577
0.804686
0.774483
0.80526
0.771625
0.820308
0.80591
0.812929
0.815161
0.850202
0.803372
0.744551
0.819761
0.815371
0.727398
0.800926
0.816334
0.758562
0.812808
0.570084
0.80656
0.685989
0.80123
0.811137
0.812583
0.817302
0.804181
0.815772
0.817782
0.801021
0.804387
0.844445
0.816247
0.796223
0.816253
0.802012
0.801579
0.800269
0.801244
0.807185
0.814766
0.801607
0.770239
0.818485
0.81295
0.80886
0.81517
0.587453
0.803366
0.813669
0.815414
0.787653
0.748603
0.718629
0.812666
0.815014
0.825968
0.789523
0.603682
0.771663
0.641307
0.816824
0.744984
0.812391
0.830272
0.696333
0.799683
0.833874
0.74992
0.80058
0.803132
0.815646
0.802351
0.699137
0.800689
0.550012
0.801779
0.802433
0.802186
0.584823
0.802895
0.803411
0.803159
0.728743
0.737653
0.803403
0.776565
0.815743
0.722403
0.706974
0.815164
0.801324
0.752778
0.854144
0.813999
0.812446
0.66975
0.802781
0.800545
0.800456
0.802442
0.657237
0.803235
0.815418
0.654822
0.685768
0.805836
0.790532
0.815267
0.823181
0.815112
0.815319
0.81652
0.803635
0.815332
0.815045
0.813425
0.829264
0.8025
0.801798
0.810369
0.727718
0.809566
0.814901
0.862788
0.811009
0.638497
0.77488
0.802178
0.77623
0.816775
0.811915
0.83002
0.814086
0.86459
0.801985
0.814683
0.594511
0.815649
0.833847
0.802884
0.81442
0.625514
0.815451
0.802681
0.816733
0.802207
0.817584
0.816042
0.754577
0.803553
0.803104
0.835113
0.861909
0.819611
0.816183
0.724843
0.742043
0.802494
0.803021
0.812051
0.818118
0.799549
0.802849
0.819532
0.806588
0.80753
0.739258
0.802691
0.81755
0.813982
0.768459
0.760427
0.811795
0.796444
0.857014
0.71896
0.834582
0.811061
0.711125
0.799706
0.814539
0.78746
0.800681
0.799728
0.815158
0.777494
0.774451
0.813514
0.696844
0.798671
0.76573
0.815029
0.817339
0.801995
0.787704
0.738761
0.75254
0.774079
0.814762
0.819
0.805842
0.663956
0.802207
0.795858
0.777847
0.809741
0.813072
0.799555
0.8032
0.635331
0.804041
0.804663
0.851329
0.803687
0.809078
0.833322
0.80534
0.810205
0.852242
0.613962
0.80402
0.816242
0.805395
0.805005
0.8057
0.804564
0.804668
0.804179
0.805789
0.806359
0.724913
0.805685
0.807046
0.806819
0.815185
0.808171
0.818549
0.80308
0.803496
0.814799
0.814964
0.810124
0.803323
0.816227
0.813191
0.809841
0.816114
0.708784
0.814041
0.831533
0.815048
0.854302
0.749855
0.808147
0.815141
0.800882
0.609424
0.803238
0.772454
0.821938
0.627653
0.815682
0.829552
0.814804
0.811905
0.802073
0.827142
0.81921
0.803592
0.764892
0.817152
0.758579
0.54832
0.814496
0.694195
0.695545
0.820394
0.827679
0.827503
0.81676
0.847565
0.576005
0.876921
0.805242
0.825982
0.824317
0.813072
0.682455
0.815004
0.822782
0.816479
0.801086
0.773664
0.822267
0.56671
0.813174
0.843218
0.803117
0.83966
0.821549
0.803247
0.670074
0.843394
0.820497
0.836476
0.800871
0.813888
0.803032
0.833844
0.802809
0.813822
0.83142
0.829276
0.822026
0.824351
0.830846
0.738808
0.662593
0.56642
0.827433
0.82591
0.767471
0.756746
0.806483
0.824482
0.846859
0.592405
0.823202
0.822113
0.821205
0.819682
0.803948
0.820784
0.659447
0.744673
0.820406
0.797439
0.870195
0.89013
0.776499
0.804033
0.669827
0.835542
0.731147
0.71952
0.819135
0.801661
0.783503
0.662848
0.802151
0.815206
0.788897
0.712696
0.800604
0.817156
0.798004
0.678572
0.823512
0.792824
0.815857
0.833323
0.815155
0.795823
0.81629
0.816056
0.785866
0.803991
0.711603
0.840648
0.793071
0.811199
0.781982
0.804387
0.697675
0.800787
0.813488
0.812121
0.810953
0.809428
0.808333
0.807575
0.805944
0.804827
0.806754
0.725921
0.80538
0.80141
0.795905
0.803286
0.844487
0.715923
0.803184
0.776154
0.883974
0.854479
0.797997
0.724083
0.803327
0.797703
0.719716
0.803299
0.801703
0.734713
0.803656
0.790083
0.797346
0.801085
0.737624
0.779874
0.80457
0.7476
0.764414
0.769632
0.801407
0.814802
0.808594
0.758908
0.751373
0.799512
0.813881
0.803293
0.793017
0.80108
0.928616
0.860575
0.817805
0.815043
0.723365
0.844379
0.747726
0.826085
0.816557
0.898143
0.8152
0.797186
0.589307
0.815227
0.797303
0.815256
0.797723
0.845583
0.522978
0.832883
0.801535
0.80561
0.80488
0.803774
0.855969
0.801258
0.817488
0.701778
0.66647
0.666938
0.815295
0.504938
0.797713
0.722234
0.841835
0.814819
0.558824
0.802132
0.814705
0.814389
0.719193
0.801702
0.525463
0.797244
0.815422
0.797366
0.8027
0.797607
0.815581
0.833959
0.803236
0.798317
0.81596
0.798583
0.816106
0.814083
0.798868
0.816273
0.813898
0.816468
0.798984
0.816688
0.679783
0.79918
0.816934
0.803047
0.799372
0.817182
0.698434
0.815212
0.79825
0.815175
0.798445
0.810133
0.838404
0.861334
0.800925
0.800462
0.81811
0.815361
0.800103
0.799726
0.863637
0.812297
0.817786
0.810586
0.84993
0.828595
0.816758
0.825746
0.846267
0.815155
0.801597
0.819334
0.811685
0.802025
0.815037
0.800036
0.807578
0.783146
0.806835
0.815224