# vtk DataFile Version 1.0
unstructured grid
ascii
DATASET UNSTRUCTURED_GRID
points 3920 float
-1 0 0
-1 1 0
2 0 0
2 1 0
0 0 0
1 0 0
-1 1 0.1
-1 0 0.1
0 0 0.1
1 0 0.1
2 0 0.1
2 1 0.1
-0.98 0 0
-0.96 0 0
-0.94 0 0
-0.92 0 0
-0.9 0 0
-0.88 0 0
-0.86 0 0
-0.84 0 0
-0.82 0 0
-0.8 0 0
-0.78 0 0
-0.76 0 0
-0.74 0 0
-0.72 0 0
-0.7 0 0
-0.68 0 0
-0.66 0 0
-0.64 0 0
-0.62 0 0
-0.6 0 0
-0.58 0 0
-0.56 0 0
-0.54 0 0
-0.52 0 0
-0.5 0 0
-0.48 0 0
-0.46 0 0
-0.44 0 0
-0.42 0 0
-0.4 0 0
-0.38 0 0
-0.36 0 0
-0.34 0 0
-0.32 0 0
-0.3 0 0
-0.28 0 0
-0.26 0 0
-0.24 0 0
-0.22 0 0
-0.2 0 0
-0.18 0 0
-0.16 0 0
-0.14 0 0
-0.12 0 0
-0.1 0 0
-0.08 0 0
-0.06 0 0
-0.04 0 0
-0.02 0 0
1.02 0 0
1.04 0 0
1.06 0 0
1.08 0 0
1.1 0 0
1.12 0 0
1.14 0 0
1.16 0 0
1.18 0 0
1.2 0 0
1.22 0 0
1.24 0 0
1.26 0 0
1.28 0 0
1.3 0 0
1.32 0 0
1.34 0 0
1.36 0 0
1.38 0 0
1.4 0 0
1.42 0 0
1.44 0 0
1.46 0 0
1.48 0 0
1.5 0 0
1.52 0 0
1.54 0 0
1.56 0 0
1.58 0 0
1.6 0 0
1.62 0 0
1.64 0 0
1.66 0 0
1.68 0 0
1.7 0 0
1.72 0 0
1.74 0 0
1.76 0 0
1.78 0 0
1.8 0 0
1.82 0 0
1.84 0 0
1.86 0 0
1.88 0 0
1.9 0 0
1.92 0 0
1.94 0 0
1.96 0 0
1.98 0 0
2 0.0199133 0
2 0.0414128 0
2 0.0646247 0
2 0.0896856 0
2 0.116743 0
2 0.145955 0
2 0.177494 0
2 0.211545 0
2 0.248309 0
2 0.288001 0
2 0.330854 0
2 0.377121 0
2 0.427073 0
2 0.481004 0
2 0.539231 0
2 0.602096 0
2 0.669968 0
2 0.743247 0
2 0.822362 0
2 0.907779 0
1.9 1 0
1.8 1 0
1.7 1 0
1.6 1 0
1.5 1 0
1.4 1 0
1.3 1 0
1.2 1 0
1.1 1 0
1 1 0
0.9 1 0
0.8 1 0
0.7 1 0
0.6 1 0
0.5 1 0
0.4 1 0
0.3 1 0
0.2 1 0
0.1 1 0
3.69793e-12 1 0
-0.1 1 0
-0.2 1 0
-0.3 1 0
-0.4 1 0
-0.5 1 0
-0.6 1 0
-0.7 1 0
-0.8 1 0
-0.9 1 0
-1 0.907779 0
-1 0.822362 0
-1 0.743247 0
-1 0.669968 0
-1 0.602096 0
-1 0.539231 0
-1 0.481004 0
-1 0.427073 0
-1 0.377121 0
-1 0.330854 0
-1 0.288001 0
-1 0.248309 0
-1 0.211545 0
-1 0.177494 0
-1 0.145955 0
-1 0.116743 0
-1 0.0896856 0
-1 0.0646247 0
-1 0.0414128 0
-1 0.0199133 0
0.0182781 0.00745351 0
0.0366672 0.0146286 0
0.0551632 0.0215237 0
0.0737617 0.0281372 0
0.0924585 0.0344675 0
0.111249 0.0405131 0
0.13013 0.0462728 0
0.149095 0.0517451 0
0.168142 0.0569289 0
0.187265 0.0618228 0
0.20646 0.0664258 0
0.225723 0.0707368 0
0.245049 0.0747549 0
0.264434 0.078479 0
0.283873 0.0819084 0
0.303362 0.0850422 0
0.322896 0.0878798 0
0.342472 0.0904204 0
0.362083 0.0926635 0
0.381726 0.0946086 0
0.401397 0.0962552 0
0.42109 0.0976029 0
0.440802 0.0986514 0
0.460527 0.0994006 0
0.480261 0.0998501 0
0.5 0.1 0
0.519739 0.0998501 0
0.539473 0.0994006 0
0.559198 0.0986514 0
0.57891 0.0976029 0
0.598603 0.0962552 0
0.618274 0.0946086 0
0.637917 0.0926635 0
0.657528 0.0904204 0
0.677104 0.0878798 0
0.696638 0.0850422 0
0.716127 0.0819084 0
0.735566 0.078479 0
0.754951 0.0747549 0
0.774277 0.0707368 0
0.79354 0.0664258 0
0.812735 0.0618228 0
0.831858 0.0569289 0
0.850905 0.0517451 0
0.86987 0.0462728 0
0.888751 0.0405131 0
0.907542 0.0344675 0
0.926238 0.0281372 0
0.944837 0.0215237 0
0.963333 0.0146286 0
0.981722 0.00745351 0
-1 0.907779 0.1
-1 0.822362 0.1
-1 0.743247 0.1
-1 0.669968 0.1
-1 0.602096 0.1
-1 0.539231 0.1
-1 0.481004 0.1
-1 0.427073 0.1
-1 0.377121 0.1
-1 0.330854 0.1
-1 0.288001 0.1
-1 0.248309 0.1
-1 0.211545 0.1
-1 0.177494 0.1
-1 0.145955 0.1
-1 0.116743 0.1
-1 0.0896856 0.1
-1 0.0646247 0.1
-1 0.0414128 0.1
-1 0.0199133 0.1
-0.98 0 0.1
-0.96 0 0.1
-0.94 0 0.1
-0.92 0 0.1
-0.9 0 0.1
-0.88 0 0.1
-0.86 0 0.1
-0.84 0 0.1
-0.82 0 0.1
-0.8 0 0.1
-0.78 0 0.1
-0.76 0 0.1
-0.74 0 0.1
-0.72 0 0.1
-0.7 0 0.1
-0.68 0 0.1
-0.66 0 0.1
-0.64 0 0.1
-0.62 0 0.1
-0.6 0 0.1
-0.58 0 0.1
-0.56 0 0.1
-0.54 0 0.1
-0.52 0 0.1
-0.5 0 0.1
-0.48 0 0.1
-0.46 0 0.1
-0.44 0 0.1
-0.42 0 0.1
-0.4 0 0.1
-0.38 0 0.1
-0.36 0 0.1
-0.34 0 0.1
-0.32 0 0.1
-0.3 0 0.1
-0.28 0 0.1
-0.26 0 0.1
-0.24 0 0.1
-0.22 0 0.1
-0.2 0 0.1
-0.18 0 0.1
-0.16 0 0.1
-0.14 0 0.1
-0.12 0 0.1
-0.1 0 0.1
-0.08 0 0.1
-0.06 0 0.1
-0.04 0 0.1
-0.02 0 0.1
0.0182781 0.00745351 0.1
0.0366672 0.0146286 0.1
0.0551632 0.0215237 0.1
0.0737617 0.0281372 0.1
0.0924585 0.0344675 0.1
0.111249 0.0405131 0.1
0.13013 0.0462728 0.1
0.149095 0.0517451 0.1
0.168142 0.0569289 0.1
0.187265 0.0618228 0.1
0.20646 0.0664258 0.1
0.225723 0.0707368 0.1
0.245049 0.0747549 0.1
0.264434 0.078479 0.1
0.283873 0.0819084 0.1
0.303362 0.0850422 0.1
0.322896 0.0878798 0.1
0.342472 0.0904204 0.1
0.362083 0.0926635 0.1
0.381726 0.0946086 0.1
0.401397 0.0962552 0.1
0.42109 0.0976029 0.1
0.440802 0.0986514 0.1
0.460527 0.0994006 0.1
0.480261 0.0998501 0.1
0.5 0.1 0.1
0.519739 0.0998501 0.1
0.539473 0.0994006 0.1
0.559198 0.0986514 0.1
0.57891 0.0976029 0.1
0.598603 0.0962552 0.1
0.618274 0.0946086 0.1
0.637917 0.0926635 0.1
0.657528 0.0904204 0.1
0.677104 0.0878798 0.1
0.696638 0.0850422 0.1
0.716127 0.0819084 0.1
0.735566 0.078479 0.1
0.754951 0.0747549 0.1
0.774277 0.0707368 0.1
0.79354 0.0664258 0.1
0.812735 0.0618228 0.1
0.831858 0.0569289 0.1
0.850905 0.0517451 0.1
0.86987 0.0462728 0.1
0.888751 0.0405131 0.1
0.907542 0.0344675 0.1
0.926238 0.0281372 0.1
0.944837 0.0215237 0.1
0.963333 0.0146286 0.1
0.981722 0.00745351 0.1
1.02 0 0.1
1.04 0 0.1
1.06 0 0.1
1.08 0 0.1
1.1 0 0.1
1.12 0 0.1
1.14 0 0.1
1.16 0 0.1
1.18 0 0.1
1.2 0 0.1
1.22 0 0.1
1.24 0 0.1
1.26 0 0.1
1.28 0 0.1
1.3 0 0.1
1.32 0 0.1
1.34 0 0.1
1.36 0 0.1
1.38 0 0.1
1.4 0 0.1
1.42 0 0.1
1.44 0 0.1
1.46 0 0.1
1.48 0 0.1
1.5 0 0.1
1.52 0 0.1
1.54 0 0.1
1.56 0 0.1
1.58 0 0.1
1.6 0 0.1
1.62 0 0.1
1.64 0 0.1
1.66 0 0.1
1.68 0 0.1
1.7 0 0.1
1.72 0 0.1
1.74 0 0.1
1.76 0 0.1
1.78 0 0.1
1.8 0 0.1
1.82 0 0.1
1.84 0 0.1
1.86 0 0.1
1.88 0 0.1
1.9 0 0.1
1.92 0 0.1
1.94 0 0.1
1.96 0 0.1
1.98 0 0.1
2 0.0199133 0.1
2 0.0414128 0.1
2 0.0646247 0.1
2 0.0896856 0.1
2 0.116743 0.1
2 0.145955 0.1
2 0.177494 0.1
2 0.211545 0.1
2 0.248309 0.1
2 0.288001 0.1
2 0.330854 0.1
2 0.377121 0.1
2 0.427073 0.1
2 0.481004 0.1
2 0.539231 0.1
2 0.602096 0.1
2 0.669968 0.1
2 0.743247 0.1
2 0.822362 0.1
2 0.907779 0.1
1.9 1 0.1
1.8 1 0.1
1.7 1 0.1
1.6 1 0.1
1.5 1 0.1
1.4 1 0.1
1.3 1 0.1
1.2 1 0.1
1.1 1 0.1
1 1 0.1
0.9 1 0.1
0.8 1 0.1
0.7 1 0.1
0.6 1 0.1
0.5 1 0.1
0.4 1 0.1
0.3 1 0.1
0.2 1 0.1
0.1 1 0.1
3.69793e-12 1 0.1
-0.1 1 0.1
-0.2 1 0.1
-0.3 1 0.1
-0.4 1 0.1
-0.5 1 0.1
-0.6 1 0.1
-0.7 1 0.1
-0.8 1 0.1
-0.9 1 0.1
1.08758 0.0158154 0
-0.0898513 0.0203294 0
0.0966181 0.0537636 0
0.90205 0.0548881 0
1.21055 0.0202058 0
-0.209811 0.0159577 0
1.3305 0.0176902 0
-0.33 0.0173205 0
1.45324 0.0148141 0
-0.448654 0.0159854 0
1.56842 0.0191785 0
-0.569936 0.0166364 0
0.193292 0.0805369 0
0.805051 0.0813623 0
0.709096 0.100353 0
0.288591 0.0996656 0
0.390184 0.111848 0
0.61033 0.111742 0
0.488809 0.116278 0
1.67175 0.0169692 0
-0.67 0.0169809 0
-0.955017 0.454039 0
1.95131 0.44569 0
1.74981 0.0168753 0
-0.75 0.0173205 0
-0.968032 0.266538 0
1.96871 0.266267 0
0.978232 0.0305687 0
0.0208675 0.026451 0
-0.150454 0.91842 0
1.13854 0.907437 0
1.45012 0.904365 0
-0.445923 0.908903 0
-0.853423 0.0157019 0
1.84881 0.016319 0
0.853689 0.915652 0
0.153944 0.912184 0
0.545151 0.914125 0
0.549913 0.115152 0
1.51 0.0173205 0
-0.506989 0.01651 0
1.27 0.0173205 0
1.14976 0.0173333 0
-0.268171 0.0206442 0
-0.150501 0.0153244 0
-0.391384 0.0153993 0
1.38886 0.0171544 0
-0.973694 0.161724 0
1.97441 0.162392 0
-0.945221 0.633523 0
1.94544 0.63312 0
1.91008 0.0186068 0
-0.91 0.0169616 0
-0.030664 0.0194327 0
1.03074 0.0165456 0
-0.966065 0.353575 0
1.96128 0.359765 0
1.93879 0.781254 0
-0.937057 0.781882 0
-0.980746 0.080709 0
1.9772 0.0760699 0
0.058735 0.0409372 0
0.355202 0.913001 0
0.86356 0.0661005 0
0.134223 0.0651111 0
0.941972 0.0397386 0
-0.653034 0.915003 0
1.65328 0.904589 0
0.770126 0.0881325 0
0.232946 0.0902008 0
0.330582 0.105648 0
0.670612 0.108365 0
0.428707 0.116145 0
1.80993 0.016629 0
-0.810168 0.0172178 0
-0.71 0.0173205 0
1.63047 0.0175504 0
1.70842 0.0169661 0
-0.628824 0.0181787 0
-0.949815 0.0133898 0
1.95 0.0173205 0
1.85542 0.907891 0
-0.85 0.913397 0
1.9833 0.0307692 0
-0.983315 0.0309709 0
-0.750025 0.916468 0
-0.701107 0.836904 0
-0.607741 0.836428 0
-0.656448 0.759827 0
-0.572936 0.758144 0
-0.61411 0.691195 0
-0.539534 0.689068 0
-0.578542 0.626111 0
-0.507461 0.624216 0
-0.544001 0.566638 0
-0.477696 0.564279 0
-0.511582 0.51001 0
-0.451689 0.507147 0
-0.481834 0.457732 0
-0.426137 0.454624 0
-0.453236 0.407539 0
-0.398845 0.406233 0
-0.507958 0.409496 0
-0.368427 0.460177 0
-0.344602 0.405209 0
-0.315696 0.447824 0
-0.294128 0.402169 0
-0.262844 0.444518 0
-0.241968 0.388746 0
-0.209878 0.439557 0
-0.185184 0.391135 0
-0.156687 0.437338 0
-0.133719 0.390776 0
-0.104405 0.434306 0
-0.0818745 0.388334 0
-0.0528785 0.431165 0
-0.0305984 0.385639 0
-0.00180552 0.427863 0
0.0194564 0.382608 0
0.0485809 0.42449 0
0.0701962 0.37973 0
0.0985483 0.421145 0
0.119893 0.377339 0
0.147837 0.417911 0
0.172552 0.36751 0
0.197018 0.412597 0
0.221203 0.37141 0
0.24512 0.409646 0
-0.48178 0.364657 0
-0.531053 0.364782 0
-0.0599102 0.344151 0
-0.324909 0.359566 0
0.266181 0.368462 0
0.292132 0.407649 0
0.311992 0.365779 0
0.338918 0.404821 0
0.357567 0.355909 0
0.384723 0.40053 0
0.404675 0.359681 0
0.430617 0.398558 0
0.450457 0.35827 0
0.474237 0.395182 0
0.496746 0.34898 0
0.520548 0.397931 0
0.542071 0.353121 0
0.566011 0.389914 0
0.585061 0.350856 0
0.609352 0.38696 0
0.629069 0.348168 0
0.655979 0.391217 0
0.67472 0.346182 0
0.699346 0.381414 0
0.719333 0.341965 0
0.743718 0.377547 0
0.764028 0.339036 0
0.788201 0.373582 0
0.807659 0.336101 0
0.832821 0.372249 0
0.852309 0.334017 0
0.877785 0.370339 0
0.897875 0.331141 0
0.922904 0.366281 0
0.943173 0.327335 0
0.968282 0.363358 0
0.989029 0.324222 0
1.01391 0.361511 0
1.03465 0.321428 0
1.05949 0.358447 0
1.08389 0.312052 0
1.10575 0.355104 0
1.12889 0.31562 0
1.15067 0.353235 0
1.17157 0.312819 0
1.19626 0.349369 0
1.21618 0.309863 0
1.2416 0.346914 0
1.26131 0.30715 0
1.28691 0.344312 0
1.30571 0.303752 0
1.33144 0.341222 0
1.35018 0.300911 0
1.3758 0.338308 0
1.39501 0.298931 0
1.42015 0.335235 0
1.43904 0.296349 0
1.46355 0.330194 0
1.48256 0.293347 0
1.50685 0.326967 0
1.52589 0.29055 0
1.54996 0.325305 0
1.56909 0.287929 0
[...]
CELL_DATA 3694
SCALARS rho float
LOOKUP_TABLE default
0.752294
0.702868
0.806935
0.827936
0.835516
0.808391
0.797729
0.803117
0.822867
0.805083
0.829934
0.829922
0.844194
0.796154
0.803823
0.773645
0.805174
0.805493
0.780181
0.856231
0.827436
0.833733
0.739161
0.80671
0.736525
0.843185
0.737166
0.810725
0.840787
0.800079
0.800217
0.734847
0.805937
0.828969
0.805895
0.810028
0.844209
0.833389
0.83405
0.785924
0.807741
0.821691
0.838239
0.829536
0.810841
0.827924
0.804648
0.708802
0.704364
0.754932
0.805618
0.804194
0.853265
0.807105
0.70116
0.845132
0.805682
0.829322
0.836383
0.769026
0.802382
0.830943
0.849596
0.80257
0.850463
0.839895
0.811922
0.82902
0.746964
0.864485
0.804157
0.811796
0.833752
0.805214
0.834648
0.804246
0.819018
0.801553
0.826991
0.806098
0.744934
0.82286
0.803408
0.784593
0.821932
0.801613
0.828728
0.744902
0.746939
0.8337
0.810831
0.804745
0.824946
0.825756
0.69906
0.81028
0.740521
0.830138
0.826232
0.847653
0.828913
0.782159
0.730302
0.82244
0.821378
0.830932
0.830158
0.810818
0.736405
0.826965
0.804418
0.756132
0.732409
0.83214
0.873272
0.80445
0.811473
0.826065
0.804108
0.804282
0.776097
0.827076
0.830411
0.784483
0.716275
0.773624
0.829548
0.792827
0.850173
0.738745
0.777648
0.806631
0.812151
0.787982
0.804797
0.807059
0.808811
0.803559
0.799456
0.828748
0.826676
0.740687
0.829435
0.828738
0.772746
0.711144
0.70106
0.799909
0.829691
0.817392
0.767776
0.80422
0.656291
0.791817
0.723033
0.782811
0.732112
0.796612
0.651766
0.799824
0.840982
0.67694
0.791065
0.754075
0.851814
0.653522
0.82155
0.803299
0.806994
0.69872
0.803757
0.698653
0.864071
0.660658
0.805012
0.704147
0.874642
0.842329
0.831201
0.754867
0.826664
0.735653
0.836906
0.750498
0.679221
0.804943
0.687414
0.8339
0.805233
0.857861
0.799068
0.715599
0.830919
0.800203
0.763091
0.855963
0.815948
0.85499
0.753404
0.766894
0.78281
0.805455
0.840937
0.837916
0.821328
0.828677
0.707242
0.807623
0.754005
0.804754
0.745599
0.807959
0.80048
0.806574
0.835911
0.782668
0.839849
0.764699
0.83587
0.830175
0.829713
0.856127
0.833363
0.743339
0.837028
0.693038
0.795755
0.821315
0.858032
0.83931
0.820972
0.80096
0.768426
0.830121
0.844922
0.830022
0.74451
0.811757
0.72437
0.804985
0.800365
0.821828
0.694654
0.81162
0.776506
0.804355
0.804049
0.775662
0.830331
0.868282
0.791591
0.703592
0.810116
0.80542
0.679299
0.805685
0.788271
0.803951
0.845964
0.83057
0.653733
0.830062
0.81556
0.809621
0.829898
0.804118
0.819961
0.824381
0.839221
0.772618
0.8029
0.843662
0.81506
0.804141
0.802043
0.830948
0.739176
0.635752
0.829345
0.833636
0.831646
0.810221
0.729685
0.829895
0.82997
0.827257
0.746998
0.807838
0.830889
0.664535
0.803911
0.873908
0.690812
0.77797
0.846704
0.835526
0.830904
0.718716
0.814
0.83092
0.806458
0.804313
0.817137
0.843734
0.8219
0.779741
0.811414
0.804565
0.677215
0.832274
0.837707
0.709804
0.803982
0.830823
0.82549
0.710252
0.677101
0.832573
0.834374
0.813623
0.744397
0.733182
0.739208
0.761848
0.831621
0.792693
0.807041
0.762098
0.752022
0.833158
0.82224
0.823727
0.784573
0.830324
0.828686
0.829951
0.828662
0.805086
0.811578
0.80794
0.702603
0.803708
0.817178
0.736163
0.811733
0.808538
0.831194
0.793728
0.811445
0.798942
0.830833
0.832269
0.831691
0.800311
0.730443
0.747363
0.804381
0.81544
0.687443
0.806616
0.812075
0.821535
0.764263
0.808661
0.82872
0.825727
0.830168
0.808322
0.802848
0.781567
0.808684
0.851321
0.82456
0.718355
0.807087
0.740702
0.716587
0.80545
0.65092
0.78263
0.793392
0.813508
0.829626
0.834689
0.829355
0.82272
0.831699
0.837833
0.804461
0.781578
0.814841
0.699522
0.830825
0.77359
0.755179
0.725537
0.828799
0.859906
0.83084
0.8134
0.826829
0.830013
0.794983
0.777216
0.822573
0.714531
0.797387
0.850544
0.8307
0.804657
0.869832
0.817741
0.827851
0.830111
0.834789
0.687909
0.810865
0.761343
0.799564
0.748006
0.828732
0.813261
0.799664
0.688417
0.830409
0.833904
0.826352
0.80512
0.80723
0.834711
0.806481
0.745264
0.797759
0.804043
0.830217
0.826235
0.825472
0.876547
0.837679
0.813524
0.84132
0.713755
0.834105
0.846103
0.829392
0.663624
0.830066
0.813399
0.853065
0.832542
0.804908
0.639738
0.814332
0.735119
0.809961
0.804207
0.816856
0.829649
0.829249
0.808477
0.81625
0.828815
0.756833
0.86878
0.803118
0.857255
0.828894
0.658567
0.806609
0.802838
0.825406
0.830132
0.710839
0.804529
0.813788
0.817307
0.811061
0.799296
0.829759
0.829628
0.808959
0.80828
0.832425
0.844104
0.761193
0.810165
0.814335
0.826124
0.707473
0.80888
0.82738
0.801262
0.80746
0.657933
0.842063
0.782916
0.830804
0.830116
0.840075
0.853086
0.828514
0.826244
0.747029
0.801013
0.858334
0.821223
0.729217
0.802072
0.804001
0.877118
0.852894
0.830954
0.803054
0.814608
0.770443
0.829344
0.818312
0.63766
0.805218
0.760936
0.763325
0.806185
0.825593
0.78967
0.826313
0.829672
0.841919
0.827722
0.805005
0.820433
0.749294
0.756999
0.807032
0.820262
0.831342
0.805235
0.764886
0.728544
0.829295
0.819611
0.81881
0.64495
0.828861
0.826587
0.835168
0.805335
0.819825
0.830601
0.816622
0.847755
0.805184
0.817123
0.83342
0.829748
0.82723
0.830663
0.732771
0.792779
0.806332
0.805293
0.855022
0.803974
0.813548
0.668465
0.82096
0.826949
0.81511
0.830975
0.809379
0.828676
0.744558
0.851432
0.719017
0.802752
0.830022
0.811225
0.713442
0.686656
0.820135
0.809371
0.807875
0.7994
0.803782
0.838761
0.825818
0.808206
0.804757
0.825191
0.656123
0.826538
0.806307
0.738724
0.827317
0.697471
0.798814
0.828656
0.844971
0.81838
0.827692
0.805901
0.807297
0.80765
0.80384
0.826486
0.815509
0.82201
0.805024
0.766346
0.807748
0.828098
0.82738
0.826394
0.826188
0.829414
0.830235
0.841615
0.765081
0.810659
0.829269
0.805503
0.630012
0.729219
0.815946
0.828968
0.829634
0.789119
0.813015
0.817479
0.806512
0.804486
0.80568
0.829396
0.830376
0.830149
0.798975
0.819507
0.818182
0.669212
0.785663
0.775229
0.816167
0.751943
0.726603
0.799216
0.779997
0.837367
0.830942
0.830184
0.813384
0.627435
0.820318
0.636002
0.73899
0.835132
0.874506
0.767957
0.829076
0.859643
0.72514
0.828524
0.814196
0.819318
0.812951
0.687728
0.861297
0.75054
0.761373
0.807962
0.807799
0.801055
0.837147
0.830149
0.720848
0.825143
0.803274
0.736145
0.847846
0.800245
0.664004
0.784801
0.82931
0.820371
0.829929
0.792197
0.757576
0.787834
0.840956
0.711727
0.829659
0.828056
0.837007
0.779008
0.833119
0.731005
0.807835
0.68998
0.722126
0.810969
0.827251
0.802536
0.830817
0.829491
0.829905
0.830144
0.643392
0.803381
0.831034
0.759102
0.814552
0.829384
0.826729
0.72739
0.701665
0.757234
0.684429
0.812966
0.7145
0.829745
0.802844
0.830178
0.840899
0.700171
0.815158
0.830367
0.840048
0.765859
0.796025
0.773333
0.785875
0.823973
0.675026
0.683246
0.829947
0.808869
0.823783
0.807694
0.745268
0.792563
0.753523
0.769586
0.802433
0.841204
0.816651
0.712839
0.834135
0.827478
0.824853
0.731953
0.702044
0.717506
0.877252
0.829483
0.828221
0.656834
0.731934
0.676159
0.806867
0.801736
0.699903
0.816458
0.832761
0.773222
0.802824
0.754948
0.828361
0.714603
0.830701
0.815792
0.813343
0.804259
0.833726
0.760813
0.829729
0.830703
0.790041
0.663902
0.82109
0.824218
0.775641
0.830118
0.757392
0.806452
0.835315
0.712325
0.830408
0.803465
0.815445
0.653928
0.687291
0.755416
0.810117
0.825264
0.824418
0.832216
0.819549
0.829306
0.72484
0.802835
0.825745
0.836228
0.724703
0.758903
0.826991
0.822225
0.726975
0.819625
0.787119
0.713656
0.816409
0.718561
0.81596
0.691807
0.803972
0.741773
0.709363
0.824173
0.794572
0.763501
0.667054
0.847573
0.825779
0.826938
0.783791
0.830356
0.801682
0.797984
0.802139
0.805931
0.826809
0.762036
0.814519
0.802085
0.830814
0.648531
0.80449
0.825138
0.825833
0.82433
0.824617
0.765253
0.814004
0.776857
0.769428
0.830413
0.704725
0.830229
0.829541
0.804374
0.827722
0.828884
0.752817
0.77717
0.833
0.798373
0.807662
0.828297
0.879556
0.829112
0.811091
0.829823
0.829878
0.799452
0.830632
0.82794
0.78505
0.740747
0.84933
0.803562
0.80445
0.826923
0.793317
0.830163
0.82911
0.830714
0.829805
0.875735
0.804453
0.808686
0.830444
0.804444
0.829229
0.81109
0.760684
0.829003
0.831415
0.763172
0.746774
0.828737
0.84689
0.826666
0.714082
0.832896
0.78516
0.820976
0.804942
0.751761
0.804104
0.800617
0.819958
0.828323
0.721926
0.743468
0.804779
0.795308
0.805246
0.833088
0.733712
0.830606
0.805331
0.803394
0.83168
0.82984
0.747247
0.829149
0.777615
0.80633
0.836634
0.805879
0.788003
0.804292
0.801131
0.82968
0.677309
0.83099
0.704738
0.723997
0.806061
0.831315
0.830693
0.804641
0.829837
0.818975
0.753687
0.794738
0.863509
0.804314
0.841062
0.812293
0.654583
0.771158
0.795448
0.699381
0.762548
0.646191
0.828658
0.829381
0.824319
0.803646
0.777379
0.717863
0.782363
0.761607
0.791391
0.830991
0.848337
0.8312
0.809874
0.824034
0.831979
0.805739
0.812168
0.734904
0.805994
0.770735
0.812988
0.799817
0.77254
0.831666
0.796206
0.806195
0.803614
0.848113
0.747419
0.802886
0.802155
0.808494
0.653959
0.829774
0.829792
0.826391
0.696296
0.829813
0.829513
0.800538
0.806735
0.799822
0.79104
0.810957
0.807447
0.829667
0.762954
0.815761
0.879742
0.77841
0.768473
0.818656
0.791868
0.850506
0.812157
0.795287
0.826446
0.803212
0.79963
0.812548
0.835877
0.844476
0.804161
0.637202
0.831618
0.837736
0.782315
0.840186
0.846042
0.83342
0.836128
0.811929
0.841611
0.836891
0.792249
0.81356
0.825205
0.818424
0.833561
0.805862
0.831441
0.800155
0.807631
0.811147
0.753628
0.812195
0.636638
0.830132
0.83564
0.838375
0.810179
0.822685
0.834503
0.823737
0.832143
0.847137
0.842198
0.801678
0.801639
0.832797
0.82833
0.829744
0.802555
0.810625
0.87105
0.831598
0.854734
0.828418
0.802782
0.82876
0.80607
0.837398
0.826402
0.826629
0.809096
0.754934
0.804994
0.807857
0.829498
0.806935
0.812271
0.826318
0.81042
0.807274
0.788033
0.824039
0.73914
0.818784
0.795785
0.774149
0.806203
0.817665
0.823666
0.747376
0.83111
0.819602
0.830617
0.829241
0.800933
0.829643
0.850588
0.837143
0.824979
0.816053
0.803498
0.766249
0.72548
0.830409
0.82548
0.787246
0.826737
0.81188
0.824932
0.809163
0.800586
0.786351
0.803566
0.801884
0.848883
0.829917
0.815844
0.811925
0.647655
0.756217
0.806366
0.797496
0.807572
0.828271
0.809814
0.829638
0.789589
0.830237
0.808389
0.824225
0.807023
0.829882
0.803893
0.829651
0.823839
0.828805
0.825388
0.746994
0.82647
0.8297
0.64414
0.830212
0.802669
0.806218
0.864923
0.829457
0.823935
0.877291
0.828906
0.82914
0.829796
0.830717
0.827361
0.777111
0.834135
0.804313
0.80541
0.826175
0.829339
0.829786
0.829803
0.825339
0.827207
0.807089
0.824666
0.813228
0.819774
0.824277
0.829952
0.824211
0.830712
0.813691
0.705381
0.702937
0.804546
0.813094
0.805674
0.82398
0.829995
0.82879
0.804838
0.808052
0.802954
0.802682
0.829035
0.851126
0.830622
0.816057
0.830223
0.830378
0.849455
0.829282
0.825486
0.794061
0.828022
0.81083
0.805107
0.798919
0.822525
0.830358
0.829834
0.828618
0.839586
0.817782
0.827736
0.828621
0.825818
0.805913
0.805877
0.809143
0.824747
0.829638
0.803359
0.814839
0.829757
0.826688
0.803314
0.67268
0.807176
0.807386
0.821772
0.804997
0.80585
0.76367
0.848926
0.80702
0.801508
0.843638
0.8393
0.814482
0.836352
0.802489
0.830091
0.828481
0.830677
0.806075
0.830389
0.760047
0.83323
0.816177
0.802306
0.817465
0.831912
0.804567
0.806695
0.796612
0.819438
0.829869
0.829833
0.830474
0.810159
0.829888
0.829403
0.834995
0.82615
0.846148
0.809697
0.716462
0.829829
0.847493
0.831382
0.808099
0.801488
0.806454
0.827237
0.818455
0.829223
0.758939
0.766025
0.803172
0.806891
0.829055
0.828393
0.811391
0.7043
0.728278
0.812107
0.777236
0.82969
0.723083
0.804354
0.746396
0.803966
0.824393
0.804107
0.829889
0.826509
0.802313
0.812651
0.806222
0.833842
0.829759
0.803823
0.806318
0.82852
0.832441
0.769211
0.832114
0.806238
0.790437
0.829772
0.806468
0.815029
0.830692
0.829696
0.84364
0.805613
0.800256
0.829787
0.773035
0.810536
0.830571
0.80501
0.829014
0.844639
0.804989
0.850538
0.818915
0.801434
0.826812
0.803922
0.854925
0.795947
0.805019
0.82969
0.840889
0.812368
0.828314
0.829417
0.8049
0.804969
0.829994
0.794341
0.828759
0.829469
0.707495
0.829495
0.731574
0.821901
0.846124
0.834608
0.809795
0.829846
0.83015
0.746667
0.830439
0.804131
0.802587
0.802979
0.828921
0.869519
0.803184
0.803511
0.793367
0.848824
0.831859
0.830942
0.826377
0.762944
0.814775
0.80396
0.748847
0.802559
0.734543
0.823889
0.803502
0.70399
0.884374
0.721946
0.780142
0.805333
0.765595
0.812452
0.800841
0.80418
0.691435
0.801211
0.792773
0.801301
0.76057
0.830469
0.833297
0.88833
0.813619
0.835425
0.679671
0.802675
0.798524
0.770005
0.771834
0.787034
0.739756
0.806113
0.801742
0.806222
0.779044
0.668388
0.815653
0.660473
0.831051
0.831054
0.815778
0.752187
0.821776
0.808385
0.829826
0.791586
0.819664
0.801391
0.823101
0.735891
0.803559
0.745178
0.803332
0.800468
0.729876
0.8068
0.830604
0.830501
0.804687
0.775697
0.829902
0.743586
0.714854
0.803724
0.830582
0.879233
0.830724
0.828627
0.884562
0.870481
0.838508
0.729695
0.803979
0.816176
0.825805
0.809995
0.725569
0.740848
0.724926
0.803942
0.716112
0.782055
0.800913
0.692141
0.70271
0.843401
0.788142
0.764529
0.839476
0.775994
0.777701
0.689922
0.753316
0.798102
0.829468
0.8743
0.845126
0.829648
0.806398
0.80124
0.741425
0.83008
0.718036
0.803288
0.830764
0.790828
0.776906
0.812696
0.795817
0.805986
0.802396
0.824988
0.816098
0.872254
0.677933
0.650549
0.804122
0.81754
0.729073
0.814514
0.804451
0.845084
0.806059
0.803181
0.647917
0.666904
0.813774
0.825829
0.830236
0.758804
0.804187
0.820853
0.720295
0.825455
0.803937
0.829883
0.803797
0.810871
0.803033
0.830338
0.803616
0.821708
0.80544
0.867739
0.830691
0.803242
0.732259
0.712638
0.829273
0.657004
0.823025
0.814404
0.843769
0.826356
0.805043
0.815156
0.829374
0.826694
0.83101
0.802492
0.856996
0.862726
0.805569
0.707315
0.820024
0.826662
0.802776
0.804669
0.829992
0.763699
0.803848
0.834046
0.830971
0.828041
0.829442
0.779793
0.755962
0.804
0.842258
0.806641
0.824682
0.808452
0.807578
0.809091
0.829906
0.813181
0.801044
0.811413
0.810151
0.828715
0.811006
0.810386
0.829856
0.811059
0.803928
0.82911
0.804157
0.803572
0.809707
0.812103
0.829119
0.78529
0.809019
0.804433
0.831186
0.800867
0.806273
0.811622
0.840466
0.808479
0.707818
0.802163
0.828106
0.807864
0.819265
0.777539
0.828247
0.769488
0.805992
0.803041
0.806798
0.823278
0.857852
0.807333
0.803917
0.757425
0.838605
0.830722
0.831351
0.828984
0.825915
0.761437
0.830026
0.754014
0.805654
0.836962
0.803679
0.738031
0.835541
0.825328
0.829685
0.834159
0.829949
0.784828
0.829694
0.710832
0.748248
0.830719
0.832979
0.727091
0.830964
0.687888
0.832095
0.811221
0.829649
0.804066
0.809893
0.825727
0.835743
0.829115
0.678045
0.828674
0.84988
0.790835
0.853643
0.803221
0.745498
0.846777
0.831075
0.844195
0.7344
0.730125
0.84188
0.71706
0.83992
0.830503
0.838205
0.811328
0.836778
0.795494
0.83555
0.83443
0.745694
0.871245
0.833492
0.832723
0.827685
0.775954
0.804309
0.650909
0.815083
0.832084
0.828202
0.81013
0.835872
0.831227
0.7994
0.831542
0.804545
0.725971
0.799006
0.838064
0.829781
0.749661
0.811516
0.825709
0.661585
0.829679
0.829806
0.80842
0.814259
0.755568
0.827825
0.804254
0.805632
0.801566
0.80685
0.804374
0.801184
0.803846
0.828602
0.823542
0.828235
0.634859
0.896302
0.736455
0.802832
0.764351
0.798783
0.831147
0.829678
0.82981
0.657261
0.830017
0.821462
0.80692
0.828674
0.840486
0.843108
0.79145
0.802206
0.803836
0.758109
0.773656
0.830155
0.777868
0.819459
0.830754
0.82973
0.817746
0.803854
0.79116
0.816253
0.829623
0.74843
0.814742
0.829634
0.830358
0.811796
0.813531
0.782735
0.830454
0.812184
0.804981
0.811295
0.670529
0.810258
0.8075
0.80953
0.83224
0.848867
0.808039
0.791111
0.808753
0.781866
0.831492
0.817931
0.828833
0.831204
0.853244
0.805618
0.759814
0.824004
0.830184
0.748296
0.804236
0.829663
0.771068
0.828844
0.631096
0.810503
0.709145
0.804688
0.820414
0.826062
0.829969
0.80718
0.826386
0.829621
0.803355
0.808639
0.847913
0.829467
0.80181
0.828041
0.806014
0.805533
0.801892
0.803714
0.818518
0.830108
0.804211
0.787717
0.830389
0.822153
0.813307
0.831171
0.642663
0.809106
0.818183
0.830007
0.801363
0.7691
0.730121
0.828556
0.830993
0.835849
0.803236
0.655066
0.784841
0.698097
0.829782
0.754952
0.82841
0.834473
0.738622
0.801402
0.842529
0.773386
0.804409
0.804729
0.828807
0.812298
0.721335
0.802495
0.65107
0.804666
0.80429
0.805275
0.673286
0.804096
0.805764
0.80591
0.745858
0.755182
0.805996
0.789423
0.829782
0.741871
0.728536
0.829872
0.805392
0.76849
0.860033
0.829603
0.828319
0.699658
0.806239
0.801913
0.802122
0.803469
0.697203
0.805574
0.82992
0.688158
0.712132
0.811514
0.801998
0.830319
0.831542
0.828778
0.829126
0.829394
0.806513
0.830152
0.828573
0.822636
0.833373
0.805862
0.803788
0.814818
0.75942
0.813885
0.828439
0.868063
0.820713
0.677171
0.791412
0.803874
0.786362
0.829654
0.825226
0.837858
0.818653
0.869812
0.8056
0.828444
0.654189
0.820249
0.841486
0.803817
0.830125
0.669331
0.827775
0.804249
0.829619
0.803231
0.829877
0.829364
0.764291
0.807156
0.803788
0.842816
0.867479
0.823999
0.829696
0.737327
0.767832
0.803765
0.805154
0.816634
0.830044
0.800978
0.804778
0.830766
0.81832
0.81155
0.750766
0.804077
0.829146
0.825445
0.781942
0.769905
0.823753
0.802994
0.863124
0.738034
0.842517
0.823276
0.724104
0.805285
0.828313
0.794677
0.801767
0.805945
0.829286
0.791712
0.782749
0.828354
0.711202
0.800012
0.781711
0.829488
0.829975
0.804145
0.800525
0.759582
0.770693
0.786369
0.829791
0.83079
0.817669
0.698465
0.813371
0.807682
0.786639
0.815122
0.827642
0.805019
0.807058
0.699249
0.807978
0.808692
0.858335
0.806369
0.813487
0.84156
0.809463
0.822845
0.858879
0.678876
0.806912
0.829678
0.80949
0.808884
0.810015
0.807935
0.808322
0.807331
0.810348
0.810547
0.748795
0.810488
0.811323
0.817596
0.827855
0.812508
0.828677
0.803911
0.80637
0.828188
0.827989
0.823248
0.803917
0.82107
0.817751
0.820461
0.829125
0.737241
0.828314
0.84013
0.829649
0.860998
0.764671
0.820035
0.830804
0.804613
0.687435
0.805294
0.784895
0.832924
0.660601
0.829692
0.838521
0.829935
0.822517
0.803713
0.831765
0.82831
0.806549
0.778207
0.829696
0.770916
0.636838
0.830525
0.705162
0.728304
0.824883
0.837008
0.837212
0.829557
0.854729
0.677039
0.879047
0.810307
0.835644
0.83432
0.826281
0.720539
0.830423
0.83312
0.829578
0.804869
0.781572
0.826571
0.644622
0.823893
0.850891
0.805916
0.847768
0.832191
0.803847
0.714909
0.846959
0.831432
0.844987
0.80313
0.824788
0.803757
0.842714
0.804651
0.824991
0.840631
0.838805
0.826287
0.834806
0.834887
0.749121
0.713903
0.666679
0.837262
0.836012
0.780784
0.773559
0.818624
0.834854
0.850083
0.665293
0.83383
0.832987
0.83231
0.831242
0.809355
0.825057
0.714355
0.766152
0.831742
0.799665
0.872576
0.893795
0.787205
0.815989
0.695584
0.839343
0.75879
0.752833
0.823445
0.80751
0.792337
0.718522
0.803224
0.830018
0.796327
0.749239
0.812772
0.821494
0.804459
0.726037
0.831603
0.800018
0.82963
0.842112
0.819515
0.808486
0.829604
0.829597
0.794072
0.807105
0.748293
0.844191
0.79938
0.823198
0.791004
0.807664
0.733767
0.801876
0.817839
0.816406
0.815164
0.813603
0.812404
0.811533
0.809667
0.808258
0.810595
0.757958
0.808953
0.802407
0.801353
0.805592
0.84784
0.750173
0.804935
0.785956
0.887724
0.857682
0.802756
0.754655
0.806847
0.804087
0.744551
0.805705
0.804542
0.761294
0.808422
0.803518
0.799509
0.803485
0.75548
0.79484
0.815971
0.770041
0.776236
0.786625
0.803933
0.828668
0.812661
0.778344
0.765877
0.803661
0.829362
0.805236
0.803538
0.802256
0.929498
0.865918
0.829018
0.831084
0.734483
0.851616
0.762656
0.830337
0.825241
0.90107
0.830826
0.798969
0.645524
0.83066
0.799203
0.8305
0.799716
0.852005
0.647431
0.841581
0.804897
0.809487
0.810638
0.807295
0.858969
0.802961
0.829786
0.721274
0.663786
0.690824
0.830357
0.634024
0.799557
0.748719
0.848502
0.820161
0.618289
0.812192
0.829747
0.829841
0.73754
0.804443
0.613466
0.799647
0.830106
0.799883
0.804498
0.800231
0.8299
0.841371
0.803847
0.801256
0.829731
0.801631
0.829704
0.818853
0.802024
0.829697
0.828185
0.829718
0.802376
0.829764
0.702746
0.80268
0.829838
0.804344
0.80298
0.829922
0.732838
0.83041
0.799763
0.831042
0.80474
0.822565
0.842229
0.867382
0.802407
0.804361
0.830356
0.81984
0.803903
0.803431
0.866376
0.821897
0.830197
0.823024
0.856354
0.838302
0.829198
0.830125
0.853819
0.830505
0.805784
0.831078
0.820897
0.8063
0.830034
0.802937
0.816905
0.790371
0.811571