# vtk DataFile Version 1.0
unstructured grid
ascii
DATASET UNSTRUCTURED_GRID
points 3920 float
-1 0 0
-1 1 0
2 0 0
2 1 0
0 0 0
1 0 0
-1 1 0.1
-1 0 0.1
0 0 0.1
1 0 0.1
2 0 0.1
2 1 0.1
-0.98 0 0
-0.96 0 0
-0.94 0 0
-0.92 0 0
-0.9 0 0
-0.88 0 0
-0.86 0 0
-0.84 0 0
-0.82 0 0
-0.8 0 0
-0.78 0 0
-0.76 0 0
-0.74 0 0
-0.72 0 0
-0.7 0 0
-0.68 0 0
-0.66 0 0
-0.64 0 0
-0.62 0 0
-0.6 0 0
-0.58 0 0
-0.56 0 0
-0.54 0 0
-0.52 0 0
-0.5 0 0
-0.48 0 0
-0.46 0 0
-0.44 0 0
-0.42 0 0
-0.4 0 0
-0.38 0 0
-0.36 0 0
-0.34 0 0
-0.32 0 0
-0.3 0 0
-0.28 0 0
-0.26 0 0
-0.24 0 0
-0.22 0 0
-0.2 0 0
-0.18 0 0
-0.16 0 0
-0.14 0 0
-0.12 0 0
-0.1 0 0
-0.08 0 0
-0.06 0 0
-0.04 0 0
-0.02 0 0
1.02 0 0
1.04 0 0
1.06 0 0
1.08 0 0
1.1 0 0
1.12 0 0
1.14 0 0
1.16 0 0
1.18 0 0
1.2 0 0
1.22 0 0
1.24 0 0
1.26 0 0
1.28 0 0
1.3 0 0
1.32 0 0
1.34 0 0
1.36 0 0
1.38 0 0
1.4 0 0
1.42 0 0
1.44 0 0
1.46 0 0
1.48 0 0
1.5 0 0
1.52 0 0
1.54 0 0
1.56 0 0
1.58 0 0
1.6 0 0
1.62 0 0
1.64 0 0
1.66 0 0
1.68 0 0
1.7 0 0
1.72 0 0
1.74 0 0
1.76 0 0
1.78 0 0
1.8 0 0
1.82 0 0
1.84 0 0
1.86 0 0
1.88 0 0
1.9 0 0
1.92 0 0
1.94 0 0
1.96 0 0
1.98 0 0
2 0.0199133 0
2 0.0414128 0
2 0.0646247 0
2 0.0896856 0
2 0.116743 0
2 0.145955 0
2 0.177494 0
2 0.211545 0
2 0.248309 0
2 0.288001 0
2 0.330854 0
2 0.377121 0
2 0.427073 0
2 0.481004 0
2 0.539231 0
2 0.602096 0
2 0.669968 0
2 0.743247 0
2 0.822362 0
2 0.907779 0
1.9 1 0
1.8 1 0
1.7 1 0
1.6 1 0
1.5 1 0
1.4 1 0
1.3 1 0
1.2 1 0
1.1 1 0
1 1 0
0.9 1 0
0.8 1 0
0.7 1 0
0.6 1 0
0.5 1 0
0.4 1 0
0.3 1 0
0.2 1 0
0.1 1 0
3.69793e-12 1 0
-0.1 1 0
-0.2 1 0
-0.3 1 0
-0.4 1 0
-0.5 1 0
-0.6 1 0
-0.7 1 0
-0.8 1 0
-0.9 1 0
-1 0.907779 0
-1 0.822362 0
-1 0.743247 0
-1 0.669968 0
-1 0.602096 0
-1 0.539231 0
-1 0.481004 0
-1 0.427073 0
-1 0.377121 0
-1 0.330854 0
-1 0.288001 0
-1 0.248309 0
-1 0.211545 0
-1 0.177494 0
-1 0.145955 0
-1 0.116743 0
-1 0.0896856 0
-1 0.0646247 0
-1 0.0414128 0
-1 0.0199133 0
0.0182781 0.00745351 0
0.0366672 0.0146286 0
0.0551632 0.0215237 0
0.0737617 0.0281372 0
0.0924585 0.0344675 0
0.111249 0.0405131 0
0.13013 0.0462728 0
0.149095 0.0517451 0
0.168142 0.0569289 0
0.187265 0.0618228 0
0.20646 0.0664258 0
0.225723 0.0707368 0
0.245049 0.0747549 0
0.264434 0.078479 0
0.283873 0.0819084 0
0.303362 0.0850422 0
0.322896 0.0878798 0
0.342472 0.0904204 0
0.362083 0.0926635 0
0.381726 0.0946086 0
0.401397 0.0962552 0
0.42109 0.0976029 0
0.440802 0.0986514 0
0.460527 0.0994006 0
0.480261 0.0998501 0
0.5 0.1 0
0.519739 0.0998501 0
0.539473 0.0994006 0
0.559198 0.0986514 0
0.57891 0.0976029 0
0.598603 0.0962552 0
0.618274 0.0946086 0
0.637917 0.0926635 0
0.657528 0.0904204 0
0.677104 0.0878798 0
0.696638 0.0850422 0
0.716127 0.0819084 0
0.735566 0.078479 0
0.754951 0.0747549 0
0.774277 0.0707368 0
0.79354 0.0664258 0
0.812735 0.0618228 0
0.831858 0.0569289 0
0.850905 0.0517451 0
0.86987 0.0462728 0
0.888751 0.0405131 0
0.907542 0.0344675 0
0.926238 0.0281372 0
0.944837 0.0215237 0
0.963333 0.0146286 0
0.981722 0.00745351 0
-1 0.907779 0.1
-1 0.822362 0.1
-1 0.743247 0.1
-1 0.669968 0.1
-1 0.602096 0.1
-1 0.539231 0.1
-1 0.481004 0.1
-1 0.427073 0.1
-1 0.377121 0.1
-1 0.330854 0.1
-1 0.288001 0.1
-1 0.248309 0.1
-1 0.211545 0.1
-1 0.177494 0.1
-1 0.145955 0.1
-1 0.116743 0.1
-1 0.0896856 0.1
-1 0.0646247 0.1
-1 0.0414128 0.1
-1 0.0199133 0.1
-0.98 0 0.1
-0.96 0 0.1
-0.94 0 0.1
-0.92 0 0.1
-0.9 0 0.1
-0.88 0 0.1
-0.86 0 0.1
-0.84 0 0.1
-0.82 0 0.1
-0.8 0 0.1
-0.78 0 0.1
-0.76 0 0.1
-0.74 0 0.1
-0.72 0 0.1
-0.7 0 0.1
-0.68 0 0.1
-0.66 0 0.1
-0.64 0 0.1
-0.62 0 0.1
-0.6 0 0.1
-0.58 0 0.1
-0.56 0 0.1
-0.54 0 0.1
-0.52 0 0.1
-0.5 0 0.1
-0.48 0 0.1
-0.46 0 0.1
-0.44 0 0.1
-0.42 0 0.1
-0.4 0 0.1
-0.38 0 0.1
-0.36 0 0.1
-0.34 0 0.1
-0.32 0 0.1
-0.3 0 0.1
-0.28 0 0.1
-0.26 0 0.1
-0.24 0 0.1
-0.22 0 0.1
-0.2 0 0.1
-0.18 0 0.1
-0.16 0 0.1
-0.14 0 0.1
-0.12 0 0.1
-0.1 0 0.1
-0.08 0 0.1
-0.06 0 0.1
-0.04 0 0.1
-0.02 0 0.1
0.0182781 0.00745351 0.1
0.0366672 0.0146286 0.1
0.0551632 0.0215237 0.1
0.0737617 0.0281372 0.1
0.0924585 0.0344675 0.1
0.111249 0.0405131 0.1
0.13013 0.0462728 0.1
0.149095 0.0517451 0.1
0.168142 0.0569289 0.1
0.187265 0.0618228 0.1
0.20646 0.0664258 0.1
0.225723 0.0707368 0.1
0.245049 0.0747549 0.1
0.264434 0.078479 0.1
0.283873 0.0819084 0.1
0.303362 0.0850422 0.1
0.322896 0.0878798 0.1
0.342472 0.0904204 0.1
0.362083 0.0926635 0.1
0.381726 0.0946086 0.1
0.401397 0.0962552 0.1
0.42109 0.0976029 0.1
0.440802 0.0986514 0.1
0.460527 0.0994006 0.1
0.480261 0.0998501 0.1
0.5 0.1 0.1
0.519739 0.0998501 0.1
0.539473 0.0994006 0.1
0.559198 0.0986514 0.1
0.57891 0.0976029 0.1
0.598603 0.0962552 0.1
0.618274 0.0946086 0.1
0.637917 0.0926635 0.1
0.657528 0.0904204 0.1
0.677104 0.0878798 0.1
0.696638 0.0850422 0.1
0.716127 0.0819084 0.1
0.735566 0.078479 0.1
0.754951 0.0747549 0.1
0.774277 0.0707368 0.1
0.79354 0.0664258 0.1
0.812735 0.0618228 0.1
0.831858 0.0569289 0.1
0.850905 0.0517451 0.1
0.86987 0.0462728 0.1
0.888751 0.0405131 0.1
0.907542 0.0344675 0.1
0.926238 0.0281372 0.1
0.944837 0.0215237 0.1
0.963333 0.0146286 0.1
0.981722 0.00745351 0.1
1.02 0 0.1
1.04 0 0.1
1.06 0 0.1
1.08 0 0.1
1.1 0 0.1
1.12 0 0.1
1.14 0 0.1
1.16 0 0.1
1.18 0 0.1
1.2 0 0.1
1.22 0 0.1
1.24 0 0.1
1.26 0 0.1
1.28 0 0.1
1.3 0 0.1
1.32 0 0.1
1.34 0 0.1
1.36 0 0.1
1.38 0 0.1
1.4 0 0.1
1.42 0 0.1
1.44 0 0.1
1.46 0 0.1
1.48 0 0.1
1.5 0 0.1
1.52 0 0.1
1.54 0 0.1
1.56 0 0.1
1.58 0 0.1
1.6 0 0.1
1.62 0 0.1
1.64 0 0.1
1.66 0 0.1
1.68 0 0.1
1.7 0 0.1
1.72 0 0.1
1.74 0 0.1
1.76 0 0.1
1.78 0 0.1
1.8 0 0.1
1.82 0 0.1
1.84 0 0.1
1.86 0 0.1
1.88 0 0.1
1.9 0 0.1
1.92 0 0.1
1.94 0 0.1
1.96 0 0.1
1.98 0 0.1
2 0.0199133 0.1
2 0.0414128 0.1
2 0.0646247 0.1
2 0.0896856 0.1
2 0.116743 0.1
2 0.145955 0.1
2 0.177494 0.1
2 0.211545 0.1
2 0.248309 0.1
2 0.288001 0.1
2 0.330854 0.1
2 0.377121 0.1
2 0.427073 0.1
2 0.481004 0.1
2 0.539231 0.1
2 0.602096 0.1
2 0.669968 0.1
2 0.743247 0.1
2 0.822362 0.1
2 0.907779 0.1
1.9 1 0.1
1.8 1 0.1
1.7 1 0.1
1.6 1 0.1
1.5 1 0.1
1.4 1 0.1
1.3 1 0.1
1.2 1 0.1
1.1 1 0.1
1 1 0.1
0.9 1 0.1
0.8 1 0.1
0.7 1 0.1
0.6 1 0.1
0.5 1 0.1
0.4 1 0.1
0.3 1 0.1
0.2 1 0.1
0.1 1 0.1
3.69793e-12 1 0.1
-0.1 1 0.1
-0.2 1 0.1
-0.3 1 0.1
-0.4 1 0.1
-0.5 1 0.1
-0.6 1 0.1
-0.7 1 0.1
-0.8 1 0.1
-0.9 1 0.1
1.08758 0.0158154 0
-0.0898513 0.0203294 0
0.0966181 0.0537636 0
0.90205 0.0548881 0
1.21055 0.0202058 0
-0.209811 0.0159577 0
1.3305 0.0176902 0
-0.33 0.0173205 0
1.45324 0.0148141 0
-0.448654 0.0159854 0
1.56842 0.0191785 0
-0.569936 0.0166364 0
0.193292 0.0805369 0
0.805051 0.0813623 0
0.709096 0.100353 0
0.288591 0.0996656 0
0.390184 0.111848 0
0.61033 0.111742 0
0.488809 0.116278 0
1.67175 0.0169692 0
-0.67 0.0169809 0
-0.955017 0.454039 0
1.95131 0.44569 0
1.74981 0.0168753 0
-0.75 0.0173205 0
-0.968032 0.266538 0
1.96871 0.266267 0
0.978232 0.0305687 0
0.0208675 0.026451 0
-0.150454 0.91842 0
1.13854 0.907437 0
1.45012 0.904365 0
-0.445923 0.908903 0
-0.853423 0.0157019 0
1.84881 0.016319 0
0.853689 0.915652 0
0.153944 0.912184 0
0.545151 0.914125 0
0.549913 0.115152 0
1.51 0.0173205 0
-0.506989 0.01651 0
1.27 0.0173205 0
1.14976 0.0173333 0
-0.268171 0.0206442 0
-0.150501 0.0153244 0
-0.391384 0.0153993 0
1.38886 0.0171544 0
-0.973694 0.161724 0
1.97441 0.162392 0
-0.945221 0.633523 0
1.94544 0.63312 0
1.91008 0.0186068 0
-0.91 0.0169616 0
-0.030664 0.0194327 0
1.03074 0.0165456 0
-0.966065 0.353575 0
1.96128 0.359765 0
1.93879 0.781254 0
-0.937057 0.781882 0
-0.980746 0.080709 0
1.9772 0.0760699 0
0.058735 0.0409372 0
0.355202 0.913001 0
0.86356 0.0661005 0
0.134223 0.0651111 0
0.941972 0.0397386 0
-0.653034 0.915003 0
1.65328 0.904589 0
0.770126 0.0881325 0
0.232946 0.0902008 0
0.330582 0.105648 0
0.670612 0.108365 0
0.428707 0.116145 0
1.80993 0.016629 0
-0.810168 0.0172178 0
-0.71 0.0173205 0
1.63047 0.0175504 0
1.70842 0.0169661 0
-0.628824 0.0181787 0
-0.949815 0.0133898 0
1.95 0.0173205 0
1.85542 0.907891 0
-0.85 0.913397 0
1.9833 0.0307692 0
-0.983315 0.0309709 0
-0.750025 0.916468 0
-0.701107 0.836904 0
-0.607741 0.836428 0
-0.656448 0.759827 0
-0.572936 0.758144 0
-0.61411 0.691195 0
-0.539534 0.689068 0
-0.578542 0.626111 0
-0.507461 0.624216 0
-0.544001 0.566638 0
-0.477696 0.564279 0
-0.511582 0.51001 0
-0.451689 0.507147 0
-0.481834 0.457732 0
-0.426137 0.454624 0
-0.453236 0.407539 0
-0.398845 0.406233 0
-0.507958 0.409496 0
-0.368427 0.460177 0
-0.344602 0.405209 0
-0.315696 0.447824 0
-0.294128 0.402169 0
-0.262844 0.444518 0
-0.241968 0.388746 0
-0.209878 0.439557 0
-0.185184 0.391135 0
-0.156687 0.437338 0
-0.133719 0.390776 0
-0.104405 0.434306 0
-0.0818745 0.388334 0
-0.0528785 0.431165 0
-0.0305984 0.385639 0
-0.00180552 0.427863 0
0.0194564 0.382608 0
0.0485809 0.42449 0
0.0701962 0.37973 0
0.0985483 0.421145 0
0.119893 0.377339 0
0.147837 0.417911 0
0.172552 0.36751 0
0.197018 0.412597 0
0.221203 0.37141 0
0.24512 0.409646 0
-0.48178 0.364657 0
-0.531053 0.364782 0
-0.0599102 0.344151 0
-0.324909 0.359566 0
0.266181 0.368462 0
0.292132 0.407649 0
0.311992 0.365779 0
0.338918 0.404821 0
0.357567 0.355909 0
0.384723 0.40053 0
0.404675 0.359681 0
0.430617 0.398558 0
0.450457 0.35827 0
0.474237 0.395182 0
0.496746 0.34898 0
0.520548 0.397931 0
0.542071 0.353121 0
0.566011 0.389914 0
0.585061 0.350856 0
0.609352 0.38696 0
0.629069 0.348168 0
0.655979 0.391217 0
0.67472 0.346182 0
0.699346 0.381414 0
0.719333 0.341965 0
0.743718 0.377547 0
0.764028 0.339036 0
0.788201 0.373582 0
0.807659 0.336101 0
0.832821 0.372249 0
0.852309 0.334017 0
0.877785 0.370339 0
0.897875 0.331141 0
0.922904 0.366281 0
0.943173 0.327335 0
0.968282 0.363358 0
0.989029 0.324222 0
1.01391 0.361511 0
1.03465 0.321428 0
1.05949 0.358447 0
1.08389 0.312052 0
1.10575 0.355104 0
1.12889 0.31562 0
1.15067 0.353235 0
1.17157 0.312819 0
1.19626 0.349369 0
1.21618 0.309863 0
1.2416 0.346914 0
1.26131 0.30715 0
1.28691 0.344312 0
1.30571 0.303752 0
1.33144 0.341222 0
1.35018 0.300911 0
1.3758 0.338308 0
1.39501 0.298931 0
1.42015 0.335235 0
1.43904 0.296349 0
1.46355 0.330194 0
1.48256 0.293347 0
1.50685 0.326967 0
1.52589 0.29055 0
1.54996 0.325305 0
1.56909 0.287929 0
[...]
CELL_DATA 3694
SCALARS rho float
LOOKUP_TABLE default
0.749839
0.695704
0.805126
0.824363
0.835276
0.806569
0.794547
0.801622
0.821099
0.803889
0.828063
0.828055
0.842465
0.792709
0.802352
0.769399
0.804149
0.804184
0.776876
0.856521
0.82693
0.832925
0.729095
0.804811
0.726285
0.841439
0.72858
0.808488
0.839038
0.799621
0.799784
0.726293
0.804647
0.826873
0.804327
0.809057
0.844266
0.832651
0.833758
0.781771
0.806034
0.819433
0.836416
0.827451
0.807884
0.824271
0.802768
0.69678
0.699514
0.746421
0.803575
0.803484
0.853497
0.804371
0.685432
0.845188
0.804142
0.828761
0.834487
0.767143
0.799209
0.826557
0.849663
0.801177
0.850468
0.839631
0.809713
0.824987
0.741043
0.864826
0.803664
0.809462
0.832945
0.804137
0.83405
0.803497
0.816472
0.800787
0.824876
0.804156
0.735279
0.820637
0.802984
0.780424
0.820734
0.800782
0.828151
0.73534
0.740647
0.833515
0.809992
0.803579
0.82276
0.82524
0.694503
0.808198
0.737995
0.828453
0.823533
0.84768
0.825835
0.779017
0.722835
0.820847
0.820195
0.826552
0.828442
0.808712
0.727445
0.825191
0.80163
0.747712
0.725203
0.83193
0.873778
0.803356
0.810642
0.823346
0.803649
0.803231
0.770935
0.824764
0.829667
0.782669
0.708304
0.767437
0.828032
0.790868
0.850354
0.729847
0.772525
0.803421
0.809825
0.783331
0.802894
0.806135
0.806948
0.803097
0.799033
0.825751
0.824714
0.73417
0.82768
0.825004
0.766514
0.699137
0.696541
0.799275
0.82708
0.815053
0.760135
0.803495
0.634003
0.790376
0.711896
0.779754
0.729298
0.795297
0.640658
0.796409
0.839252
0.669807
0.786852
0.751632
0.851855
0.631062
0.81931
0.801924
0.804941
0.693749
0.80243
0.690341
0.8644
0.643087
0.802232
0.688633
0.87394
0.842077
0.830518
0.749441
0.824953
0.727447
0.836376
0.743522
0.672678
0.803897
0.675955
0.833198
0.803196
0.858064
0.795391
0.706882
0.826323
0.799547
0.755507
0.854673
0.813489
0.855278
0.751041
0.759155
0.777621
0.804484
0.840626
0.836066
0.818936
0.825426
0.698234
0.805966
0.748519
0.803934
0.73547
0.807189
0.797831
0.803828
0.835314
0.779712
0.839488
0.762744
0.835263
0.82961
0.827049
0.854844
0.83137
0.733426
0.836509
0.682522
0.791901
0.820555
0.858234
0.83904
0.819469
0.797643
0.760858
0.828363
0.844855
0.828209
0.738292
0.810914
0.713875
0.803873
0.797702
0.82081
0.680487
0.809495
0.773551
0.801023
0.803599
0.773371
0.826572
0.867367
0.787674
0.694604
0.807153
0.803559
0.67217
0.804559
0.783635
0.80299
0.846047
0.826294
0.642561
0.826538
0.812764
0.808639
0.826722
0.803441
0.817509
0.823961
0.837417
0.770329
0.802561
0.843462
0.81277
0.803641
0.79895
0.826494
0.732925
0.623802
0.827634
0.831611
0.830649
0.807281
0.717886
0.82672
0.826522
0.826692
0.737183
0.807067
0.826568
0.647091
0.80344
0.874491
0.679393
0.77422
0.846682
0.835374
0.826359
0.710049
0.811515
0.826568
0.80503
0.803063
0.814513
0.843795
0.819663
0.7743
0.809007
0.803791
0.670694
0.831247
0.837236
0.700796
0.802828
0.829424
0.82313
0.703466
0.665684
0.831603
0.833774
0.811388
0.738064
0.727893
0.734174
0.753415
0.830585
0.790713
0.805469
0.753791
0.746496
0.832426
0.821113
0.821518
0.782777
0.82657
0.82521
0.828159
0.826847
0.803742
0.809467
0.805911
0.69345
0.803311
0.814904
0.725095
0.80947
0.806638
0.829915
0.789894
0.808565
0.795402
0.826463
0.831239
0.830547
0.799518
0.718426
0.737356
0.801682
0.81297
0.67122
0.805122
0.809804
0.819277
0.756728
0.806205
0.827139
0.822913
0.828543
0.806499
0.79991
0.7791
0.806526
0.851356
0.822372
0.710006
0.805338
0.731867
0.708738
0.804218
0.642307
0.777409
0.789292
0.810654
0.82506
0.834377
0.82783
0.822264
0.830555
0.837455
0.803532
0.779157
0.81215
0.689706
0.829665
0.771303
0.749653
0.714438
0.825345
0.86024
0.829686
0.811112
0.824524
0.826656
0.791083
0.774241
0.820818
0.710929
0.794191
0.85071
0.828583
0.802482
0.870269
0.815382
0.82692
0.828352
0.832842
0.673418
0.809987
0.752963
0.7991
0.74094
0.828366
0.810762
0.798494
0.677794
0.826308
0.831939
0.823285
0.804022
0.805262
0.834089
0.805056
0.735333
0.794014
0.803582
0.826238
0.824817
0.823672
0.877151
0.837209
0.811248
0.841033
0.706928
0.833347
0.845993
0.827221
0.655025
0.826647
0.811182
0.853149
0.831573
0.803786
0.627964
0.812106
0.726174
0.80782
0.803461
0.814571
0.82517
0.827131
0.806577
0.813607
0.826947
0.747979
0.869207
0.802711
0.857439
0.827227
0.636834
0.805119
0.79968
0.822902
0.828441
0.697345
0.803571
0.811518
0.815034
0.808882
0.796411
0.826847
0.828055
0.807977
0.80614
0.831562
0.844162
0.752922
0.808022
0.812049
0.824198
0.702656
0.806972
0.826442
0.800517
0.805721
0.640399
0.841801
0.779955
0.826271
0.828489
0.8398
0.85329
0.82693
0.823056
0.737498
0.800247
0.858659
0.819712
0.726233
0.801355
0.803185
0.877727
0.852975
0.829619
0.802734
0.811988
0.768574
0.826618
0.816052
0.623781
0.803946
0.753674
0.757002
0.804635
0.822774
0.785386
0.823957
0.826562
0.84019
0.826568
0.802512
0.819654
0.743065
0.753626
0.805467
0.819161
0.830816
0.803773
0.758616
0.719404
0.825132
0.817359
0.816279
0.631938
0.825149
0.826187
0.834513
0.80418
0.819173
0.829797
0.814069
0.847688
0.803933
0.814728
0.833048
0.826844
0.826892
0.830403
0.722541
0.788655
0.805408
0.804203
0.855145
0.802842
0.812846
0.660986
0.820468
0.8247
0.812871
0.829625
0.807396
0.824676
0.742076
0.851471
0.711051
0.801763
0.828199
0.809045
0.70007
0.676116
0.817861
0.807338
0.806031
0.797992
0.802451
0.838417
0.824394
0.806445
0.803516
0.823386
0.647222
0.823732
0.80469
0.727896
0.826168
0.681114
0.797296
0.826555
0.845026
0.817238
0.824017
0.804782
0.806362
0.80583
0.802422
0.82344
0.813249
0.820288
0.804041
0.761467
0.805655
0.824115
0.823551
0.825942
0.822996
0.827032
0.826402
0.841642
0.757067
0.808589
0.826795
0.804015
0.603777
0.718028
0.813659
0.824856
0.826529
0.784797
0.810738
0.815191
0.804856
0.801979
0.80423
0.829081
0.83004
0.826451
0.797535
0.818805
0.817026
0.655098
0.780644
0.768687
0.815645
0.749751
0.714438
0.798835
0.774592
0.836988
0.826528
0.826216
0.810727
0.601316
0.818049
0.622191
0.727977
0.834476
0.8751
0.762628
0.827418
0.859893
0.71882
0.826432
0.811495
0.817046
0.810066
0.68095
0.861556
0.743563
0.754124
0.805424
0.806033
0.800639
0.835282
0.826607
0.71459
0.824765
0.80154
0.724861
0.847781
0.799541
0.653872
0.779716
0.826836
0.819116
0.826277
0.78819
0.74879
0.785364
0.83915
0.707507
0.827112
0.827412
0.836486
0.777474
0.832225
0.72192
0.806065
0.683958
0.718474
0.81026
0.825117
0.801252
0.826225
0.826643
0.826584
0.825634
0.624299
0.803129
0.82658
0.757052
0.812134
0.826651
0.82331
0.719279
0.691631
0.755152
0.668175
0.810089
0.707194
0.826899
0.8026
0.826463
0.839084
0.689314
0.814495
0.82974
0.840011
0.759953
0.794477
0.768813
0.784589
0.82303
0.659518
0.671656
0.826661
0.806938
0.822922
0.805994
0.738236
0.791409
0.744539
0.764678
0.801246
0.840914
0.814395
0.709222
0.833378
0.827129
0.822315
0.720906
0.692523
0.709315
0.877833
0.827023
0.82715
0.644797
0.728518
0.66809
0.805168
0.801355
0.694227
0.814198
0.832565
0.768731
0.801355
0.746483
0.825467
0.710733
0.826341
0.813062
0.812551
0.803718
0.83356
0.758545
0.826972
0.826535
0.78561
0.644869
0.818831
0.822198
0.769132
0.825535
0.751778
0.804739
0.835126
0.699593
0.828872
0.803246
0.812648
0.634248
0.674587
0.752052
0.808093
0.823282
0.82216
0.831293
0.817275
0.827054
0.72151
0.802612
0.824146
0.835751
0.72109
0.751082
0.823719
0.821731
0.720437
0.817006
0.785861
0.704269
0.814003
0.714514
0.815207
0.685781
0.803358
0.734828
0.69918
0.822366
0.790588
0.76041
0.658477
0.847661
0.823426
0.825665
0.782347
0.825838
0.801193
0.796935
0.801294
0.803582
0.825761
0.755317
0.811968
0.80132
0.829416
0.635595
0.803058
0.823825
0.824654
0.822701
0.823157
0.758051
0.813298
0.771258
0.762496
0.829174
0.690748
0.829066
0.828285
0.803733
0.826354
0.827523
0.743513
0.772522
0.832194
0.797093
0.805478
0.826823
0.880225
0.828286
0.810121
0.827798
0.826676
0.796564
0.829173
0.827171
0.780015
0.730106
0.849313
0.800203
0.803822
0.824773
0.79218
0.828608
0.826923
0.829311
0.827846
0.8763
0.803777
0.806768
0.828968
0.803752
0.826626
0.808849
0.752514
0.826518
0.830207
0.758005
0.73676
0.826372
0.845313
0.824492
0.700386
0.83197
0.78017
0.81959
0.803528
0.74784
0.80357
0.800008
0.817688
0.827353
0.71147
0.73439
0.803585
0.791426
0.803542
0.832915
0.726286
0.826515
0.803939
0.801971
0.831484
0.826747
0.739602
0.826791
0.771743
0.804171
0.834699
0.804587
0.786272
0.800986
0.797726
0.826441
0.66352
0.826546
0.694754
0.712186
0.804707
0.830068
0.826539
0.803664
0.826492
0.818413
0.747518
0.791152
0.86384
0.803657
0.841064
0.809706
0.633758
0.766279
0.793679
0.686719
0.75782
0.626885
0.8284
0.82492
0.823837
0.803187
0.772235
0.710513
0.779755
0.756544
0.787101
0.826523
0.846807
0.829928
0.807668
0.821622
0.831796
0.80424
0.809938
0.724946
0.804567
0.769045
0.810652
0.79923
0.769011
0.831391
0.792457
0.804838
0.802387
0.848237
0.73925
0.802097
0.801049
0.806525
0.645039
0.826765
0.826674
0.82424
0.680629
0.826584
0.826528
0.799883
0.805176
0.796504
0.789104
0.808705
0.806429
0.827118
0.757555
0.814952
0.880429
0.772358
0.765025
0.817884
0.787832
0.85053
0.8113
0.793499
0.825727
0.800523
0.796127
0.810126
0.835276
0.844317
0.801732
0.618725
0.830689
0.837403
0.777439
0.839853
0.846069
0.832752
0.835692
0.809429
0.841468
0.836377
0.788099
0.811306
0.822699
0.817475
0.83275
0.80453
0.829358
0.796546
0.805515
0.808343
0.74828
0.809513
0.613897
0.828655
0.835033
0.837951
0.808029
0.82046
0.833796
0.821523
0.831114
0.847066
0.841954
0.800378
0.801311
0.83188
0.826369
0.827855
0.80162
0.808315
0.871548
0.830452
0.854866
0.826183
0.801921
0.826614
0.802852
0.835492
0.8245
0.825764
0.807002
0.746031
0.803968
0.806022
0.826374
0.804886
0.811622
0.824117
0.807465
0.805575
0.78343
0.821794
0.730183
0.816507
0.794037
0.767975
0.804786
0.815369
0.821246
0.740351
0.829839
0.817305
0.828524
0.827788
0.800028
0.827344
0.849137
0.835271
0.824546
0.813776
0.802677
0.762193
0.714167
0.82655
0.823096
0.785081
0.82523
0.809723
0.82295
0.807213
0.799869
0.781649
0.803124
0.801224
0.848981
0.828196
0.813597
0.809038
0.636801
0.747771
0.804023
0.796001
0.805787
0.826563
0.807783
0.827175
0.785119
0.826576
0.80652
0.821972
0.805334
0.828476
0.803584
0.827017
0.822037
0.826803
0.823784
0.740722
0.825192
0.826883
0.632394
0.82638
0.799595
0.804542
0.86529
0.828578
0.821921
0.877918
0.82642
0.826534
0.82777
0.829382
0.825989
0.771488
0.832165
0.802917
0.804251
0.825118
0.826477
0.827682
0.826455
0.824152
0.82507
0.805292
0.823353
0.811026
0.817516
0.822059
0.8265
0.822746
0.829632
0.81112
0.695902
0.692165
0.803628
0.810854
0.804448
0.822347
0.828831
0.827621
0.803872
0.805991
0.801927
0.801937
0.827579
0.851326
0.829163
0.813792
0.828982
0.828839
0.847955
0.828025
0.823314
0.790041
0.826546
0.808588
0.803279
0.79546
0.821547
0.82904
0.826343
0.826253
0.837795
0.816988
0.824145
0.827259
0.823651
0.804626
0.804503
0.807115
0.822214
0.826396
0.802588
0.814054
0.827794
0.824531
0.802195
0.659027
0.805546
0.806646
0.819541
0.801716
0.804042
0.761697
0.848903
0.804617
0.800885
0.843444
0.838919
0.812229
0.835792
0.801671
0.828535
0.82765
0.829275
0.804727
0.828913
0.751931
0.832367
0.813661
0.801402
0.815209
0.830825
0.801665
0.805225
0.79507
0.817163
0.826662
0.82674
0.829073
0.80808
0.827932
0.826868
0.834774
0.823963
0.846037
0.807709
0.712856
0.828494
0.847636
0.830174
0.80627
0.801035
0.80486
0.826461
0.816194
0.826977
0.752
0.760105
0.802097
0.804654
0.826697
0.827132
0.810426
0.691751
0.725004
0.809843
0.772747
0.82697
0.713198
0.80364
0.743586
0.803629
0.822206
0.803594
0.828092
0.823968
0.800159
0.810485
0.805164
0.831829
0.826749
0.802613
0.804836
0.826697
0.831645
0.765947
0.831793
0.804886
0.786569
0.826653
0.805055
0.812761
0.82616
0.826309
0.843557
0.804523
0.799973
0.826559
0.771387
0.808482
0.82625
0.802732
0.826883
0.843011
0.803639
0.850658
0.818375
0.800543
0.823245
0.803148
0.853633
0.792113
0.803953
0.827075
0.840579
0.810153
0.825003
0.826788
0.803866
0.803637
0.827903
0.793307
0.825526
0.826481
0.69285
0.826644
0.728615
0.819624
0.846131
0.83406
0.806826
0.82593
0.826502
0.743007
0.826185
0.802566
0.802282
0.802064
0.82668
0.869979
0.80234
0.802354
0.789504
0.848779
0.829821
0.829863
0.824245
0.760711
0.81406
0.803625
0.746073
0.80114
0.731157
0.821655
0.80196
0.698352
0.885137
0.718808
0.775922
0.803384
0.761584
0.810191
0.800146
0.803504
0.684675
0.798712
0.788636
0.800361
0.752811
0.829148
0.832436
0.88916
0.811308
0.833505
0.671613
0.801459
0.797484
0.764888
0.76474
0.784454
0.732167
0.804358
0.80072
0.804447
0.773046
0.658346
0.8134
0.648457
0.830592
0.830853
0.813425
0.74482
0.821322
0.807356
0.829081
0.787433
0.818344
0.798994
0.821124
0.732824
0.802615
0.740942
0.802438
0.799916
0.719551
0.805156
0.826502
0.826534
0.803784
0.773934
0.826239
0.73668
0.710259
0.803109
0.826546
0.879871
0.826491
0.825606
0.885344
0.871024
0.838472
0.721653
0.803043
0.813826
0.823637
0.809106
0.715117
0.738078
0.71312
0.802989
0.706797
0.776508
0.80044
0.67486
0.691887
0.843459
0.786379
0.761417
0.839239
0.773592
0.773066
0.677201
0.749374
0.796789
0.829057
0.874911
0.845203
0.826639
0.805426
0.800717
0.736364
0.826609
0.713468
0.799948
0.826561
0.786884
0.775161
0.811949
0.794467
0.803833
0.801756
0.822761
0.813442
0.872812
0.662496
0.629485
0.803321
0.816941
0.72249
0.812258
0.803643
0.845133
0.804584
0.802933
0.624985
0.64801
0.810927
0.82343
0.826569
0.750345
0.803681
0.820328
0.712116
0.822606
0.803381
0.825307
0.803553
0.81016
0.802813
0.825747
0.803385
0.819224
0.804286
0.868194
0.826097
0.803025
0.725569
0.702473
0.826408
0.637292
0.822516
0.812174
0.843762
0.824629
0.804024
0.812746
0.824811
0.824151
0.826406
0.802272
0.855732
0.863066
0.803966
0.694799
0.819151
0.824403
0.800824
0.803833
0.829511
0.757123
0.803584
0.833835
0.830588
0.826329
0.826316
0.778395
0.749986
0.802506
0.84218
0.804777
0.824144
0.806478
0.80566
0.807057
0.825412
0.810976
0.800128
0.808906
0.80807
0.826601
0.808597
0.808078
0.828133
0.808931
0.803663
0.824545
0.803427
0.803311
0.807505
0.809936
0.824659
0.780271
0.80693
0.8034
0.826567
0.800615
0.804864
0.809021
0.840309
0.806519
0.694023
0.801696
0.826139
0.806036
0.816833
0.771644
0.826008
0.762527
0.804677
0.802795
0.805247
0.821066
0.858079
0.805642
0.803603
0.751478
0.838356
0.826477
0.830421
0.826834
0.825043
0.753302
0.828548
0.744789
0.80311
0.836618
0.803141
0.727348
0.8351
0.824709
0.827216
0.833606
0.826668
0.779805
0.827803
0.696443
0.738352
0.826553
0.832306
0.714697
0.829628
0.681969
0.831297
0.809031
0.827434
0.803595
0.807766
0.825001
0.833829
0.826979
0.666523
0.824571
0.849898
0.786506
0.853763
0.801475
0.735751
0.846703
0.829805
0.844033
0.723109
0.718322
0.841632
0.70343
0.839584
0.826527
0.83778
0.808622
0.836263
0.791704
0.834941
0.833722
0.736775
0.871724
0.832681
0.831806
0.825512
0.773592
0.803599
0.631395
0.814251
0.831054
0.824879
0.807292
0.835349
0.826605
0.799122
0.830396
0.803669
0.714191
0.795657
0.836218
0.825856
0.742139
0.810634
0.82349
0.63984
0.826124
0.8268
0.805424
0.811898
0.749442
0.827401
0.803578
0.804417
0.798598
0.805805
0.801082
0.797787
0.803561
0.824052
0.821285
0.825332
0.61661
0.89724
0.726503
0.800134
0.759648
0.795109
0.826573
0.82686
0.826798
0.643039
0.829146
0.819178
0.805339
0.827984
0.838724
0.841415
0.787253
0.800054
0.801405
0.750239
0.770121
0.826604
0.776311
0.817158
0.829497
0.826182
0.815451
0.802704
0.789197
0.81398
0.827164
0.740236
0.812501
0.827001
0.82877
0.809681
0.811333
0.780099
0.826137
0.810033
0.803977
0.80921
0.656204
0.808238
0.805823
0.80759
0.831379
0.847359
0.806266
0.788953
0.806894
0.776948
0.830494
0.816962
0.824381
0.82659
0.851891
0.804388
0.752881
0.821778
0.826608
0.744629
0.80269
0.827277
0.765213
0.824282
0.612943
0.808444
0.70487
0.803055
0.819965
0.823675
0.828063
0.805546
0.825775
0.828284
0.802344
0.806554
0.846352
0.827169
0.798858
0.826781
0.804089
0.803639
0.801347
0.80261
0.817798
0.826096
0.803013
0.785253
0.82899
0.821728
0.810893
0.826593
0.627578
0.806146
0.815764
0.826615
0.800038
0.765596
0.722979
0.824122
0.826436
0.83537
0.801989
0.640975
0.783411
0.683991
0.82767
0.749287
0.823873
0.832524
0.727805
0.800836
0.842373
0.768931
0.802237
0.803867
0.82657
0.81169
0.717314
0.80181
0.628835
0.803298
0.803435
0.803496
0.659427
0.803553
0.8045
0.804339
0.743403
0.752572
0.804526
0.788086
0.826841
0.738694
0.724721
0.826388
0.803115
0.766389
0.860377
0.825383
0.823904
0.693269
0.804274
0.801501
0.801539
0.803102
0.687417
0.804358
0.826603
0.680554
0.706848
0.808598
0.80102
0.826544
0.831337
0.826154
0.826384
0.827354
0.804875
0.826571
0.826064
0.822218
0.831397
0.804226
0.802911
0.812569
0.751263
0.811528
0.825924
0.868554
0.820234
0.667886
0.789283
0.803135
0.781659
0.827605
0.823005
0.837793
0.816385
0.87033
0.803864
0.825757
0.637535
0.817986
0.841488
0.80345
0.825811
0.658364
0.826177
0.803343
0.827563
0.802897
0.828236
0.826991
0.758916
0.805103
0.803525
0.842827
0.867938
0.821787
0.827168
0.729752
0.762552
0.803246
0.804072
0.814361
0.828642
0.800611
0.80383
0.82976
0.817468
0.809352
0.744244
0.803452
0.827975
0.824472
0.776401
0.764761
0.822559
0.799616
0.863482
0.734991
0.842497
0.82194
0.715368
0.802345
0.825617
0.790874
0.801542
0.802693
0.826285
0.790068
0.778325
0.824796
0.700978
0.799746
0.779551
0.826215
0.828093
0.803158
0.799286
0.755964
0.767879
0.785178
0.826045
0.829454
0.816795
0.686483
0.812628
0.806736
0.78221
0.81232
0.824323
0.802125
0.805167
0.683727
0.806031
0.806688
0.858529
0.80489
0.811261
0.841488
0.807403
0.821241
0.859138
0.661998
0.805294
0.82721
0.807217
0.806724
0.807633
0.806039
0.806287
0.805568
0.807855
0.808442
0.744219
0.807886
0.809171
0.816976
0.826012
0.810318
0.828198
0.803576
0.804727
0.825798
0.825881
0.821267
0.803641
0.81855
0.815488
0.819897
0.826994
0.731301
0.825221
0.839988
0.826256
0.861254
0.762843
0.819041
0.826514
0.80285
0.673423
0.804167
0.783674
0.832004
0.653025
0.826777
0.838298
0.826101
0.821957
0.803022
0.829591
0.828016
0.805017
0.77677
0.827886
0.765096
0.61038
0.825934
0.696053
0.720981
0.822545
0.836697
0.836782
0.827569
0.854885
0.660203
0.878397
0.807596
0.835243
0.833816
0.824095
0.711558
0.826342
0.832503
0.827367
0.803074
0.777367
0.824323
0.621677
0.823288
0.850945
0.804335
0.847732
0.831455
0.803549
0.704053
0.845382
0.830568
0.844862
0.802171
0.824101
0.803491
0.842505
0.803762
0.824181
0.840336
0.838423
0.824048
0.834111
0.832944
0.743242
0.701446
0.646395
0.83679
0.83545
0.775224
0.767066
0.817567
0.834196
0.848624
0.645651
0.833072
0.832124
0.831339
0.830036
0.806506
0.822797
0.701014
0.75862
0.830655
0.798885
0.871749
0.894665
0.782432
0.815121
0.690524
0.837532
0.750184
0.743458
0.82116
0.804485
0.788182
0.705169
0.80287
0.826446
0.792667
0.739714
0.811898
0.819184
0.80118
0.71388
0.831435
0.796416
0.826903
0.841924
0.817188
0.807496
0.827232
0.827051
0.790039
0.805475
0.739292
0.842528
0.796138
0.821996
0.786784
0.805936
0.723064
0.801632
0.815511
0.814102
0.812892
0.811365
0.810218
0.809408
0.807681
0.806439
0.808535
0.749431
0.807049
0.802166
0.798452
0.804382
0.846303
0.742189
0.804016
0.781284
0.888544
0.856384
0.800153
0.747948
0.805104
0.800762
0.735542
0.804431
0.803208
0.755898
0.80582
0.802303
0.798772
0.80243
0.747931
0.793113
0.815252
0.765941
0.770755
0.784267
0.802787
0.825889
0.810444
0.775211
0.759405
0.801338
0.825251
0.804183
0.802796
0.801928
0.930959
0.866379
0.828069
0.826474
0.727824
0.851749
0.760804
0.828271
0.824929
0.902087
0.826567
0.798485
0.629594
0.826563
0.798638
0.826563
0.799079
0.852235
0.627944
0.841415
0.802977
0.807494
0.807654
0.80552
0.857761
0.802294
0.828143
0.718202
0.651413
0.686419
0.826574
0.6136
0.799008
0.743358
0.84866
0.817603
0.602096
0.811553
0.82599
0.825743
0.734737
0.803165
0.586237
0.798761
0.826637
0.798922
0.803655
0.799196
0.826733
0.841358
0.803544
0.800008
0.827003
0.800311
0.827111
0.816556
0.800634
0.827238
0.825081
0.827391
0.800846
0.827565
0.698584
0.801084
0.827764
0.803716
0.801319
0.827965
0.724987
0.826513
0.799405
0.826577
0.801616
0.821112
0.840514
0.867769
0.801901
0.80252
0.828733
0.817575
0.802122
0.801709
0.865355
0.821443
0.828465
0.821552
0.856633
0.837864
0.827472
0.828065
0.853902
0.82648
0.803778
0.829764
0.820459
0.804244
0.826309
0.80165
0.816447
0.786687