# vtk DataFile Version 1.0
unstructured grid
ascii
DATASET UNSTRUCTURED_GRID
points 3920 float
-1 0 0
-1 1 0
2 0 0
2 1 0
0 0 0
1 0 0
-1 1 0.1
-1 0 0.1
0 0 0.1
1 0 0.1
2 0 0.1
2 1 0.1
-0.98 0 0
-0.96 0 0
-0.94 0 0
-0.92 0 0
-0.9 0 0
-0.88 0 0
-0.86 0 0
-0.84 0 0
-0.82 0 0
-0.8 0 0
-0.78 0 0
-0.76 0 0
-0.74 0 0
-0.72 0 0
-0.7 0 0
-0.68 0 0
-0.66 0 0
-0.64 0 0
-0.62 0 0
-0.6 0 0
-0.58 0 0
-0.56 0 0
-0.54 0 0
-0.52 0 0
-0.5 0 0
-0.48 0 0
-0.46 0 0
-0.44 0 0
-0.42 0 0
-0.4 0 0
-0.38 0 0
-0.36 0 0
-0.34 0 0
-0.32 0 0
-0.3 0 0
-0.28 0 0
-0.26 0 0
-0.24 0 0
-0.22 0 0
-0.2 0 0
-0.18 0 0
-0.16 0 0
-0.14 0 0
-0.12 0 0
-0.1 0 0
-0.08 0 0
-0.06 0 0
-0.04 0 0
-0.02 0 0
1.02 0 0
1.04 0 0
1.06 0 0
1.08 0 0
1.1 0 0
1.12 0 0
1.14 0 0
1.16 0 0
1.18 0 0
1.2 0 0
1.22 0 0
1.24 0 0
1.26 0 0
1.28 0 0
1.3 0 0
1.32 0 0
1.34 0 0
1.36 0 0
1.38 0 0
1.4 0 0
1.42 0 0
1.44 0 0
1.46 0 0
1.48 0 0
1.5 0 0
1.52 0 0
1.54 0 0
1.56 0 0
1.58 0 0
1.6 0 0
1.62 0 0
1.64 0 0
1.66 0 0
1.68 0 0
1.7 0 0
1.72 0 0
1.74 0 0
1.76 0 0
1.78 0 0
1.8 0 0
1.82 0 0
1.84 0 0
1.86 0 0
1.88 0 0
1.9 0 0
1.92 0 0
1.94 0 0
1.96 0 0
1.98 0 0
2 0.0199133 0
2 0.0414128 0
2 0.0646247 0
2 0.0896856 0
2 0.116743 0
2 0.145955 0
2 0.177494 0
2 0.211545 0
2 0.248309 0
2 0.288001 0
2 0.330854 0
2 0.377121 0
2 0.427073 0
2 0.481004 0
2 0.539231 0
2 0.602096 0
2 0.669968 0
2 0.743247 0
2 0.822362 0
2 0.907779 0
1.9 1 0
1.8 1 0
1.7 1 0
1.6 1 0
1.5 1 0
1.4 1 0
1.3 1 0
1.2 1 0
1.1 1 0
1 1 0
0.9 1 0
0.8 1 0
0.7 1 0
0.6 1 0
0.5 1 0
0.4 1 0
0.3 1 0
0.2 1 0
0.1 1 0
3.69793e-12 1 0
-0.1 1 0
-0.2 1 0
-0.3 1 0
-0.4 1 0
-0.5 1 0
-0.6 1 0
-0.7 1 0
-0.8 1 0
-0.9 1 0
-1 0.907779 0
-1 0.822362 0
-1 0.743247 0
-1 0.669968 0
-1 0.602096 0
-1 0.539231 0
-1 0.481004 0
-1 0.427073 0
-1 0.377121 0
-1 0.330854 0
-1 0.288001 0
-1 0.248309 0
-1 0.211545 0
-1 0.177494 0
-1 0.145955 0
-1 0.116743 0
-1 0.0896856 0
-1 0.0646247 0
-1 0.0414128 0
-1 0.0199133 0
0.0182781 0.00745351 0
0.0366672 0.0146286 0
0.0551632 0.0215237 0
0.0737617 0.0281372 0
0.0924585 0.0344675 0
0.111249 0.0405131 0
0.13013 0.0462728 0
0.149095 0.0517451 0
0.168142 0.0569289 0
0.187265 0.0618228 0
0.20646 0.0664258 0
0.225723 0.0707368 0
0.245049 0.0747549 0
0.264434 0.078479 0
0.283873 0.0819084 0
0.303362 0.0850422 0
0.322896 0.0878798 0
0.342472 0.0904204 0
0.362083 0.0926635 0
0.381726 0.0946086 0
0.401397 0.0962552 0
0.42109 0.0976029 0
0.440802 0.0986514 0
0.460527 0.0994006 0
0.480261 0.0998501 0
0.5 0.1 0
0.519739 0.0998501 0
0.539473 0.0994006 0
0.559198 0.0986514 0
0.57891 0.0976029 0
0.598603 0.0962552 0
0.618274 0.0946086 0
0.637917 0.0926635 0
0.657528 0.0904204 0
0.677104 0.0878798 0
0.696638 0.0850422 0
0.716127 0.0819084 0
0.735566 0.078479 0
0.754951 0.0747549 0
0.774277 0.0707368 0
0.79354 0.0664258 0
0.812735 0.0618228 0
0.831858 0.0569289 0
0.850905 0.0517451 0
0.86987 0.0462728 0
0.888751 0.0405131 0
0.907542 0.0344675 0
0.926238 0.0281372 0
0.944837 0.0215237 0
0.963333 0.0146286 0
0.981722 0.00745351 0
-1 0.907779 0.1
-1 0.822362 0.1
-1 0.743247 0.1
-1 0.669968 0.1
-1 0.602096 0.1
-1 0.539231 0.1
-1 0.481004 0.1
-1 0.427073 0.1
-1 0.377121 0.1
-1 0.330854 0.1
-1 0.288001 0.1
-1 0.248309 0.1
-1 0.211545 0.1
-1 0.177494 0.1
-1 0.145955 0.1
-1 0.116743 0.1
-1 0.0896856 0.1
-1 0.0646247 0.1
-1 0.0414128 0.1
-1 0.0199133 0.1
-0.98 0 0.1
-0.96 0 0.1
-0.94 0 0.1
-0.92 0 0.1
-0.9 0 0.1
-0.88 0 0.1
-0.86 0 0.1
-0.84 0 0.1
-0.82 0 0.1
-0.8 0 0.1
-0.78 0 0.1
-0.76 0 0.1
-0.74 0 0.1
-0.72 0 0.1
-0.7 0 0.1
-0.68 0 0.1
-0.66 0 0.1
-0.64 0 0.1
-0.62 0 0.1
-0.6 0 0.1
-0.58 0 0.1
-0.56 0 0.1
-0.54 0 0.1
-0.52 0 0.1
-0.5 0 0.1
-0.48 0 0.1
-0.46 0 0.1
-0.44 0 0.1
-0.42 0 0.1
-0.4 0 0.1
-0.38 0 0.1
-0.36 0 0.1
-0.34 0 0.1
-0.32 0 0.1
-0.3 0 0.1
-0.28 0 0.1
-0.26 0 0.1
-0.24 0 0.1
-0.22 0 0.1
-0.2 0 0.1
-0.18 0 0.1
-0.16 0 0.1
-0.14 0 0.1
-0.12 0 0.1
-0.1 0 0.1
-0.08 0 0.1
-0.06 0 0.1
-0.04 0 0.1
-0.02 0 0.1
0.0182781 0.00745351 0.1
0.0366672 0.0146286 0.1
0.0551632 0.0215237 0.1
0.0737617 0.0281372 0.1
0.0924585 0.0344675 0.1
0.111249 0.0405131 0.1
0.13013 0.0462728 0.1
0.149095 0.0517451 0.1
0.168142 0.0569289 0.1
0.187265 0.0618228 0.1
0.20646 0.0664258 0.1
0.225723 0.0707368 0.1
0.245049 0.0747549 0.1
0.264434 0.078479 0.1
0.283873 0.0819084 0.1
0.303362 0.0850422 0.1
0.322896 0.0878798 0.1
0.342472 0.0904204 0.1
0.362083 0.0926635 0.1
0.381726 0.0946086 0.1
0.401397 0.0962552 0.1
0.42109 0.0976029 0.1
0.440802 0.0986514 0.1
0.460527 0.0994006 0.1
0.480261 0.0998501 0.1
0.5 0.1 0.1
0.519739 0.0998501 0.1
0.539473 0.0994006 0.1
0.559198 0.0986514 0.1
0.57891 0.0976029 0.1
0.598603 0.0962552 0.1
0.618274 0.0946086 0.1
0.637917 0.0926635 0.1
0.657528 0.0904204 0.1
0.677104 0.0878798 0.1
0.696638 0.0850422 0.1
0.716127 0.0819084 0.1
0.735566 0.078479 0.1
0.754951 0.0747549 0.1
0.774277 0.0707368 0.1
0.79354 0.0664258 0.1
0.812735 0.0618228 0.1
0.831858 0.0569289 0.1
0.850905 0.0517451 0.1
0.86987 0.0462728 0.1
0.888751 0.0405131 0.1
0.907542 0.0344675 0.1
0.926238 0.0281372 0.1
0.944837 0.0215237 0.1
0.963333 0.0146286 0.1
0.981722 0.00745351 0.1
1.02 0 0.1
1.04 0 0.1
1.06 0 0.1
1.08 0 0.1
1.1 0 0.1
1.12 0 0.1
1.14 0 0.1
1.16 0 0.1
1.18 0 0.1
1.2 0 0.1
1.22 0 0.1
1.24 0 0.1
1.26 0 0.1
1.28 0 0.1
1.3 0 0.1
1.32 0 0.1
1.34 0 0.1
1.36 0 0.1
1.38 0 0.1
1.4 0 0.1
1.42 0 0.1
1.44 0 0.1
1.46 0 0.1
1.48 0 0.1
1.5 0 0.1
1.52 0 0.1
1.54 0 0.1
1.56 0 0.1
1.58 0 0.1
1.6 0 0.1
1.62 0 0.1
1.64 0 0.1
1.66 0 0.1
1.68 0 0.1
1.7 0 0.1
1.72 0 0.1
1.74 0 0.1
1.76 0 0.1
1.78 0 0.1
1.8 0 0.1
1.82 0 0.1
1.84 0 0.1
1.86 0 0.1
1.88 0 0.1
1.9 0 0.1
1.92 0 0.1
1.94 0 0.1
1.96 0 0.1
1.98 0 0.1
2 0.0199133 0.1
2 0.0414128 0.1
2 0.0646247 0.1
2 0.0896856 0.1
2 0.116743 0.1
2 0.145955 0.1
2 0.177494 0.1
2 0.211545 0.1
2 0.248309 0.1
2 0.288001 0.1
2 0.330854 0.1
2 0.377121 0.1
2 0.427073 0.1
2 0.481004 0.1
2 0.539231 0.1
2 0.602096 0.1
2 0.669968 0.1
2 0.743247 0.1
2 0.822362 0.1
2 0.907779 0.1
1.9 1 0.1
1.8 1 0.1
1.7 1 0.1
1.6 1 0.1
1.5 1 0.1
1.4 1 0.1
1.3 1 0.1
1.2 1 0.1
1.1 1 0.1
1 1 0.1
0.9 1 0.1
0.8 1 0.1
0.7 1 0.1
0.6 1 0.1
0.5 1 0.1
0.4 1 0.1
0.3 1 0.1
0.2 1 0.1
0.1 1 0.1
3.69793e-12 1 0.1
-0.1 1 0.1
-0.2 1 0.1
-0.3 1 0.1
-0.4 1 0.1
-0.5 1 0.1
-0.6 1 0.1
-0.7 1 0.1
-0.8 1 0.1
-0.9 1 0.1
1.08758 0.0158154 0
-0.0898513 0.0203294 0
0.0966181 0.0537636 0
0.90205 0.0548881 0
1.21055 0.0202058 0
-0.209811 0.0159577 0
1.3305 0.0176902 0
-0.33 0.0173205 0
1.45324 0.0148141 0
-0.448654 0.0159854 0
1.56842 0.0191785 0
-0.569936 0.0166364 0
0.193292 0.0805369 0
0.805051 0.0813623 0
0.709096 0.100353 0
0.288591 0.0996656 0
0.390184 0.111848 0
0.61033 0.111742 0
0.488809 0.116278 0
1.67175 0.0169692 0
-0.67 0.0169809 0
-0.955017 0.454039 0
1.95131 0.44569 0
1.74981 0.0168753 0
-0.75 0.0173205 0
-0.968032 0.266538 0
1.96871 0.266267 0
0.978232 0.0305687 0
0.0208675 0.026451 0
-0.150454 0.91842 0
1.13854 0.907437 0
1.45012 0.904365 0
-0.445923 0.908903 0
-0.853423 0.0157019 0
1.84881 0.016319 0
0.853689 0.915652 0
0.153944 0.912184 0
0.545151 0.914125 0
0.549913 0.115152 0
1.51 0.0173205 0
-0.506989 0.01651 0
1.27 0.0173205 0
1.14976 0.0173333 0
-0.268171 0.0206442 0
-0.150501 0.0153244 0
-0.391384 0.0153993 0
1.38886 0.0171544 0
-0.973694 0.161724 0
1.97441 0.162392 0
-0.945221 0.633523 0
1.94544 0.63312 0
1.91008 0.0186068 0
-0.91 0.0169616 0
-0.030664 0.0194327 0
1.03074 0.0165456 0
-0.966065 0.353575 0
1.96128 0.359765 0
1.93879 0.781254 0
-0.937057 0.781882 0
-0.980746 0.080709 0
1.9772 0.0760699 0
0.058735 0.0409372 0
0.355202 0.913001 0
0.86356 0.0661005 0
0.134223 0.0651111 0
0.941972 0.0397386 0
-0.653034 0.915003 0
1.65328 0.904589 0
0.770126 0.0881325 0
0.232946 0.0902008 0
0.330582 0.105648 0
0.670612 0.108365 0
0.428707 0.116145 0
1.80993 0.016629 0
-0.810168 0.0172178 0
-0.71 0.0173205 0
1.63047 0.0175504 0
1.70842 0.0169661 0
-0.628824 0.0181787 0
-0.949815 0.0133898 0
1.95 0.0173205 0
1.85542 0.907891 0
-0.85 0.913397 0
1.9833 0.0307692 0
-0.983315 0.0309709 0
-0.750025 0.916468 0
-0.701107 0.836904 0
-0.607741 0.836428 0
-0.656448 0.759827 0
-0.572936 0.758144 0
-0.61411 0.691195 0
-0.539534 0.689068 0
-0.578542 0.626111 0
-0.507461 0.624216 0
-0.544001 0.566638 0
-0.477696 0.564279 0
-0.511582 0.51001 0
-0.451689 0.507147 0
-0.481834 0.457732 0
-0.426137 0.454624 0
-0.453236 0.407539 0
-0.398845 0.406233 0
-0.507958 0.409496 0
-0.368427 0.460177 0
-0.344602 0.405209 0
-0.315696 0.447824 0
-0.294128 0.402169 0
-0.262844 0.444518 0
-0.241968 0.388746 0
-0.209878 0.439557 0
-0.185184 0.391135 0
-0.156687 0.437338 0
-0.133719 0.390776 0
-0.104405 0.434306 0
-0.0818745 0.388334 0
-0.0528785 0.431165 0
-0.0305984 0.385639 0
-0.00180552 0.427863 0
0.0194564 0.382608 0
0.0485809 0.42449 0
0.0701962 0.37973 0
0.0985483 0.421145 0
0.119893 0.377339 0
0.147837 0.417911 0
0.172552 0.36751 0
0.197018 0.412597 0
0.221203 0.37141 0
0.24512 0.409646 0
-0.48178 0.364657 0
-0.531053 0.364782 0
-0.0599102 0.344151 0
-0.324909 0.359566 0
0.266181 0.368462 0
0.292132 0.407649 0
0.311992 0.365779 0
0.338918 0.404821 0
0.357567 0.355909 0
0.384723 0.40053 0
0.404675 0.359681 0
0.430617 0.398558 0
0.450457 0.35827 0
0.474237 0.395182 0
0.496746 0.34898 0
0.520548 0.397931 0
0.542071 0.353121 0
0.566011 0.389914 0
0.585061 0.350856 0
0.609352 0.38696 0
0.629069 0.348168 0
0.655979 0.391217 0
0.67472 0.346182 0
0.699346 0.381414 0
0.719333 0.341965 0
0.743718 0.377547 0
0.764028 0.339036 0
0.788201 0.373582 0
0.807659 0.336101 0
0.832821 0.372249 0
0.852309 0.334017 0
0.877785 0.370339 0
0.897875 0.331141 0
0.922904 0.366281 0
0.943173 0.327335 0
0.968282 0.363358 0
0.989029 0.324222 0
1.01391 0.361511 0
1.03465 0.321428 0
1.05949 0.358447 0
1.08389 0.312052 0
1.10575 0.355104 0
1.12889 0.31562 0
1.15067 0.353235 0
1.17157 0.312819 0
1.19626 0.349369 0
1.21618 0.309863 0
1.2416 0.346914 0
1.26131 0.30715 0
1.28691 0.344312 0
1.30571 0.303752 0
1.33144 0.341222 0
1.35018 0.300911 0
1.3758 0.338308 0
1.39501 0.298931 0
1.42015 0.335235 0
1.43904 0.296349 0
1.46355 0.330194 0
1.48256 0.293347 0
1.50685 0.326967 0
1.52589 0.29055 0
1.54996 0.325305 0
1.56909 0.287929 0
[...]
CELL_DATA 3694
SCALARS rho float
LOOKUP_TABLE default
0.747114
0.690855
0.80453
0.823614
0.833874
0.805968
0.793401
0.801161
0.820039
0.803513
0.827106
0.827096
0.841531
0.791452
0.801897
0.765853
0.803819
0.80377
0.77373
0.855232
0.825506
0.83173
0.72347
0.804181
0.720562
0.8405
0.72538
0.807714
0.838166
0.799476
0.799646
0.72313
0.804236
0.825971
0.803831
0.807271
0.842825
0.831428
0.832351
0.780197
0.805477
0.818537
0.835536
0.826547
0.806659
0.823527
0.802171
0.692033
0.695667
0.741662
0.802889
0.803257
0.852175
0.803364
0.677204
0.843746
0.803656
0.827403
0.833562
0.764702
0.798016
0.825865
0.848346
0.80075
0.849173
0.838306
0.808946
0.824272
0.739005
0.863597
0.8035
0.808621
0.83175
0.803791
0.832791
0.803259
0.815373
0.800551
0.823939
0.803509
0.73101
0.819742
0.802836
0.778856
0.819494
0.800527
0.826792
0.731198
0.738462
0.832027
0.808125
0.803212
0.821857
0.823773
0.690798
0.807487
0.735252
0.827459
0.82268
0.846352
0.825049
0.775931
0.720285
0.819738
0.818941
0.82586
0.827455
0.807987
0.723992
0.824185
0.80062
0.743011
0.722759
0.830409
0.872605
0.803011
0.808799
0.822494
0.803493
0.8029
0.768972
0.823689
0.828407
0.78024
0.705654
0.764943
0.826995
0.78834
0.848992
0.724499
0.770572
0.802115
0.808987
0.781537
0.802289
0.804175
0.806331
0.802938
0.798899
0.824955
0.823743
0.729657
0.826695
0.824271
0.764
0.694369
0.692855
0.799081
0.826244
0.81416
0.756659
0.803257
0.620696
0.788141
0.707288
0.776704
0.726412
0.793123
0.634074
0.795121
0.838348
0.664965
0.785258
0.748911
0.850563
0.617583
0.818427
0.801501
0.804269
0.689855
0.802004
0.684987
0.863172
0.635246
0.801224
0.680558
0.873245
0.840776
0.829247
0.747546
0.82393
0.724499
0.835119
0.740972
0.668073
0.803563
0.672099
0.831967
0.802511
0.856798
0.793926
0.70392
0.825635
0.799345
0.752298
0.853872
0.812535
0.853973
0.748363
0.755605
0.775575
0.802498
0.839335
0.83513
0.817927
0.824656
0.692637
0.805428
0.74444
0.80367
0.730588
0.805319
0.796905
0.802817
0.834069
0.77671
0.8382
0.760272
0.834022
0.828271
0.82622
0.854044
0.830443
0.728069
0.835248
0.679022
0.790425
0.819112
0.856969
0.837713
0.818309
0.796319
0.757414
0.827384
0.843522
0.827241
0.7339
0.809101
0.709778
0.801825
0.796771
0.819501
0.672727
0.808765
0.770557
0.799671
0.803447
0.770701
0.825851
0.866624
0.786162
0.691651
0.805947
0.802966
0.667331
0.802591
0.781847
0.802686
0.84462
0.825597
0.635944
0.825799
0.811561
0.80684
0.825953
0.803217
0.816483
0.822361
0.836506
0.767663
0.802439
0.842162
0.811933
0.803475
0.79781
0.825804
0.730802
0.616893
0.826639
0.830619
0.829492
0.806049
0.711762
0.82595
0.825777
0.825295
0.732652
0.805195
0.825874
0.639341
0.803277
0.873307
0.675509
0.770882
0.845357
0.833908
0.82567
0.707085
0.810571
0.825876
0.804571
0.802674
0.813405
0.842357
0.818773
0.772148
0.808134
0.80354
0.6661
0.830105
0.835967
0.695204
0.800757
0.82837
0.822038
0.698767
0.661996
0.830448
0.832514
0.810588
0.735868
0.723864
0.730248
0.749291
0.82944
0.788174
0.804961
0.749603
0.744583
0.831199
0.819855
0.820616
0.780356
0.825848
0.82446
0.827186
0.825868
0.803311
0.808741
0.805244
0.690426
0.80317
0.814055
0.719886
0.808676
0.806006
0.828833
0.788469
0.807398
0.794051
0.82577
0.830098
0.829433
0.799278
0.712407
0.732521
0.800718
0.812013
0.662498
0.80464
0.809004
0.81838
0.753527
0.805325
0.826109
0.82207
0.827536
0.805897
0.798844
0.776339
0.805802
0.85006
0.821476
0.707199
0.804776
0.726553
0.706143
0.803826
0.63688
0.775345
0.787696
0.809432
0.824363
0.832997
0.826793
0.820644
0.829442
0.836151
0.803236
0.776415
0.811043
0.68378
0.828547
0.768639
0.745559
0.709806
0.824593
0.858936
0.828567
0.810292
0.823449
0.825904
0.789591
0.77124
0.819751
0.707663
0.793041
0.84938
0.827567
0.801743
0.869073
0.814471
0.825692
0.827373
0.831902
0.665418
0.808157
0.748734
0.798955
0.738372
0.826884
0.809815
0.796401
0.674313
0.825605
0.831028
0.822477
0.803673
0.804602
0.832841
0.804598
0.730761
0.792529
0.803428
0.825528
0.823717
0.822655
0.876008
0.835938
0.810426
0.839736
0.702212
0.832139
0.844687
0.826315
0.64961
0.8259
0.810398
0.851859
0.830417
0.803428
0.621112
0.811308
0.720731
0.807081
0.803225
0.813718
0.824471
0.826197
0.805943
0.812509
0.82598
0.743477
0.868008
0.802569
0.856174
0.826218
0.624763
0.804638
0.798492
0.822013
0.827449
0.691053
0.803266
0.8107
0.814182
0.808122
0.795391
0.826049
0.827032
0.806133
0.805425
0.83037
0.842727
0.748591
0.807284
0.811221
0.823215
0.698831
0.806342
0.825211
0.800289
0.805159
0.633124
0.840503
0.776948
0.825581
0.827482
0.838486
0.851978
0.825899
0.82226
0.733272
0.800013
0.857352
0.818558
0.723264
0.801131
0.802927
0.876587
0.851684
0.828549
0.802617
0.810944
0.766139
0.825795
0.815199
0.616055
0.803544
0.749229
0.754621
0.804143
0.82193
0.783718
0.822871
0.825785
0.839322
0.825412
0.801638
0.8182
0.740882
0.750449
0.80496
0.817849
0.829478
0.803314
0.756242
0.713836
0.824423
0.816499
0.815217
0.624598
0.824416
0.824654
0.833281
0.803813
0.817616
0.828564
0.813028
0.846385
0.803533
0.813802
0.831671
0.826045
0.825315
0.828893
0.716664
0.787046
0.803447
0.803854
0.853863
0.802481
0.81102
0.656025
0.818786
0.823786
0.81206
0.82856
0.806729
0.823957
0.739349
0.850178
0.708396
0.801458
0.827232
0.808285
0.69383
0.67266
0.816969
0.80665
0.805431
0.795768
0.802022
0.83711
0.823291
0.805868
0.803128
0.822367
0.641712
0.822895
0.804176
0.722801
0.825006
0.672567
0.795019
0.82563
0.843585
0.815897
0.823272
0.802816
0.804399
0.805241
0.801963
0.822631
0.812425
0.819203
0.803727
0.759727
0.804948
0.82339
0.822812
0.824456
0.822201
0.826161
0.825685
0.840191
0.753218
0.807887
0.825937
0.803548
0.589831
0.711907
0.812815
0.824143
0.825751
0.783112
0.809927
0.814331
0.804328
0.801101
0.803773
0.827564
0.828573
0.825725
0.795293
0.817267
0.815684
0.650127
0.778671
0.765909
0.813916
0.747172
0.708077
0.798714
0.772462
0.83568
0.825837
0.825505
0.809674
0.587333
0.817161
0.6145
0.722543
0.833244
0.873921
0.758714
0.826409
0.858636
0.714318
0.825505
0.810401
0.816175
0.808838
0.676249
0.860306
0.741007
0.749692
0.804512
0.805452
0.800504
0.834376
0.82587
0.710124
0.823167
0.800967
0.719297
0.846478
0.799326
0.647735
0.77771
0.825978
0.817864
0.825547
0.786627
0.744318
0.782583
0.838195
0.703956
0.826266
0.826068
0.835226
0.775213
0.83105
0.716419
0.805484
0.679571
0.715177
0.80842
0.824217
0.799144
0.825536
0.825836
0.825828
0.824939
0.614632
0.803028
0.825891
0.754537
0.811222
0.825828
0.822539
0.716475
0.688228
0.752623
0.659467
0.80887
0.702304
0.826093
0.802504
0.825739
0.838132
0.685532
0.81269
0.828434
0.838525
0.755866
0.792174
0.767174
0.78246
0.821737
0.653101
0.66779
0.825902
0.806294
0.82159
0.805438
0.733554
0.789343
0.740491
0.762908
0.800884
0.839616
0.813561
0.705946
0.832169
0.825593
0.821426
0.714884
0.689351
0.704067
0.876688
0.826164
0.825975
0.637869
0.725328
0.662873
0.804624
0.801226
0.689997
0.813364
0.830996
0.765109
0.800904
0.742836
0.824657
0.707338
0.825647
0.811906
0.810789
0.803537
0.832005
0.755907
0.826155
0.825835
0.783889
0.635001
0.817935
0.821211
0.766368
0.824841
0.749795
0.804193
0.833682
0.694129
0.827847
0.803155
0.811443
0.624048
0.670047
0.748877
0.807406
0.8223
0.82122
0.830119
0.816392
0.826161
0.718368
0.80252
0.823086
0.834465
0.717813
0.746519
0.822937
0.820116
0.715866
0.815853
0.783745
0.701015
0.813077
0.711035
0.813561
0.681392
0.803166
0.732404
0.693119
0.821333
0.789048
0.757359
0.653072
0.846306
0.822341
0.824533
0.780128
0.825144
0.801035
0.794917
0.801034
0.802768
0.824557
0.750979
0.810974
0.801082
0.828362
0.628298
0.802612
0.82268
0.823478
0.821629
0.822046
0.755087
0.81148
0.769058
0.759594
0.828074
0.68318
0.827943
0.827181
0.803524
0.825259
0.82644
0.739124
0.770806
0.83099
0.794937
0.804729
0.825762
0.879083
0.827038
0.808404
0.826869
0.825909
0.795541
0.828132
0.825881
0.778038
0.7246
0.848012
0.798842
0.803617
0.823868
0.790121
0.827585
0.825898
0.828257
0.826904
0.875147
0.803558
0.806138
0.827929
0.803529
0.825785
0.808061
0.7489
0.825659
0.829109
0.756168
0.731709
0.825493
0.844466
0.82357
0.693631
0.830804
0.778208
0.818393
0.803085
0.744411
0.803401
0.799819
0.816811
0.826146
0.707419
0.729109
0.803211
0.789896
0.803006
0.831359
0.72373
0.825812
0.803501
0.801533
0.829914
0.825969
0.734757
0.825914
0.769374
0.803437
0.833722
0.804173
0.783879
0.799642
0.796355
0.825676
0.658604
0.825856
0.691342
0.706915
0.804272
0.828979
0.825839
0.803352
0.825737
0.81671
0.743194
0.789756
0.862609
0.803444
0.839606
0.808721
0.622357
0.764504
0.79125
0.679572
0.754064
0.617036
0.826799
0.824219
0.822297
0.803029
0.770268
0.705602
0.776919
0.754756
0.785447
0.825833
0.845929
0.828845
0.806901
0.820526
0.830232
0.803767
0.809158
0.720846
0.804114
0.766714
0.809805
0.799049
0.765761
0.829922
0.791039
0.804405
0.800308
0.846873
0.736049
0.801849
0.800712
0.805865
0.639519
0.825978
0.825899
0.823336
0.672249
0.825819
0.825736
0.799682
0.804671
0.795274
0.786593
0.807924
0.804485
0.826273
0.755624
0.813344
0.879308
0.769858
0.76181
0.816363
0.786257
0.849229
0.809538
0.791061
0.824388
0.799572
0.794786
0.809231
0.834033
0.843009
0.80089
0.60944
0.82951
0.836079
0.775557
0.83856
0.844717
0.831504
0.834389
0.808499
0.840119
0.835113
0.786473
0.810504
0.821808
0.816047
0.831553
0.804101
0.828376
0.79511
0.804815
0.807235
0.744236
0.808469
0.602322
0.827613
0.833789
0.83667
0.8073
0.819573
0.832575
0.820625
0.829972
0.845758
0.840651
0.798225
0.801198
0.83071
0.825415
0.8269
0.801332
0.807495
0.870364
0.829338
0.853583
0.82528
0.801653
0.825662
0.80156
0.834516
0.823515
0.824491
0.806287
0.742006
0.80364
0.805415
0.825597
0.804196
0.809817
0.823174
0.806224
0.80502
0.781633
0.820865
0.726692
0.815642
0.791621
0.765473
0.804329
0.814501
0.820142
0.735689
0.828754
0.816413
0.827561
0.826732
0.798095
0.826461
0.848271
0.834383
0.822997
0.812936
0.802416
0.758715
0.707823
0.825835
0.822002
0.782458
0.82416
0.808975
0.821966
0.806566
0.79965
0.779818
0.802969
0.801018
0.847648
0.827208
0.812776
0.807849
0.630327
0.744116
0.803211
0.793727
0.805208
0.825557
0.8071
0.826317
0.783382
0.825848
0.805908
0.821029
0.804791
0.827415
0.803474
0.826183
0.821
0.825862
0.822721
0.736323
0.824057
0.826074
0.625562
0.825663
0.798459
0.80401
0.864065
0.827356
0.82093
0.876778
0.82556
0.825693
0.826841
0.828311
0.824892
0.769272
0.831201
0.802483
0.803881
0.823909
0.82567
0.826767
0.825701
0.822973
0.824175
0.8047
0.822202
0.810248
0.816645
0.82115
0.825755
0.821632
0.828491
0.81012
0.692724
0.685879
0.803334
0.810062
0.804056
0.821272
0.827706
0.826485
0.803562
0.805311
0.801611
0.801703
0.826523
0.849989
0.828121
0.81296
0.827881
0.827814
0.847116
0.826919
0.82242
0.788489
0.825483
0.807798
0.8027
0.794159
0.820237
0.827961
0.8256
0.825373
0.836862
0.815455
0.823394
0.826174
0.822755
0.804214
0.804067
0.806428
0.821324
0.825631
0.802342
0.812388
0.826853
0.823623
0.801851
0.654409
0.805016
0.804798
0.81866
0.800391
0.803448
0.759216
0.8476
0.803774
0.80069
0.842141
0.837633
0.811416
0.834539
0.801417
0.827512
0.826397
0.82822
0.804293
0.827873
0.747447
0.831185
0.81266
0.801124
0.814368
0.829698
0.800597
0.804752
0.792769
0.816288
0.825896
0.825962
0.828016
0.807368
0.826991
0.826018
0.833346
0.823036
0.844732
0.807044
0.709584
0.827414
0.846256
0.829075
0.805674
0.800888
0.804352
0.825165
0.815338
0.826083
0.749338
0.756013
0.801765
0.803884
0.82582
0.826016
0.808716
0.684703
0.721888
0.809035
0.771096
0.826148
0.709537
0.803411
0.740684
0.803508
0.821317
0.803426
0.827119
0.823096
0.799428
0.809727
0.803167
0.830832
0.825962
0.802239
0.804364
0.825719
0.830431
0.762812
0.830369
0.804453
0.785088
0.825877
0.804603
0.811938
0.825469
0.825557
0.842216
0.802509
0.799877
0.825794
0.769074
0.807787
0.825554
0.80195
0.825967
0.84211
0.803215
0.849335
0.816665
0.798614
0.822486
0.802903
0.852813
0.7906
0.803614
0.826239
0.839285
0.809369
0.824236
0.825952
0.803537
0.803208
0.826979
0.791311
0.824755
0.82569
0.685179
0.825837
0.725656
0.818712
0.84479
0.832781
0.805588
0.825214
0.825773
0.739698
0.825487
0.80208
0.802171
0.80178
0.825782
0.868786
0.802075
0.801997
0.788067
0.847477
0.828883
0.828723
0.823304
0.75809
0.812313
0.803514
0.743188
0.800705
0.727982
0.820705
0.801456
0.694145
0.884054
0.715772
0.774359
0.80276
0.758122
0.809384
0.799932
0.803292
0.679985
0.797849
0.787026
0.800076
0.748325
0.828071
0.831253
0.888099
0.810469
0.832616
0.666397
0.801086
0.795469
0.761056
0.761618
0.781618
0.72727
0.803782
0.800409
0.803866
0.770568
0.652253
0.812575
0.641532
0.829217
0.829283
0.812539
0.742023
0.81965
0.805514
0.827815
0.785867
0.817099
0.798168
0.820114
0.729803
0.80232
0.737378
0.802159
0.799745
0.713615
0.804629
0.825799
0.825825
0.803496
0.771547
0.825509
0.734255
0.706528
0.802906
0.82584
0.878746
0.825793
0.824813
0.884262
0.869828
0.836995
0.718855
0.802748
0.812941
0.822737
0.807229
0.709035
0.735205
0.706751
0.802687
0.703553
0.774272
0.800289
0.665586
0.688091
0.842044
0.783971
0.758358
0.837897
0.770868
0.771345
0.672621
0.74594
0.794614
0.827625
0.873755
0.843818
0.825851
0.803442
0.800551
0.732437
0.825866
0.709752
0.798591
0.825863
0.785359
0.772783
0.810107
0.792274
0.8031
0.801553
0.821823
0.812324
0.871643
0.656109
0.617822
0.803064
0.815216
0.717897
0.811445
0.803379
0.84376
0.804107
0.802833
0.612828
0.638273
0.809707
0.82253
0.825842
0.745846
0.803512
0.818695
0.706877
0.821766
0.803193
0.824611
0.80346
0.808318
0.802721
0.825054
0.803293
0.818109
0.803916
0.866991
0.825407
0.802933
0.723313
0.696425
0.825602
0.627007
0.820962
0.811375
0.842394
0.823607
0.803697
0.811836
0.824112
0.82328
0.825718
0.802183
0.854906
0.861829
0.803461
0.687754
0.817735
0.823359
0.800171
0.803565
0.828129
0.752852
0.803487
0.832379
0.829167
0.825322
0.825539
0.776213
0.747864
0.802044
0.840817
0.804178
0.822668
0.805829
0.805037
0.806381
0.824715
0.810201
0.79985
0.807975
0.80737
0.825697
0.807723
0.807258
0.827145
0.808205
0.803569
0.823843
0.803198
0.803208
0.806739
0.809185
0.823956
0.778297
0.806217
0.803072
0.825881
0.800526
0.80441
0.808032
0.838952
0.805861
0.686549
0.801542
0.825185
0.805431
0.81584
0.769259
0.825105
0.759599
0.804254
0.802696
0.804744
0.820179
0.856813
0.805089
0.803493
0.749354
0.83701
0.82578
0.82924
0.825836
0.823763
0.749691
0.827506
0.740423
0.802208
0.83529
0.80296
0.722483
0.833793
0.8233
0.826359
0.832324
0.825908
0.777827
0.826847
0.688925
0.733347
0.825854
0.831055
0.708499
0.828559
0.677612
0.830081
0.808277
0.826537
0.80344
0.807048
0.823653
0.83294
0.826006
0.662757
0.823856
0.848594
0.784836
0.852474
0.800897
0.730465
0.845393
0.82872
0.842724
0.71722
0.712698
0.840327
0.696682
0.838289
0.825818
0.836498
0.807573
0.834999
0.790272
0.833697
0.8325
0.73157
0.870539
0.831484
0.830636
0.824552
0.770887
0.803364
0.621941
0.812632
0.829911
0.824112
0.806174
0.834077
0.825919
0.799029
0.829281
0.80339
0.708898
0.794418
0.835334
0.825141
0.737356
0.80886
0.822542
0.627805
0.825385
0.826013
0.80423
0.811027
0.745144
0.825928
0.80336
0.804028
0.797525
0.803846
0.799769
0.796427
0.803464
0.823346
0.820351
0.824523
0.607487
0.89623
0.722374
0.79918
0.75591
0.793654
0.825886
0.82605
0.826011
0.635287
0.827927
0.818262
0.804832
0.826677
0.837852
0.840548
0.78561
0.799325
0.800563
0.745646
0.766872
0.825868
0.77404
0.816263
0.828406
0.825443
0.814582
0.802336
0.786673
0.813139
0.826305
0.737004
0.81169
0.826168
0.827756
0.808952
0.810554
0.777251
0.82544
0.809284
0.803656
0.808494
0.648369
0.807556
0.80528
0.806943
0.830185
0.846517
0.805688
0.78632
0.806282
0.775046
0.829336
0.81553
0.823676
0.825903
0.851069
0.803994
0.750207
0.820865
0.825874
0.74132
0.80221
0.826408
0.762962
0.823579
0.603963
0.807746
0.701289
0.802545
0.818263
0.822775
0.827113
0.805015
0.824381
0.827203
0.802031
0.805861
0.845507
0.826284
0.797792
0.825662
0.803471
0.803034
0.801172
0.802268
0.816245
0.825387
0.80264
0.782473
0.827932
0.820038
0.809999
0.825906
0.619419
0.804964
0.814803
0.825865
0.797872
0.762354
0.720563
0.823414
0.825747
0.834081
0.799899
0.63331
0.781197
0.676242
0.826757
0.747309
0.823165
0.831627
0.722217
0.800658
0.841041
0.76533
0.8015
0.803591
0.825671
0.809915
0.713849
0.801593
0.614958
0.802871
0.803161
0.80291
0.654524
0.803369
0.804093
0.803828
0.740689
0.749762
0.804051
0.785916
0.826047
0.735613
0.721345
0.825646
0.802334
0.76383
0.859081
0.824679
0.823194
0.688733
0.803618
0.801363
0.801353
0.802969
0.681505
0.803969
0.825847
0.675516
0.7028
0.807386
0.799036
0.825824
0.829768
0.825313
0.825561
0.826424
0.804342
0.825837
0.825205
0.820531
0.830503
0.803708
0.802634
0.811758
0.746751
0.810658
0.825065
0.867337
0.818529
0.662121
0.786662
0.802897
0.779823
0.826679
0.822068
0.836307
0.815526
0.869137
0.803315
0.824921
0.628781
0.817109
0.840054
0.803318
0.825112
0.651902
0.825141
0.803057
0.826638
0.802773
0.82723
0.826118
0.756981
0.804412
0.803426
0.84142
0.86673
0.820891
0.82632
0.727084
0.75866
0.80307
0.803726
0.813518
0.827581
0.80049
0.803525
0.828596
0.815985
0.808583
0.741923
0.803244
0.826842
0.823219
0.774168
0.762884
0.821354
0.798247
0.862245
0.731982
0.841104
0.820771
0.712297
0.801243
0.824782
0.789385
0.801458
0.80136
0.825493
0.787717
0.776658
0.824049
0.697333
0.799655
0.77694
0.825452
0.827138
0.802847
0.797152
0.75267
0.764957
0.783108
0.82532
0.828383
0.815305
0.682101
0.810803
0.804774
0.780499
0.811116
0.823551
0.801057
0.804557
0.675428
0.805396
0.806026
0.857264
0.804411
0.810473
0.840106
0.806716
0.820141
0.857875
0.652943
0.804767
0.826354
0.806421
0.805982
0.806782
0.805408
0.805599
0.804989
0.806945
0.807729
0.740504
0.806916
0.808433
0.815263
0.82503
0.809555
0.826782
0.803455
0.804192
0.824918
0.824952
0.820259
0.803546
0.817433
0.814639
0.818274
0.826079
0.726988
0.824432
0.838614
0.825505
0.860006
0.760445
0.817681
0.825819
0.802295
0.667862
0.803807
0.781591
0.830836
0.648044
0.825978
0.836936
0.825382
0.820418
0.802799
0.82855
0.826447
0.804528
0.774572
0.826915
0.762867
0.596168
0.825243
0.693035
0.716106
0.821491
0.835352
0.835491
0.826631
0.853599
0.652163
0.877708
0.806562
0.833918
0.832515
0.823163
0.706019
0.825638
0.831231
0.826469
0.802508
0.775804
0.823312
0.609657
0.821825
0.849642
0.803821
0.84642
0.830216
0.803448
0.697751
0.844533
0.829365
0.843548
0.801873
0.822709
0.80339
0.841194
0.803474
0.822852
0.839033
0.837131
0.823061
0.832889
0.832048
0.741206
0.69455
0.634767
0.835515
0.834194
0.772995
0.764371
0.816195
0.832961
0.847774
0.635201
0.83186
0.830938
0.830181
0.828935
0.805402
0.821828
0.693934
0.755346
0.829525
0.798649
0.871036
0.893633
0.780569
0.813563
0.686583
0.836648
0.746202
0.738842
0.820207
0.803298
0.786596
0.698382
0.802742
0.825711
0.7913
0.734704
0.81019
0.81825
0.799886
0.708126
0.829892
0.794995
0.826081
0.840601
0.816275
0.80561
0.82636
0.826205
0.788457
0.80495
0.734201
0.841661
0.794954
0.820786
0.785187
0.805376
0.71837
0.80154
0.814623
0.813243
0.812063
0.810565
0.809452
0.808674
0.807015
0.805843
0.807835
0.744899
0.806419
0.802073
0.797416
0.803993
0.845448
0.737317
0.80372
0.779466
0.887476
0.855549
0.799242
0.743472
0.804546
0.799407
0.731834
0.804022
0.802792
0.751893
0.804868
0.800218
0.798549
0.802103
0.744952
0.790711
0.813583
0.762455
0.768633
0.781546
0.802432
0.825068
0.80966
0.772134
0.756889
0.800542
0.82454
0.803846
0.800965
0.801812
0.930175
0.865143
0.826863
0.825786
0.725566
0.850442
0.758397
0.827373
0.823306
0.901114
0.825871
0.798335
0.621238
0.825861
0.798465
0.825853
0.798884
0.85089
0.61849
0.840078
0.802338
0.80683
0.806411
0.804949
0.856976
0.80208
0.827136
0.715198
0.64752
0.682787
0.825854
0.603995
0.798838
0.739314
0.847277
0.816471
0.59354
0.809756
0.825265
0.825035
0.73185
0.802767
0.571765
0.798495
0.825894
0.798633
0.803383
0.798885
0.825962
0.839882
0.803442
0.799629
0.826182
0.79991
0.826272
0.815668
0.80021
0.82638
0.824293
0.826513
0.800376
0.826667
0.69506
0.800591
0.826844
0.803509
0.800804
0.827024
0.719943
0.8258
0.79929
0.825888
0.800345
0.819968
0.839644
0.866558
0.801735
0.801939
0.827727
0.816704
0.801563
0.801172
0.864582
0.819751
0.827481
0.820419
0.855349
0.836588
0.826479
0.827161
0.852615
0.825774
0.803129
0.82869
0.818764
0.803574
0.825584
0.801256
0.814759
0.785275
0.808464
0.825422