# vtk DataFile Version 1.0
unstructured grid
ascii
DATASET UNSTRUCTURED_GRID
points 3920 float
-1 0 0
-1 1 0
2 0 0
2 1 0
0 0 0
1 0 0
-1 1 0.1
-1 0 0.1
0 0 0.1
1 0 0.1
2 0 0.1
2 1 0.1
-0.98 0 0
-0.96 0 0
-0.94 0 0
-0.92 0 0
-0.9 0 0
-0.88 0 0
-0.86 0 0
-0.84 0 0
-0.82 0 0
-0.8 0 0
-0.78 0 0
-0.76 0 0
-0.74 0 0
-0.72 0 0
-0.7 0 0
-0.68 0 0
-0.66 0 0
-0.64 0 0
-0.62 0 0
-0.6 0 0
-0.58 0 0
-0.56 0 0
-0.54 0 0
-0.52 0 0
-0.5 0 0
-0.48 0 0
-0.46 0 0
-0.44 0 0
-0.42 0 0
-0.4 0 0
-0.38 0 0
-0.36 0 0
-0.34 0 0
-0.32 0 0
-0.3 0 0
-0.28 0 0
-0.26 0 0
-0.24 0 0
-0.22 0 0
-0.2 0 0
-0.18 0 0
-0.16 0 0
-0.14 0 0
-0.12 0 0
-0.1 0 0
-0.08 0 0
-0.06 0 0
-0.04 0 0
-0.02 0 0
1.02 0 0
1.04 0 0
1.06 0 0
1.08 0 0
1.1 0 0
1.12 0 0
1.14 0 0
1.16 0 0
1.18 0 0
1.2 0 0
1.22 0 0
1.24 0 0
1.26 0 0
1.28 0 0
1.3 0 0
1.32 0 0
1.34 0 0
1.36 0 0
1.38 0 0
1.4 0 0
1.42 0 0
1.44 0 0
1.46 0 0
1.48 0 0
1.5 0 0
1.52 0 0
1.54 0 0
1.56 0 0
1.58 0 0
1.6 0 0
1.62 0 0
1.64 0 0
1.66 0 0
1.68 0 0
1.7 0 0
1.72 0 0
1.74 0 0
1.76 0 0
1.78 0 0
1.8 0 0
1.82 0 0
1.84 0 0
1.86 0 0
1.88 0 0
1.9 0 0
1.92 0 0
1.94 0 0
1.96 0 0
1.98 0 0
2 0.0199133 0
2 0.0414128 0
2 0.0646247 0
2 0.0896856 0
2 0.116743 0
2 0.145955 0
2 0.177494 0
2 0.211545 0
2 0.248309 0
2 0.288001 0
2 0.330854 0
2 0.377121 0
2 0.427073 0
2 0.481004 0
2 0.539231 0
2 0.602096 0
2 0.669968 0
2 0.743247 0
2 0.822362 0
2 0.907779 0
1.9 1 0
1.8 1 0
1.7 1 0
1.6 1 0
1.5 1 0
1.4 1 0
1.3 1 0
1.2 1 0
1.1 1 0
1 1 0
0.9 1 0
0.8 1 0
0.7 1 0
0.6 1 0
0.5 1 0
0.4 1 0
0.3 1 0
0.2 1 0
0.1 1 0
3.69793e-12 1 0
-0.1 1 0
-0.2 1 0
-0.3 1 0
-0.4 1 0
-0.5 1 0
-0.6 1 0
-0.7 1 0
-0.8 1 0
-0.9 1 0
-1 0.907779 0
-1 0.822362 0
-1 0.743247 0
-1 0.669968 0
-1 0.602096 0
-1 0.539231 0
-1 0.481004 0
-1 0.427073 0
-1 0.377121 0
-1 0.330854 0
-1 0.288001 0
-1 0.248309 0
-1 0.211545 0
-1 0.177494 0
-1 0.145955 0
-1 0.116743 0
-1 0.0896856 0
-1 0.0646247 0
-1 0.0414128 0
-1 0.0199133 0
0.0182781 0.00745351 0
0.0366672 0.0146286 0
0.0551632 0.0215237 0
0.0737617 0.0281372 0
0.0924585 0.0344675 0
0.111249 0.0405131 0
0.13013 0.0462728 0
0.149095 0.0517451 0
0.168142 0.0569289 0
0.187265 0.0618228 0
0.20646 0.0664258 0
0.225723 0.0707368 0
0.245049 0.0747549 0
0.264434 0.078479 0
0.283873 0.0819084 0
0.303362 0.0850422 0
0.322896 0.0878798 0
0.342472 0.0904204 0
0.362083 0.0926635 0
0.381726 0.0946086 0
0.401397 0.0962552 0
0.42109 0.0976029 0
0.440802 0.0986514 0
0.460527 0.0994006 0
0.480261 0.0998501 0
0.5 0.1 0
0.519739 0.0998501 0
0.539473 0.0994006 0
0.559198 0.0986514 0
0.57891 0.0976029 0
0.598603 0.0962552 0
0.618274 0.0946086 0
0.637917 0.0926635 0
0.657528 0.0904204 0
0.677104 0.0878798 0
0.696638 0.0850422 0
0.716127 0.0819084 0
0.735566 0.078479 0
0.754951 0.0747549 0
0.774277 0.0707368 0
0.79354 0.0664258 0
0.812735 0.0618228 0
0.831858 0.0569289 0
0.850905 0.0517451 0
0.86987 0.0462728 0
0.888751 0.0405131 0
0.907542 0.0344675 0
0.926238 0.0281372 0
0.944837 0.0215237 0
0.963333 0.0146286 0
0.981722 0.00745351 0
-1 0.907779 0.1
-1 0.822362 0.1
-1 0.743247 0.1
-1 0.669968 0.1
-1 0.602096 0.1
-1 0.539231 0.1
-1 0.481004 0.1
-1 0.427073 0.1
-1 0.377121 0.1
-1 0.330854 0.1
-1 0.288001 0.1
-1 0.248309 0.1
-1 0.211545 0.1
-1 0.177494 0.1
-1 0.145955 0.1
-1 0.116743 0.1
-1 0.0896856 0.1
-1 0.0646247 0.1
-1 0.0414128 0.1
-1 0.0199133 0.1
-0.98 0 0.1
-0.96 0 0.1
-0.94 0 0.1
-0.92 0 0.1
-0.9 0 0.1
-0.88 0 0.1
-0.86 0 0.1
-0.84 0 0.1
-0.82 0 0.1
-0.8 0 0.1
-0.78 0 0.1
-0.76 0 0.1
-0.74 0 0.1
-0.72 0 0.1
-0.7 0 0.1
-0.68 0 0.1
-0.66 0 0.1
-0.64 0 0.1
-0.62 0 0.1
-0.6 0 0.1
-0.58 0 0.1
-0.56 0 0.1
-0.54 0 0.1
-0.52 0 0.1
-0.5 0 0.1
-0.48 0 0.1
-0.46 0 0.1
-0.44 0 0.1
-0.42 0 0.1
-0.4 0 0.1
-0.38 0 0.1
-0.36 0 0.1
-0.34 0 0.1
-0.32 0 0.1
-0.3 0 0.1
-0.28 0 0.1
-0.26 0 0.1
-0.24 0 0.1
-0.22 0 0.1
-0.2 0 0.1
-0.18 0 0.1
-0.16 0 0.1
-0.14 0 0.1
-0.12 0 0.1
-0.1 0 0.1
-0.08 0 0.1
-0.06 0 0.1
-0.04 0 0.1
-0.02 0 0.1
0.0182781 0.00745351 0.1
0.0366672 0.0146286 0.1
0.0551632 0.0215237 0.1
0.0737617 0.0281372 0.1
0.0924585 0.0344675 0.1
0.111249 0.0405131 0.1
0.13013 0.0462728 0.1
0.149095 0.0517451 0.1
0.168142 0.0569289 0.1
0.187265 0.0618228 0.1
0.20646 0.0664258 0.1
0.225723 0.0707368 0.1
0.245049 0.0747549 0.1
0.264434 0.078479 0.1
0.283873 0.0819084 0.1
0.303362 0.0850422 0.1
0.322896 0.0878798 0.1
0.342472 0.0904204 0.1
0.362083 0.0926635 0.1
0.381726 0.0946086 0.1
0.401397 0.0962552 0.1
0.42109 0.0976029 0.1
0.440802 0.0986514 0.1
0.460527 0.0994006 0.1
0.480261 0.0998501 0.1
0.5 0.1 0.1
0.519739 0.0998501 0.1
0.539473 0.0994006 0.1
0.559198 0.0986514 0.1
0.57891 0.0976029 0.1
0.598603 0.0962552 0.1
0.618274 0.0946086 0.1
0.637917 0.0926635 0.1
0.657528 0.0904204 0.1
0.677104 0.0878798 0.1
0.696638 0.0850422 0.1
0.716127 0.0819084 0.1
0.735566 0.078479 0.1
0.754951 0.0747549 0.1
0.774277 0.0707368 0.1
0.79354 0.0664258 0.1
0.812735 0.0618228 0.1
0.831858 0.0569289 0.1
0.850905 0.0517451 0.1
0.86987 0.0462728 0.1
0.888751 0.0405131 0.1
0.907542 0.0344675 0.1
0.926238 0.0281372 0.1
0.944837 0.0215237 0.1
0.963333 0.0146286 0.1
0.981722 0.00745351 0.1
1.02 0 0.1
1.04 0 0.1
1.06 0 0.1
1.08 0 0.1
1.1 0 0.1
1.12 0 0.1
1.14 0 0.1
1.16 0 0.1
1.18 0 0.1
1.2 0 0.1
1.22 0 0.1
1.24 0 0.1
1.26 0 0.1
1.28 0 0.1
1.3 0 0.1
1.32 0 0.1
1.34 0 0.1
1.36 0 0.1
1.38 0 0.1
1.4 0 0.1
1.42 0 0.1
1.44 0 0.1
1.46 0 0.1
1.48 0 0.1
1.5 0 0.1
1.52 0 0.1
1.54 0 0.1
1.56 0 0.1
1.58 0 0.1
1.6 0 0.1
1.62 0 0.1
1.64 0 0.1
1.66 0 0.1
1.68 0 0.1
1.7 0 0.1
1.72 0 0.1
1.74 0 0.1
1.76 0 0.1
1.78 0 0.1
1.8 0 0.1
1.82 0 0.1
1.84 0 0.1
1.86 0 0.1
1.88 0 0.1
1.9 0 0.1
1.92 0 0.1
1.94 0 0.1
1.96 0 0.1
1.98 0 0.1
2 0.0199133 0.1
2 0.0414128 0.1
2 0.0646247 0.1
2 0.0896856 0.1
2 0.116743 0.1
2 0.145955 0.1
2 0.177494 0.1
2 0.211545 0.1
2 0.248309 0.1
2 0.288001 0.1
2 0.330854 0.1
2 0.377121 0.1
2 0.427073 0.1
2 0.481004 0.1
2 0.539231 0.1
2 0.602096 0.1
2 0.669968 0.1
2 0.743247 0.1
2 0.822362 0.1
2 0.907779 0.1
1.9 1 0.1
1.8 1 0.1
1.7 1 0.1
1.6 1 0.1
1.5 1 0.1
1.4 1 0.1
1.3 1 0.1
1.2 1 0.1
1.1 1 0.1
1 1 0.1
0.9 1 0.1
0.8 1 0.1
0.7 1 0.1
0.6 1 0.1
0.5 1 0.1
0.4 1 0.1
0.3 1 0.1
0.2 1 0.1
0.1 1 0.1
3.69793e-12 1 0.1
-0.1 1 0.1
-0.2 1 0.1
-0.3 1 0.1
-0.4 1 0.1
-0.5 1 0.1
-0.6 1 0.1
-0.7 1 0.1
-0.8 1 0.1
-0.9 1 0.1
1.08758 0.0158154 0
-0.0898513 0.0203294 0
0.0966181 0.0537636 0
0.90205 0.0548881 0
1.21055 0.0202058 0
-0.209811 0.0159577 0
1.3305 0.0176902 0
-0.33 0.0173205 0
1.45324 0.0148141 0
-0.448654 0.0159854 0
1.56842 0.0191785 0
-0.569936 0.0166364 0
0.193292 0.0805369 0
0.805051 0.0813623 0
0.709096 0.100353 0
0.288591 0.0996656 0
0.390184 0.111848 0
0.61033 0.111742 0
0.488809 0.116278 0
1.67175 0.0169692 0
-0.67 0.0169809 0
-0.955017 0.454039 0
1.95131 0.44569 0
1.74981 0.0168753 0
-0.75 0.0173205 0
-0.968032 0.266538 0
1.96871 0.266267 0
0.978232 0.0305687 0
0.0208675 0.026451 0
-0.150454 0.91842 0
1.13854 0.907437 0
1.45012 0.904365 0
-0.445923 0.908903 0
-0.853423 0.0157019 0
1.84881 0.016319 0
0.853689 0.915652 0
0.153944 0.912184 0
0.545151 0.914125 0
0.549913 0.115152 0
1.51 0.0173205 0
-0.506989 0.01651 0
1.27 0.0173205 0
1.14976 0.0173333 0
-0.268171 0.0206442 0
-0.150501 0.0153244 0
-0.391384 0.0153993 0
1.38886 0.0171544 0
-0.973694 0.161724 0
1.97441 0.162392 0
-0.945221 0.633523 0
1.94544 0.63312 0
1.91008 0.0186068 0
-0.91 0.0169616 0
-0.030664 0.0194327 0
1.03074 0.0165456 0
-0.966065 0.353575 0
1.96128 0.359765 0
1.93879 0.781254 0
-0.937057 0.781882 0
-0.980746 0.080709 0
1.9772 0.0760699 0
0.058735 0.0409372 0
0.355202 0.913001 0
0.86356 0.0661005 0
0.134223 0.0651111 0
0.941972 0.0397386 0
-0.653034 0.915003 0
1.65328 0.904589 0
0.770126 0.0881325 0
0.232946 0.0902008 0
0.330582 0.105648 0
0.670612 0.108365 0
0.428707 0.116145 0
1.80993 0.016629 0
-0.810168 0.0172178 0
-0.71 0.0173205 0
1.63047 0.0175504 0
1.70842 0.0169661 0
-0.628824 0.0181787 0
-0.949815 0.0133898 0
1.95 0.0173205 0
1.85542 0.907891 0
-0.85 0.913397 0
1.9833 0.0307692 0
-0.983315 0.0309709 0
-0.750025 0.916468 0
-0.701107 0.836904 0
-0.607741 0.836428 0
-0.656448 0.759827 0
-0.572936 0.758144 0
-0.61411 0.691195 0
-0.539534 0.689068 0
-0.578542 0.626111 0
-0.507461 0.624216 0
-0.544001 0.566638 0
-0.477696 0.564279 0
-0.511582 0.51001 0
-0.451689 0.507147 0
-0.481834 0.457732 0
-0.426137 0.454624 0
-0.453236 0.407539 0
-0.398845 0.406233 0
-0.507958 0.409496 0
-0.368427 0.460177 0
-0.344602 0.405209 0
-0.315696 0.447824 0
-0.294128 0.402169 0
-0.262844 0.444518 0
-0.241968 0.388746 0
-0.209878 0.439557 0
-0.185184 0.391135 0
-0.156687 0.437338 0
-0.133719 0.390776 0
-0.104405 0.434306 0
-0.0818745 0.388334 0
-0.0528785 0.431165 0
-0.0305984 0.385639 0
-0.00180552 0.427863 0
0.0194564 0.382608 0
0.0485809 0.42449 0
0.0701962 0.37973 0
0.0985483 0.421145 0
0.119893 0.377339 0
0.147837 0.417911 0
0.172552 0.36751 0
0.197018 0.412597 0
0.221203 0.37141 0
0.24512 0.409646 0
-0.48178 0.364657 0
-0.531053 0.364782 0
-0.0599102 0.344151 0
-0.324909 0.359566 0
0.266181 0.368462 0
0.292132 0.407649 0
0.311992 0.365779 0
0.338918 0.404821 0
0.357567 0.355909 0
0.384723 0.40053 0
0.404675 0.359681 0
0.430617 0.398558 0
0.450457 0.35827 0
0.474237 0.395182 0
0.496746 0.34898 0
0.520548 0.397931 0
0.542071 0.353121 0
0.566011 0.389914 0
0.585061 0.350856 0
0.609352 0.38696 0
0.629069 0.348168 0
0.655979 0.391217 0
0.67472 0.346182 0
0.699346 0.381414 0
0.719333 0.341965 0
0.743718 0.377547 0
0.764028 0.339036 0
0.788201 0.373582 0
0.807659 0.336101 0
0.832821 0.372249 0
0.852309 0.334017 0
0.877785 0.370339 0
0.897875 0.331141 0
0.922904 0.366281 0
0.943173 0.327335 0
0.968282 0.363358 0
0.989029 0.324222 0
1.01391 0.361511 0
1.03465 0.321428 0
1.05949 0.358447 0
1.08389 0.312052 0
1.10575 0.355104 0
1.12889 0.31562 0
1.15067 0.353235 0
1.17157 0.312819 0
1.19626 0.349369 0
1.21618 0.309863 0
1.2416 0.346914 0
1.26131 0.30715 0
1.28691 0.344312 0
1.30571 0.303752 0
1.33144 0.341222 0
1.35018 0.300911 0
1.3758 0.338308 0
1.39501 0.298931 0
1.42015 0.335235 0
1.43904 0.296349 0
1.46355 0.330194 0
1.48256 0.293347 0
1.50685 0.326967 0
1.52589 0.29055 0
1.54996 0.325305 0
1.56909 0.287929 0
[...]
CELL_DATA 3694
SCALARS rho float
LOOKUP_TABLE default
0.804765
0.782182
0.822344
0.86468
0.860215
0.823856
0.820733
0.816125
0.853778
0.815278
0.860514
0.860486
0.860074
0.820505
0.816571
0.825287
0.813976
0.816663
0.827765
0.875347
0.854311
0.860493
0.806757
0.822796
0.805081
0.859274
0.795443
0.830082
0.856532
0.804228
0.804125
0.793538
0.81688
0.847322
0.819388
0.84199
0.866756
0.859964
0.859199
0.820362
0.822253
0.84101
0.854567
0.847824
0.835202
0.865021
0.82101
0.781364
0.777325
0.814967
0.82271
0.810827
0.873178
0.828979
0.782858
0.867668
0.818922
0.85598
0.853157
0.815393
0.826797
0.87045
0.870915
0.81469
0.87206
0.86404
0.830969
0.867375
0.794878
0.882425
0.808529
0.831233
0.860506
0.814514
0.860628
0.811239
0.840533
0.808244
0.858603
0.82247
0.803731
0.84221
0.806929
0.819332
0.851366
0.808832
0.855512
0.803317
0.796352
0.858681
0.842942
0.814695
0.844041
0.853044
0.7719
0.82786
0.795105
0.860081
0.859921
0.869439
0.863762
0.828823
0.786767
0.852824
0.850823
0.870415
0.860209
0.828618
0.795603
0.857471
0.826319
0.815589
0.78768
0.857598
0.889112
0.813792
0.843349
0.859873
0.808087
0.813254
0.815428
0.847586
0.857392
0.827101
0.776851
0.815385
0.858982
0.83334
0.870903
0.806713
0.816424
0.832685
0.831559
0.818956
0.821358
0.840886
0.824616
0.807431
0.803343
0.863289
0.857853
0.806576
0.859671
0.866039
0.81513
0.783263
0.773329
0.805551
0.862816
0.837055
0.81581
0.810367
0.75618
0.831282
0.790298
0.829139
0.789926
0.834505
0.75225
0.825598
0.85656
0.763313
0.819753
0.806222
0.873062
0.753854
0.840739
0.815225
0.824798
0.773316
0.815936
0.781008
0.882123
0.753578
0.826963
0.785041
0.882055
0.866127
0.857875
0.799458
0.856964
0.79344
0.86238
0.801266
0.763608
0.81424
0.764332
0.860303
0.822261
0.877436
0.828395
0.778909
0.871253
0.806031
0.811781
0.868074
0.836403
0.874291
0.805302
0.815884
0.819075
0.839714
0.865107
0.854451
0.841492
0.86418
0.787165
0.821696
0.813956
0.811851
0.806593
0.841218
0.820664
0.828479
0.861742
0.828832
0.864378
0.812123
0.861732
0.856712
0.863029
0.868144
0.8508
0.808154
0.862458
0.766493
0.824195
0.849916
0.877593
0.863534
0.851309
0.829688
0.816219
0.860306
0.867545
0.860394
0.808678
0.843423
0.790151
0.839641
0.82071
0.850837
0.781277
0.829795
0.824618
0.831467
0.808009
0.822382
0.867524
0.877441
0.824096
0.769819
0.834287
0.821583
0.765264
0.839445
0.81907
0.813159
0.868121
0.869681
0.754219
0.86644
0.839739
0.84169
0.865003
0.809811
0.840537
0.852031
0.855294
0.820042
0.80575
0.867043
0.834854
0.808684
0.825676
0.87072
0.789645
0.74157
0.85943
0.851656
0.859232
0.835992
0.799829
0.865004
0.866065
0.854293
0.806235
0.841082
0.870141
0.756819
0.807888
0.889145
0.767067
0.827185
0.868859
0.860058
0.871003
0.781396
0.834571
0.870302
0.8186
0.815056
0.839135
0.866219
0.841354
0.817778
0.831363
0.811263
0.761714
0.859891
0.862881
0.78914
0.838984
0.859774
0.846308
0.786457
0.75644
0.859979
0.860382
0.832457
0.794411
0.799596
0.803297
0.815367
0.859333
0.833251
0.820423
0.816316
0.797446
0.859736
0.851423
0.843008
0.827245
0.867503
0.86501
0.860259
0.859149
0.816959
0.829598
0.825499
0.769556
0.807055
0.836599
0.80084
0.831308
0.824634
0.859726
0.820163
0.834931
0.82565
0.870293
0.859894
0.859742
0.807303
0.799531
0.807818
0.82572
0.835935
0.777592
0.81936
0.831723
0.840782
0.812519
0.828737
0.858437
0.859887
0.859912
0.823795
0.825555
0.82692
0.827381
0.872655
0.843625
0.780025
0.822119
0.808102
0.776749
0.815923
0.747923
0.818909
0.824054
0.838092
0.870023
0.859756
0.858834
0.850777
0.859749
0.862661
0.812944
0.826844
0.83709
0.783104
0.859007
0.820659
0.814922
0.792255
0.865014
0.878625
0.858997
0.833182
0.847366
0.865766
0.823521
0.825172
0.853455
0.779625
0.820571
0.871151
0.849386
0.822598
0.886542
0.837557
0.855703
0.860307
0.851894
0.778443
0.842811
0.815987
0.803788
0.799684
0.85509
0.833889
0.836286
0.763032
0.868911
0.851091
0.861388
0.814432
0.823819
0.860751
0.818603
0.805072
0.827432
0.80821
0.868264
0.855692
0.856184
0.891231
0.862856
0.832618
0.865361
0.789218
0.860662
0.868792
0.861011
0.756883
0.866051
0.8323
0.873921
0.859945
0.814944
0.744275
0.833296
0.804945
0.827941
0.811262
0.836605
0.869642
0.847488
0.824577
0.838201
0.859484
0.8139
0.885635
0.806515
0.876993
0.858873
0.758531
0.819311
0.827284
0.858495
0.860098
0.785594
0.813233
0.832889
0.836644
0.829377
0.820713
0.86394
0.859245
0.84136
0.826835
0.859506
0.866571
0.816941
0.828186
0.834107
0.857211
0.779563
0.825221
0.85529
0.807769
0.822372
0.751442
0.865914
0.829053
0.87087
0.859872
0.864216
0.873161
0.858251
0.861735
0.805072
0.807707
0.877199
0.851562
0.78845
0.808289
0.811873
0.891711
0.873786
0.859684
0.805691
0.836221
0.816428
0.862897
0.837696
0.74466
0.816062
0.819085
0.809013
0.819484
0.859805
0.823088
0.84734
0.864562
0.857455
0.85622
0.825046
0.849225
0.79804
0.811934
0.820357
0.849723
0.857577
0.817817
0.810074
0.801023
0.868175
0.838914
0.83999
0.748656
0.86603
0.853589
0.861271
0.815128
0.848652
0.857702
0.837835
0.870044
0.816235
0.83717
0.858904
0.8639
0.854095
0.856425
0.803761
0.823911
0.840288
0.814523
0.875433
0.814591
0.84484
0.757983
0.84975
0.859039
0.834256
0.85975
0.826151
0.866935
0.798423
0.872708
0.779189
0.811284
0.860436
0.829565
0.787578
0.761324
0.839916
0.826541
0.82372
0.836502
0.816015
0.863351
0.855323
0.823158
0.815389
0.85594
0.752078
0.860639
0.820207
0.802421
0.855827
0.78041
0.83603
0.860102
0.867559
0.848213
0.864922
0.839629
0.841019
0.82328
0.816752
0.861411
0.834811
0.852873
0.813693
0.806857
0.825304
0.866385
0.865139
0.853405
0.861717
0.86176
0.867725
0.864524
0.816261
0.828365
0.861952
0.818312
0.742936
0.800731
0.835716
0.867692
0.864511
0.822661
0.832709
0.837249
0.820757
0.824547
0.818109
0.855626
0.856381
0.867139
0.836241
0.848493
0.84811
0.755604
0.818572
0.816826
0.846566
0.802791
0.798506
0.802768
0.817973
0.86225
0.870545
0.868182
0.835205
0.740425
0.840018
0.742842
0.803955
0.86124
0.889592
0.82274
0.859006
0.878707
0.796255
0.85994
0.836431
0.838719
0.837946
0.7704
0.880167
0.801265
0.819353
0.82856
0.822811
0.804756
0.853612
0.866562
0.792756
0.852484
0.81828
0.802159
0.87012
0.806457
0.759449
0.818712
0.861991
0.850171
0.866771
0.824488
0.814365
0.831196
0.857473
0.780547
0.862567
0.855155
0.862448
0.82157
0.860229
0.80212
0.822888
0.770039
0.786295
0.843324
0.845896
0.837805
0.87115
0.863467
0.865545
0.870206
0.750834
0.805468
0.870781
0.807996
0.834659
0.862961
0.863088
0.786567
0.771763
0.806626
0.775153
0.83801
0.789945
0.863691
0.804878
0.867234
0.857424
0.772711
0.84603
0.857003
0.863877
0.82181
0.834583
0.811229
0.825808
0.852442
0.761674
0.761604
0.865451
0.825253
0.852108
0.822154
0.809858
0.830645
0.808789
0.809776
0.812741
0.865273
0.835933
0.778451
0.860691
0.854132
0.858136
0.80239
0.77039
0.793106
0.892121
0.862102
0.856406
0.756233
0.793109
0.764765
0.82147
0.805063
0.776576
0.835841
0.858681
0.825228
0.815595
0.808162
0.862574
0.781252
0.870151
0.838642
0.844442
0.808908
0.859219
0.810785
0.863376
0.869419
0.821948
0.757763
0.840762
0.855783
0.817032
0.870512
0.802415
0.821215
0.859965
0.785497
0.859843
0.805233
0.839444
0.7573
0.766608
0.810721
0.827255
0.856611
0.856765
0.8595
0.839301
0.861219
0.786828
0.804652
0.855791
0.861612
0.788223
0.817624
0.862715
0.850506
0.797417
0.842608
0.826638
0.779402
0.836491
0.785223
0.846006
0.771671
0.810074
0.794328
0.789441
0.855056
0.824175
0.815813
0.759523
0.869085
0.846461
0.855878
0.82509
0.870428
0.805955
0.834549
0.809458
0.825096
0.855128
0.819868
0.835582
0.808729
0.85976
0.751773
0.816852
0.854416
0.854646
0.854632
0.854379
0.812272
0.845202
0.816518
0.814425
0.858888
0.786896
0.858484
0.858154
0.81003
0.856862
0.857888
0.809799
0.815023
0.859837
0.835632
0.825806
0.857716
0.893563
0.856493
0.84258
0.860932
0.865079
0.821037
0.859796
0.85535
0.818402
0.806164
0.871176
0.831237
0.809912
0.845495
0.831119
0.859679
0.848235
0.859688
0.86069
0.890849
0.810433
0.825135
0.85968
0.810667
0.862362
0.829869
0.811839
0.861738
0.859696
0.805469
0.808556
0.861073
0.861238
0.845387
0.788893
0.860124
0.819799
0.851023
0.817112
0.809572
0.809266
0.806004
0.839378
0.856224
0.788076
0.809203
0.814981
0.826254
0.820004
0.858614
0.7895
0.869018
0.817283
0.815737
0.85763
0.864656
0.811327
0.861438
0.81712
0.824268
0.85407
0.816864
0.829509
0.83222
0.830002
0.865037
0.761333
0.870731
0.774205
0.792472
0.817597
0.85973
0.869344
0.812926
0.865567
0.848363
0.814454
0.825536
0.881583
0.810219
0.864224
0.833526
0.753281
0.810957
0.83453
0.784752
0.818482
0.753512
0.855492
0.869337
0.851956
0.807491
0.816194
0.792707
0.82784
0.8036
0.822018
0.870816
0.862516
0.859707
0.82834
0.845004
0.857706
0.818615
0.831406
0.796684
0.818181
0.815558
0.832514
0.80507
0.823118
0.857227
0.823634
0.817719
0.838517
0.86938
0.801881
0.809671
0.811763
0.825144
0.750094
0.864294
0.864698
0.845219
0.781658
0.86512
0.863969
0.806339
0.820049
0.824676
0.832176
0.830441
0.840811
0.862582
0.806153
0.845829
0.893461
0.817252
0.820191
0.847906
0.824241
0.872001
0.843531
0.834412
0.853979
0.82431
0.826295
0.832632
0.861711
0.867597
0.823693
0.747213
0.859
0.862427
0.819073
0.864554
0.868059
0.859776
0.861386
0.832541
0.865029
0.862321
0.824403
0.832988
0.858331
0.847927
0.860354
0.81728
0.849653
0.828711
0.825994
0.833965
0.81381
0.83412
0.747937
0.859396
0.861534
0.863306
0.828745
0.841925
0.860856
0.842728
0.859783
0.869515
0.865965
0.837688
0.804541
0.860009
0.859335
0.860397
0.810631
0.829866
0.887131
0.859664
0.875111
0.860337
0.810198
0.847255
0.831901
0.854651
0.857365
0.854485
0.826714
0.809749
0.813695
0.823446
0.864454
0.824115
0.844122
0.845184
0.836166
0.821752
0.821266
0.843206
0.797759
0.838427
0.83476
0.815719
0.818313
0.837169
0.844807
0.811302
0.859622
0.83913
0.848806
0.858498
0.836091
0.861699
0.864174
0.85379
0.852347
0.835401
0.810512
0.819921
0.799545
0.867976
0.846694
0.830153
0.856404
0.830268
0.856293
0.825845
0.806904
0.820791
0.807234
0.80762
0.870099
0.859995
0.835128
0.835653
0.749742
0.80911
0.825546
0.835498
0.822884
0.858445
0.827186
0.862258
0.821548
0.867083
0.824398
0.856569
0.821516
0.858929
0.806686
0.862863
0.854728
0.859897
0.855475
0.810442
0.855462
0.863548
0.747732
0.867693
0.826351
0.820657
0.882614
0.856927
0.855497
0.89175
0.861654
0.862289
0.860914
0.859462
0.856539
0.816702
0.851551
0.816358
0.81525
0.854581
0.863372
0.861164
0.865547
0.85421
0.84576
0.822361
0.85398
0.831962
0.839292
0.843295
0.866071
0.85401
0.858647
0.834858
0.773136
0.785777
0.812298
0.832407
0.816075
0.85431
0.858264
0.857194
0.813005
0.825898
0.811815
0.80908
0.858315
0.871486
0.859788
0.835575
0.858711
0.859824
0.863189
0.85791
0.844314
0.823728
0.857459
0.829578
0.820986
0.824781
0.851307
0.859081
0.866101
0.860962
0.855746
0.847234
0.864571
0.857639
0.844517
0.816855
0.817592
0.826244
0.85802
0.86501
0.809931
0.845187
0.860658
0.845256
0.812961
0.757683
0.82106
0.840516
0.841079
0.831451
0.821341
0.811457
0.870847
0.826627
0.806947
0.867001
0.863964
0.83365
0.861999
0.809543
0.859611
0.855941
0.85965
0.817565
0.859624
0.817467
0.86022
0.837042
0.810119
0.836825
0.859757
0.82729
0.819213
0.834922
0.838782
0.865094
0.864654
0.85946
0.827693
0.860757
0.862306
0.859782
0.844902
0.868836
0.8267
0.781459
0.858659
0.86875
0.859664
0.823773
0.805457
0.820134
0.854738
0.837784
0.861111
0.807376
0.821978
0.812436
0.825364
0.861344
0.857136
0.842825
0.787109
0.789418
0.831067
0.814478
0.863203
0.787967
0.810893
0.80184
0.806873
0.843347
0.808871
0.860221
0.859628
0.819863
0.831121
0.840217
0.85186
0.864289
0.814238
0.818965
0.859043
0.859314
0.820417
0.857651
0.817722
0.823031
0.864685
0.818469
0.834572
0.870767
0.865588
0.866484
0.83981
0.802916
0.865096
0.817234
0.828119
0.869891
0.823632
0.860528
0.859601
0.816571
0.871454
0.848238
0.836397
0.863687
0.811502
0.867145
0.826677
0.814467
0.862836
0.865086
0.831004
0.864051
0.862624
0.813661
0.816787
0.848088
0.831273
0.864164
0.863938
0.787167
0.86347
0.790381
0.84127
0.868205
0.86044
0.83572
0.867694
0.866948
0.805189
0.869481
0.817718
0.805156
0.810848
0.860822
0.886038
0.810408
0.813486
0.820088
0.87091
0.849573
0.858857
0.858089
0.812284
0.845354
0.807225
0.803633
0.814923
0.795076
0.856224
0.817236
0.779656
0.897001
0.783177
0.81575
0.822288
0.819397
0.831415
0.806952
0.810599
0.773249
0.820704
0.823543
0.809506
0.818437
0.859197
0.860278
0.900055
0.832982
0.852455
0.767528
0.813234
0.834874
0.823807
0.8166
0.830856
0.806766
0.821126
0.810641
0.821423
0.817485
0.762781
0.834833
0.75924
0.857164
0.856954
0.83548
0.803533
0.850231
0.840935
0.856866
0.819731
0.849711
0.820247
0.854642
0.794606
0.811635
0.805707
0.810991
0.80538
0.801762
0.820904
0.869075
0.86846
0.812823
0.820231
0.866804
0.795727
0.784437
0.808882
0.868806
0.893402
0.869664
0.863285
0.897005
0.886275
0.862177
0.78828
0.811953
0.835897
0.844703
0.842368
0.799806
0.797125
0.798176
0.813095
0.78127
0.817919
0.805113
0.779363
0.774771
0.865714
0.829644
0.816634
0.863581
0.822872
0.815345
0.768961
0.810757
0.835479
0.855741
0.889107
0.867016
0.86417
0.840403
0.805839
0.804889
0.866255
0.786822
0.831405
0.869603
0.82346
0.821037
0.844267
0.833959
0.823836
0.807906
0.857163
0.838264
0.887682
0.764161
0.750098
0.810874
0.847311
0.799158
0.833967
0.811288
0.867107
0.818775
0.805219
0.754408
0.76024
0.838112
0.858509
0.867108
0.816058
0.808614
0.849472
0.795146
0.859794
0.808614
0.870284
0.805852
0.843153
0.804799
0.870739
0.805475
0.843195
0.815238
0.884437
0.87105
0.804987
0.785617
0.791756
0.863322
0.760005
0.850956
0.833552
0.866241
0.856735
0.813678
0.835274
0.869797
0.859811
0.871363
0.804329
0.869088
0.880799
0.819396
0.789468
0.84905
0.846317
0.819143
0.812103
0.856318
0.820769
0.806195
0.85897
0.856933
0.858236
0.864414
0.821255
0.802547
0.816958
0.865275
0.822771
0.852193
0.825482
0.824143
0.82663
0.869928
0.832115
0.809055
0.832006
0.828064
0.846993
0.830903
0.829565
0.859945
0.829362
0.806352
0.86958
0.81118
0.805746
0.828097
0.830727
0.869101
0.81849
0.826552
0.813943
0.871572
0.803184
0.818309
0.832888
0.864082
0.825033
0.789159
0.806193
0.859141
0.823377
0.839657
0.817029
0.860183
0.814514
0.817283
0.805076
0.820042
0.842314
0.877229
0.821733
0.806833
0.803626
0.86285
0.869723
0.858752
0.847681
0.853866
0.812351
0.859297
0.810629
0.826086
0.861774
0.808167
0.801051
0.86088
0.852817
0.862321
0.860049
0.865432
0.819492
0.860357
0.789624
0.809581
0.869403
0.859392
0.797381
0.859699
0.768624
0.859
0.830113
0.861432
0.808423
0.82826
0.853374
0.852693
0.847576
0.757208
0.8674
0.871462
0.82152
0.874193
0.818334
0.809673
0.869207
0.859586
0.86735
0.802815
0.797822
0.865699
0.791337
0.864328
0.868504
0.863153
0.833346
0.862218
0.82299
0.861451
0.86079
0.810684
0.887472
0.860288
0.85994
0.846333
0.822685
0.810327
0.749235
0.845321
0.859726
0.864007
0.833114
0.861442
0.871623
0.802068
0.85961
0.812438
0.794047
0.823897
0.854418
0.867665
0.812941
0.843059
0.844643
0.761466
0.866195
0.864315
0.832557
0.834022
0.815764
0.854527
0.810457
0.816142
0.824251
0.840398
0.830596
0.830129
0.806573
0.869098
0.842734
0.862496
0.744868
0.906465
0.797944
0.823904
0.819733
0.827662
0.871342
0.863534
0.864343
0.758247
0.857415
0.840825
0.820412
0.85574
0.856279
0.85828
0.823789
0.819774
0.823315
0.817147
0.823934
0.866612
0.82081
0.838918
0.859246
0.866203
0.837142
0.814679
0.832301
0.835474
0.86223
0.802777
0.833716
0.862845
0.859967
0.829825
0.83216
0.828175
0.86978
0.830447
0.813816
0.829018
0.767311
0.82745
0.821814
0.826065
0.859327
0.862624
0.823165
0.832587
0.824606
0.818754
0.859087
0.847558
0.868829
0.871568
0.86586
0.816228
0.808016
0.843011
0.866739
0.806467
0.817627
0.862016
0.813385
0.869344
0.742677
0.828098
0.778717
0.818846
0.849548
0.85866
0.860666
0.821104
0.853697
0.85847
0.812039
0.826676
0.862071
0.861527
0.824495
0.8568
0.822721
0.821997
0.806623
0.813201
0.847714
0.868271
0.814493
0.831134
0.859373
0.850993
0.833372
0.871381
0.748653
0.83309
0.838411
0.86589
0.837485
0.820882
0.785415
0.868519
0.871135
0.861274
0.838279
0.756296
0.825828
0.784077
0.861192
0.800609
0.868889
0.851774
0.804719
0.806364
0.86588
0.825219
0.822287
0.812399
0.860692
0.843802
0.78733
0.808402
0.75197
0.816438
0.811518
0.820538
0.758074
0.808728
0.81657
0.819481
0.799298
0.807908
0.818704
0.829113
0.86406
0.799923
0.792098
0.866099
0.824047
0.816096
0.878596
0.868662
0.868234
0.778212
0.822816
0.805504
0.80718
0.806525
0.781206
0.815938
0.865535
0.772443
0.784545
0.8357
0.837421
0.867574
0.857405
0.86202
0.86275
0.8606
0.820559
0.86671
0.861419
0.851288
0.850738
0.819977
0.811253
0.834111
0.817145
0.833549
0.861317
0.884543
0.84965
0.767466
0.832752
0.810123
0.820717
0.860857
0.857354
0.861833
0.838186
0.885844
0.82063
0.861919
0.756813
0.839788
0.864435
0.806887
0.869497
0.763792
0.857636
0.812708
0.860854
0.805979
0.859699
0.861679
0.807139
0.82438
0.806067
0.865458
0.884194
0.843025
0.862537
0.792832
0.822482
0.808091
0.814354
0.836225
0.859072
0.804262
0.812825
0.858477
0.847727
0.830081
0.80018
0.809382
0.857539
0.853761
0.817872
0.810836
0.85289
0.830743
0.881036
0.796267
0.865307
0.852866
0.78584
0.828435
0.861838
0.826068
0.803752
0.833213
0.863822
0.831923
0.818645
0.865017
0.779642
0.80253
0.82625
0.864981
0.86059
0.812551
0.837028
0.814384
0.820167
0.825435
0.866987
0.859542
0.84723
0.773713
0.844751
0.841275
0.821308
0.838989
0.86349
0.827809
0.823403
0.78395
0.82477
0.825981
0.877951
0.819029
0.832602
0.864702
0.827211
0.853247
0.877954
0.772611
0.820749
0.86231
0.828393
0.826948
0.829705
0.824003
0.825453
0.822338
0.830813
0.828662
0.80889
0.831703
0.829835
0.847402
0.858507
0.83132
0.855289
0.806747
0.820505
0.860652
0.859512
0.854797
0.806501
0.84271
0.83726
0.849257
0.860637
0.803493
0.863258
0.863776
0.86557
0.8799
0.811274
0.849278
0.869972
0.819938
0.768908
0.81509
0.824361
0.860134
0.751913
0.863891
0.862713
0.867472
0.850665
0.809534
0.851302
0.854785
0.819631
0.820187
0.860092
0.813208
0.746434
0.870898
0.77163
0.799223
0.845031
0.86173
0.862304
0.860558
0.87494
0.76494
0.885949
0.8323
0.860863
0.860055
0.858212
0.79557
0.868805
0.859368
0.861344
0.82046
0.816919
0.845931
0.751528
0.851726
0.872158
0.81954
0.869897
0.858913
0.806771
0.793006
0.861337
0.858632
0.867887
0.811384
0.852562
0.806032
0.866272
0.812171
0.852995
0.864804
0.863532
0.845475
0.861081
0.851989
0.796552
0.79248
0.761404
0.862499
0.86171
0.818121
0.815899
0.848286
0.861009
0.863603
0.763837
0.860426
0.86001
0.859748
0.859536
0.832316
0.844327
0.791747
0.813886
0.859604
0.806579
0.880872
0.904784
0.820176
0.845993
0.771174
0.855436
0.812187
0.811073
0.842845
0.831709
0.821767
0.792737
0.806176
0.866567
0.822875
0.810858
0.843824
0.841051
0.830406
0.795065
0.857285
0.828205
0.863171
0.865636
0.839182
0.841281
0.861917
0.862506
0.825146
0.82103
0.811547
0.859143
0.823509
0.852413
0.819846
0.822408
0.797546
0.804045
0.837478
0.835863
0.834357
0.832553
0.830945
0.829577
0.826589
0.82378
0.828104
0.815545
0.82519
0.804477
0.82353
0.815904
0.861895
0.813067
0.812856
0.820991
0.899602
0.870035
0.823208
0.81546
0.821859
0.831628
0.801733
0.816597
0.816005
0.818571
0.829472
0.8386
0.806088
0.812557
0.806318
0.834175
0.845994
0.822469
0.816074
0.830176
0.813787
0.862469
0.831367
0.826284
0.811133
0.822452
0.867989
0.814353
0.836942
0.805094
0.932289
0.882872
0.856779
0.871451
0.787413
0.87228
0.80961
0.848359
0.852855
0.9101
0.869861
0.803406
0.750643
0.869106
0.804298
0.868349
0.805393
0.872151
0.746032
0.865074
0.821137
0.82657
0.835483
0.822562
0.870426
0.808652
0.859617
0.782124
0.74821
0.764164
0.867637
0.737396
0.804517
0.810365
0.869717
0.842914
0.732105
0.84396
0.867001
0.868378
0.794474
0.815451
0.731863
0.807477
0.86627
0.80835
0.811598
0.809315
0.864974
0.864869
0.80681
0.812161
0.863272
0.813142
0.862769
0.838817
0.814137
0.862297
0.863182
0.861863
0.815719
0.861469
0.772801
0.8166
0.861116
0.809755
0.817465
0.860793
0.802689
0.868111
0.80306
0.870851
0.832057
0.852521
0.857725
0.884714
0.806759
0.820381
0.860079
0.839274
0.819417
0.818438
0.876423
0.85056
0.860298
0.853021
0.875501
0.863289
0.859351
0.848276
0.874632
0.868677
0.823217
0.859731
0.849965
0.824163
0.867157
0.814109
0.846527
0.822117
0.83147
0.862095
0.835686
0.859815