# vtk DataFile Version 1.0
unstructured grid
ascii
DATASET UNSTRUCTURED_GRID
points 3920 float
-1 0 0
-1 1 0
2 0 0
2 1 0
0 0 0
1 0 0
-1 1 0.1
-1 0 0.1
0 0 0.1
1 0 0.1
2 0 0.1
2 1 0.1
-0.98 0 0
-0.96 0 0
-0.94 0 0
-0.92 0 0
-0.9 0 0
-0.88 0 0
-0.86 0 0
-0.84 0 0
-0.82 0 0
-0.8 0 0
-0.78 0 0
-0.76 0 0
-0.74 0 0
-0.72 0 0
-0.7 0 0
-0.68 0 0
-0.66 0 0
-0.64 0 0
-0.62 0 0
-0.6 0 0
-0.58 0 0
-0.56 0 0
-0.54 0 0
-0.52 0 0
-0.5 0 0
-0.48 0 0
-0.46 0 0
-0.44 0 0
-0.42 0 0
-0.4 0 0
-0.38 0 0
-0.36 0 0
-0.34 0 0
-0.32 0 0
-0.3 0 0
-0.28 0 0
-0.26 0 0
-0.24 0 0
-0.22 0 0
-0.2 0 0
-0.18 0 0
-0.16 0 0
-0.14 0 0
-0.12 0 0
-0.1 0 0
-0.08 0 0
-0.06 0 0
-0.04 0 0
-0.02 0 0
1.02 0 0
1.04 0 0
1.06 0 0
1.08 0 0
1.1 0 0
1.12 0 0
1.14 0 0
1.16 0 0
1.18 0 0
1.2 0 0
1.22 0 0
1.24 0 0
1.26 0 0
1.28 0 0
1.3 0 0
1.32 0 0
1.34 0 0
1.36 0 0
1.38 0 0
1.4 0 0
1.42 0 0
1.44 0 0
1.46 0 0
1.48 0 0
1.5 0 0
1.52 0 0
1.54 0 0
1.56 0 0
1.58 0 0
1.6 0 0
1.62 0 0
1.64 0 0
1.66 0 0
1.68 0 0
1.7 0 0
1.72 0 0
1.74 0 0
1.76 0 0
1.78 0 0
1.8 0 0
1.82 0 0
1.84 0 0
1.86 0 0
1.88 0 0
1.9 0 0
1.92 0 0
1.94 0 0
1.96 0 0
1.98 0 0
2 0.0199133 0
2 0.0414128 0
2 0.0646247 0
2 0.0896856 0
2 0.116743 0
2 0.145955 0
2 0.177494 0
2 0.211545 0
2 0.248309 0
2 0.288001 0
2 0.330854 0
2 0.377121 0
2 0.427073 0
2 0.481004 0
2 0.539231 0
2 0.602096 0
2 0.669968 0
2 0.743247 0
2 0.822362 0
2 0.907779 0
1.9 1 0
1.8 1 0
1.7 1 0
1.6 1 0
1.5 1 0
1.4 1 0
1.3 1 0
1.2 1 0
1.1 1 0
1 1 0
0.9 1 0
0.8 1 0
0.7 1 0
0.6 1 0
0.5 1 0
0.4 1 0
0.3 1 0
0.2 1 0
0.1 1 0
3.69793e-12 1 0
-0.1 1 0
-0.2 1 0
-0.3 1 0
-0.4 1 0
-0.5 1 0
-0.6 1 0
-0.7 1 0
-0.8 1 0
-0.9 1 0
-1 0.907779 0
-1 0.822362 0
-1 0.743247 0
-1 0.669968 0
-1 0.602096 0
-1 0.539231 0
-1 0.481004 0
-1 0.427073 0
-1 0.377121 0
-1 0.330854 0
-1 0.288001 0
-1 0.248309 0
-1 0.211545 0
-1 0.177494 0
-1 0.145955 0
-1 0.116743 0
-1 0.0896856 0
-1 0.0646247 0
-1 0.0414128 0
-1 0.0199133 0
0.0182781 0.00745351 0
0.0366672 0.0146286 0
0.0551632 0.0215237 0
0.0737617 0.0281372 0
0.0924585 0.0344675 0
0.111249 0.0405131 0
0.13013 0.0462728 0
0.149095 0.0517451 0
0.168142 0.0569289 0
0.187265 0.0618228 0
0.20646 0.0664258 0
0.225723 0.0707368 0
0.245049 0.0747549 0
0.264434 0.078479 0
0.283873 0.0819084 0
0.303362 0.0850422 0
0.322896 0.0878798 0
0.342472 0.0904204 0
0.362083 0.0926635 0
0.381726 0.0946086 0
0.401397 0.0962552 0
0.42109 0.0976029 0
0.440802 0.0986514 0
0.460527 0.0994006 0
0.480261 0.0998501 0
0.5 0.1 0
0.519739 0.0998501 0
0.539473 0.0994006 0
0.559198 0.0986514 0
0.57891 0.0976029 0
0.598603 0.0962552 0
0.618274 0.0946086 0
0.637917 0.0926635 0
0.657528 0.0904204 0
0.677104 0.0878798 0
0.696638 0.0850422 0
0.716127 0.0819084 0
0.735566 0.078479 0
0.754951 0.0747549 0
0.774277 0.0707368 0
0.79354 0.0664258 0
0.812735 0.0618228 0
0.831858 0.0569289 0
0.850905 0.0517451 0
0.86987 0.0462728 0
0.888751 0.0405131 0
0.907542 0.0344675 0
0.926238 0.0281372 0
0.944837 0.0215237 0
0.963333 0.0146286 0
0.981722 0.00745351 0
-1 0.907779 0.1
-1 0.822362 0.1
-1 0.743247 0.1
-1 0.669968 0.1
-1 0.602096 0.1
-1 0.539231 0.1
-1 0.481004 0.1
-1 0.427073 0.1
-1 0.377121 0.1
-1 0.330854 0.1
-1 0.288001 0.1
-1 0.248309 0.1
-1 0.211545 0.1
-1 0.177494 0.1
-1 0.145955 0.1
-1 0.116743 0.1
-1 0.0896856 0.1
-1 0.0646247 0.1
-1 0.0414128 0.1
-1 0.0199133 0.1
-0.98 0 0.1
-0.96 0 0.1
-0.94 0 0.1
-0.92 0 0.1
-0.9 0 0.1
-0.88 0 0.1
-0.86 0 0.1
-0.84 0 0.1
-0.82 0 0.1
-0.8 0 0.1
-0.78 0 0.1
-0.76 0 0.1
-0.74 0 0.1
-0.72 0 0.1
-0.7 0 0.1
-0.68 0 0.1
-0.66 0 0.1
-0.64 0 0.1
-0.62 0 0.1
-0.6 0 0.1
-0.58 0 0.1
-0.56 0 0.1
-0.54 0 0.1
-0.52 0 0.1
-0.5 0 0.1
-0.48 0 0.1
-0.46 0 0.1
-0.44 0 0.1
-0.42 0 0.1
-0.4 0 0.1
-0.38 0 0.1
-0.36 0 0.1
-0.34 0 0.1
-0.32 0 0.1
-0.3 0 0.1
-0.28 0 0.1
-0.26 0 0.1
-0.24 0 0.1
-0.22 0 0.1
-0.2 0 0.1
-0.18 0 0.1
-0.16 0 0.1
-0.14 0 0.1
-0.12 0 0.1
-0.1 0 0.1
-0.08 0 0.1
-0.06 0 0.1
-0.04 0 0.1
-0.02 0 0.1
0.0182781 0.00745351 0.1
0.0366672 0.0146286 0.1
0.0551632 0.0215237 0.1
0.0737617 0.0281372 0.1
0.0924585 0.0344675 0.1
0.111249 0.0405131 0.1
0.13013 0.0462728 0.1
0.149095 0.0517451 0.1
0.168142 0.0569289 0.1
0.187265 0.0618228 0.1
0.20646 0.0664258 0.1
0.225723 0.0707368 0.1
0.245049 0.0747549 0.1
0.264434 0.078479 0.1
0.283873 0.0819084 0.1
0.303362 0.0850422 0.1
0.322896 0.0878798 0.1
0.342472 0.0904204 0.1
0.362083 0.0926635 0.1
0.381726 0.0946086 0.1
0.401397 0.0962552 0.1
0.42109 0.0976029 0.1
0.440802 0.0986514 0.1
0.460527 0.0994006 0.1
0.480261 0.0998501 0.1
0.5 0.1 0.1
0.519739 0.0998501 0.1
0.539473 0.0994006 0.1
0.559198 0.0986514 0.1
0.57891 0.0976029 0.1
0.598603 0.0962552 0.1
0.618274 0.0946086 0.1
0.637917 0.0926635 0.1
0.657528 0.0904204 0.1
0.677104 0.0878798 0.1
0.696638 0.0850422 0.1
0.716127 0.0819084 0.1
0.735566 0.078479 0.1
0.754951 0.0747549 0.1
0.774277 0.0707368 0.1
0.79354 0.0664258 0.1
0.812735 0.0618228 0.1
0.831858 0.0569289 0.1
0.850905 0.0517451 0.1
0.86987 0.0462728 0.1
0.888751 0.0405131 0.1
0.907542 0.0344675 0.1
0.926238 0.0281372 0.1
0.944837 0.0215237 0.1
0.963333 0.0146286 0.1
0.981722 0.00745351 0.1
1.02 0 0.1
1.04 0 0.1
1.06 0 0.1
1.08 0 0.1
1.1 0 0.1
1.12 0 0.1
1.14 0 0.1
1.16 0 0.1
1.18 0 0.1
1.2 0 0.1
1.22 0 0.1
1.24 0 0.1
1.26 0 0.1
1.28 0 0.1
1.3 0 0.1
1.32 0 0.1
1.34 0 0.1
1.36 0 0.1
1.38 0 0.1
1.4 0 0.1
1.42 0 0.1
1.44 0 0.1
1.46 0 0.1
1.48 0 0.1
1.5 0 0.1
1.52 0 0.1
1.54 0 0.1
1.56 0 0.1
1.58 0 0.1
1.6 0 0.1
1.62 0 0.1
1.64 0 0.1
1.66 0 0.1
1.68 0 0.1
1.7 0 0.1
1.72 0 0.1
1.74 0 0.1
1.76 0 0.1
1.78 0 0.1
1.8 0 0.1
1.82 0 0.1
1.84 0 0.1
1.86 0 0.1
1.88 0 0.1
1.9 0 0.1
1.92 0 0.1
1.94 0 0.1
1.96 0 0.1
1.98 0 0.1
2 0.0199133 0.1
2 0.0414128 0.1
2 0.0646247 0.1
2 0.0896856 0.1
2 0.116743 0.1
2 0.145955 0.1
2 0.177494 0.1
2 0.211545 0.1
2 0.248309 0.1
2 0.288001 0.1
2 0.330854 0.1
2 0.377121 0.1
2 0.427073 0.1
2 0.481004 0.1
2 0.539231 0.1
2 0.602096 0.1
2 0.669968 0.1
2 0.743247 0.1
2 0.822362 0.1
2 0.907779 0.1
1.9 1 0.1
1.8 1 0.1
1.7 1 0.1
1.6 1 0.1
1.5 1 0.1
1.4 1 0.1
1.3 1 0.1
1.2 1 0.1
1.1 1 0.1
1 1 0.1
0.9 1 0.1
0.8 1 0.1
0.7 1 0.1
0.6 1 0.1
0.5 1 0.1
0.4 1 0.1
0.3 1 0.1
0.2 1 0.1
0.1 1 0.1
3.69793e-12 1 0.1
-0.1 1 0.1
-0.2 1 0.1
-0.3 1 0.1
-0.4 1 0.1
-0.5 1 0.1
-0.6 1 0.1
-0.7 1 0.1
-0.8 1 0.1
-0.9 1 0.1
1.08758 0.0158154 0
-0.0898513 0.0203294 0
0.0966181 0.0537636 0
0.90205 0.0548881 0
1.21055 0.0202058 0
-0.209811 0.0159577 0
1.3305 0.0176902 0
-0.33 0.0173205 0
1.45324 0.0148141 0
-0.448654 0.0159854 0
1.56842 0.0191785 0
-0.569936 0.0166364 0
0.193292 0.0805369 0
0.805051 0.0813623 0
0.709096 0.100353 0
0.288591 0.0996656 0
0.390184 0.111848 0
0.61033 0.111742 0
0.488809 0.116278 0
1.67175 0.0169692 0
-0.67 0.0169809 0
-0.955017 0.454039 0
1.95131 0.44569 0
1.74981 0.0168753 0
-0.75 0.0173205 0
-0.968032 0.266538 0
1.96871 0.266267 0
0.978232 0.0305687 0
0.0208675 0.026451 0
-0.150454 0.91842 0
1.13854 0.907437 0
1.45012 0.904365 0
-0.445923 0.908903 0
-0.853423 0.0157019 0
1.84881 0.016319 0
0.853689 0.915652 0
0.153944 0.912184 0
0.545151 0.914125 0
0.549913 0.115152 0
1.51 0.0173205 0
-0.506989 0.01651 0
1.27 0.0173205 0
1.14976 0.0173333 0
-0.268171 0.0206442 0
-0.150501 0.0153244 0
-0.391384 0.0153993 0
1.38886 0.0171544 0
-0.973694 0.161724 0
1.97441 0.162392 0
-0.945221 0.633523 0
1.94544 0.63312 0
1.91008 0.0186068 0
-0.91 0.0169616 0
-0.030664 0.0194327 0
1.03074 0.0165456 0
-0.966065 0.353575 0
1.96128 0.359765 0
1.93879 0.781254 0
-0.937057 0.781882 0
-0.980746 0.080709 0
1.9772 0.0760699 0
0.058735 0.0409372 0
0.355202 0.913001 0
0.86356 0.0661005 0
0.134223 0.0651111 0
0.941972 0.0397386 0
-0.653034 0.915003 0
1.65328 0.904589 0
0.770126 0.0881325 0
0.232946 0.0902008 0
0.330582 0.105648 0
0.670612 0.108365 0
0.428707 0.116145 0
1.80993 0.016629 0
-0.810168 0.0172178 0
-0.71 0.0173205 0
1.63047 0.0175504 0
1.70842 0.0169661 0
-0.628824 0.0181787 0
-0.949815 0.0133898 0
1.95 0.0173205 0
1.85542 0.907891 0
-0.85 0.913397 0
1.9833 0.0307692 0
-0.983315 0.0309709 0
-0.750025 0.916468 0
-0.701107 0.836904 0
-0.607741 0.836428 0
-0.656448 0.759827 0
-0.572936 0.758144 0
-0.61411 0.691195 0
-0.539534 0.689068 0
-0.578542 0.626111 0
-0.507461 0.624216 0
-0.544001 0.566638 0
-0.477696 0.564279 0
-0.511582 0.51001 0
-0.451689 0.507147 0
-0.481834 0.457732 0
-0.426137 0.454624 0
-0.453236 0.407539 0
-0.398845 0.406233 0
-0.507958 0.409496 0
-0.368427 0.460177 0
-0.344602 0.405209 0
-0.315696 0.447824 0
-0.294128 0.402169 0
-0.262844 0.444518 0
-0.241968 0.388746 0
-0.209878 0.439557 0
-0.185184 0.391135 0
-0.156687 0.437338 0
-0.133719 0.390776 0
-0.104405 0.434306 0
-0.0818745 0.388334 0
-0.0528785 0.431165 0
-0.0305984 0.385639 0
-0.00180552 0.427863 0
0.0194564 0.382608 0
0.0485809 0.42449 0
0.0701962 0.37973 0
0.0985483 0.421145 0
0.119893 0.377339 0
0.147837 0.417911 0
0.172552 0.36751 0
0.197018 0.412597 0
0.221203 0.37141 0
0.24512 0.409646 0
-0.48178 0.364657 0
-0.531053 0.364782 0
-0.0599102 0.344151 0
-0.324909 0.359566 0
0.266181 0.368462 0
0.292132 0.407649 0
0.311992 0.365779 0
0.338918 0.404821 0
0.357567 0.355909 0
0.384723 0.40053 0
0.404675 0.359681 0
0.430617 0.398558 0
0.450457 0.35827 0
0.474237 0.395182 0
0.496746 0.34898 0
0.520548 0.397931 0
0.542071 0.353121 0
0.566011 0.389914 0
0.585061 0.350856 0
0.609352 0.38696 0
0.629069 0.348168 0
0.655979 0.391217 0
0.67472 0.346182 0
0.699346 0.381414 0
0.719333 0.341965 0
0.743718 0.377547 0
0.764028 0.339036 0
0.788201 0.373582 0
0.807659 0.336101 0
0.832821 0.372249 0
0.852309 0.334017 0
0.877785 0.370339 0
0.897875 0.331141 0
0.922904 0.366281 0
0.943173 0.327335 0
0.968282 0.363358 0
0.989029 0.324222 0
1.01391 0.361511 0
1.03465 0.321428 0
1.05949 0.358447 0
1.08389 0.312052 0
1.10575 0.355104 0
1.12889 0.31562 0
1.15067 0.353235 0
1.17157 0.312819 0
1.19626 0.349369 0
1.21618 0.309863 0
1.2416 0.346914 0
1.26131 0.30715 0
1.28691 0.344312 0
1.30571 0.303752 0
1.33144 0.341222 0
1.35018 0.300911 0
1.3758 0.338308 0
1.39501 0.298931 0
1.42015 0.335235 0
1.43904 0.296349 0
1.46355 0.330194 0
1.48256 0.293347 0
1.50685 0.326967 0
1.52589 0.29055 0
1.54996 0.325305 0
1.56909 0.287929 0
[...]
CELL_DATA 3694
SCALARS rho float
LOOKUP_TABLE default
0.735364
0.671025
0.803776
0.813214
0.826529
0.805071
0.791607
0.799872
0.810122
0.802654
0.817435
0.817428
0.840405
0.789352
0.800667
0.750724
0.803242
0.802902
0.760346
0.849963
0.817275
0.823095
0.698039
0.803362
0.694627
0.839322
0.720257
0.806182
0.836967
0.79846
0.79865
0.718657
0.803449
0.82461
0.802734
0.797474
0.837147
0.822884
0.82482
0.778143
0.804618
0.817299
0.834299
0.825185
0.805119
0.813105
0.800728
0.668959
0.679531
0.721339
0.802036
0.802911
0.846734
0.802041
0.63108
0.838048
0.802554
0.819064
0.832606
0.754171
0.79625
0.815325
0.842065
0.799485
0.842602
0.830852
0.807497
0.813779
0.73651
0.858265
0.803127
0.807562
0.823118
0.803206
0.8245
0.802888
0.814155
0.799515
0.814042
0.802721
0.714488
0.818286
0.802248
0.776743
0.809939
0.799471
0.818411
0.715555
0.736032
0.825078
0.799243
0.802338
0.82041
0.815484
0.675103
0.806488
0.723213
0.817909
0.812502
0.839928
0.81482
0.762684
0.718411
0.809912
0.809377
0.81532
0.817889
0.806987
0.716045
0.814474
0.799239
0.723038
0.720744
0.823484
0.867855
0.802155
0.799809
0.812305
0.803112
0.802055
0.765735
0.822437
0.81977
0.769958
0.704311
0.75863
0.817541
0.777064
0.843511
0.701077
0.767228
0.80036
0.807905
0.777651
0.80084
0.795648
0.805424
0.802354
0.797849
0.814748
0.813912
0.710771
0.817083
0.813848
0.757748
0.671082
0.67729
0.797987
0.816202
0.813079
0.744743
0.802664
0.556753
0.77866
0.687096
0.763593
0.713711
0.783812
0.607003
0.793057
0.83747
0.64503
0.782102
0.737209
0.844126
0.55491
0.817191
0.800292
0.802794
0.673548
0.801532
0.663019
0.857791
0.539973
0.799867
0.635556
0.872548
0.833362
0.820735
0.745112
0.81424
0.721746
0.827002
0.737377
0.64878
0.803089
0.677868
0.823486
0.801665
0.850958
0.791776
0.703717
0.815052
0.798256
0.742424
0.852921
0.811377
0.848804
0.73673
0.743324
0.771033
0.793878
0.831768
0.834194
0.816855
0.814367
0.669623
0.804584
0.72725
0.803178
0.709664
0.797425
0.79563
0.801492
0.825804
0.763861
0.830481
0.749612
0.825745
0.81995
0.816159
0.853146
0.82941
0.704174
0.827149
0.68601
0.787814
0.810121
0.851126
0.830242
0.80845
0.794452
0.745695
0.817788
0.836739
0.817606
0.715447
0.799911
0.696412
0.792361
0.795487
0.810142
0.638741
0.807543
0.75791
0.797861
0.803086
0.759363
0.815448
0.865847
0.784161
0.691724
0.804421
0.801569
0.647424
0.792462
0.777981
0.802332
0.838978
0.815075
0.608763
0.815456
0.810095
0.797018
0.815711
0.802628
0.815357
0.814619
0.835581
0.75636
0.801813
0.834921
0.810417
0.803126
0.796116
0.81525
0.728332
0.588177
0.817047
0.829586
0.820568
0.804341
0.682788
0.815709
0.815454
0.816903
0.714247
0.797317
0.815346
0.543977
0.802804
0.86912
0.68061
0.756645
0.838734
0.827052
0.815097
0.706778
0.809412
0.815343
0.803788
0.801651
0.812127
0.836667
0.817306
0.767327
0.807015
0.803043
0.646823
0.821169
0.827978
0.672178
0.791175
0.819047
0.820833
0.679371
0.679655
0.821583
0.824217
0.809536
0.733335
0.707238
0.713955
0.733322
0.820478
0.776889
0.804139
0.73316
0.742082
0.822658
0.810394
0.819151
0.770046
0.815447
0.814105
0.817562
0.816189
0.802746
0.807545
0.803829
0.691375
0.802699
0.812778
0.69628
0.807137
0.805094
0.819622
0.785859
0.805938
0.791858
0.815232
0.821159
0.820359
0.798143
0.683036
0.711934
0.799417
0.810876
0.623985
0.803857
0.807466
0.817236
0.743635
0.804256
0.816582
0.811834
0.818027
0.80502
0.797318
0.764636
0.804295
0.843603
0.820052
0.706474
0.803636
0.70319
0.704507
0.803042
0.61521
0.770721
0.784844
0.808022
0.813765
0.825394
0.817332
0.812801
0.820369
0.828377
0.802823
0.764779
0.809759
0.65965
0.819431
0.757415
0.728246
0.689406
0.814244
0.85403
0.819458
0.808757
0.822141
0.815608
0.786928
0.75856
0.80983
0.693502
0.791226
0.843612
0.826581
0.80081
0.864077
0.813377
0.816711
0.817776
0.831024
0.630873
0.798853
0.732059
0.797898
0.735056
0.819142
0.808662
0.787428
0.683112
0.815121
0.830007
0.812182
0.802924
0.803774
0.824519
0.803834
0.712055
0.790352
0.803095
0.815068
0.814206
0.812857
0.871668
0.827951
0.809379
0.832228
0.682715
0.823583
0.837729
0.816465
0.628243
0.815587
0.809183
0.845583
0.821553
0.802936
0.593178
0.810097
0.696922
0.806103
0.802886
0.812224
0.813891
0.825202
0.805062
0.81122
0.816279
0.725114
0.862987
0.801933
0.850263
0.816644
0.575708
0.803883
0.796725
0.811877
0.817896
0.652554
0.802825
0.809637
0.812994
0.807111
0.793902
0.815894
0.817545
0.796381
0.80392
0.821629
0.836974
0.731152
0.806278
0.809697
0.81338
0.682872
0.805228
0.816212
0.799248
0.804087
0.526512
0.833066
0.764034
0.815008
0.817972
0.831009
0.846322
0.816367
0.811921
0.717054
0.798936
0.852436
0.808704
0.710306
0.800179
0.802614
0.872257
0.845396
0.819283
0.802029
0.80968
0.755704
0.8157
0.813876
0.585919
0.802654
0.730383
0.750318
0.803108
0.811688
0.781065
0.821424
0.81556
0.838164
0.81619
0.800497
0.809148
0.738553
0.737203
0.804161
0.808297
0.821266
0.802236
0.751892
0.689783
0.813906
0.815199
0.814015
0.59565
0.813998
0.816835
0.824905
0.803049
0.808874
0.819852
0.811849
0.839566
0.803003
0.812681
0.823876
0.815892
0.817909
0.821655
0.690159
0.784276
0.79502
0.803144
0.847723
0.802076
0.802897
0.635831
0.81102
0.813819
0.810775
0.819281
0.805787
0.813466
0.727386
0.843739
0.707097
0.800424
0.817594
0.80725
0.656382
0.681361
0.815449
0.805687
0.80427
0.785675
0.80155
0.829427
0.813763
0.804994
0.802165
0.812558
0.620292
0.81269
0.803071
0.700104
0.815777
0.620429
0.784279
0.815794
0.837883
0.806172
0.81284
0.792708
0.795733
0.804074
0.801457
0.812344
0.811139
0.809267
0.803257
0.757344
0.804104
0.812891
0.812336
0.816399
0.811859
0.816211
0.815261
0.83436
0.738964
0.806694
0.815944
0.802468
0.543898
0.683756
0.811309
0.813631
0.815527
0.780433
0.808395
0.812839
0.803216
0.799956
0.802765
0.820084
0.820925
0.815335
0.785114
0.80836
0.805929
0.55949
0.774097
0.757762
0.806633
0.73589
0.677628
0.797665
0.767749
0.8279
0.815291
0.815048
0.808398
0.541625
0.815666
0.584457
0.697588
0.824867
0.869771
0.742138
0.816842
0.852983
0.695564
0.81567
0.809054
0.814921
0.807341
0.656812
0.854666
0.737382
0.730921
0.803362
0.804618
0.799583
0.833442
0.815522
0.691612
0.815649
0.800311
0.693374
0.839667
0.798225
0.622844
0.773076
0.815985
0.808164
0.815165
0.784481
0.726126
0.770475
0.837108
0.688993
0.816252
0.817524
0.827124
0.765507
0.822287
0.692627
0.80462
0.661129
0.701077
0.800654
0.822832
0.788764
0.814951
0.815699
0.815542
0.814361
0.578496
0.802569
0.815338
0.743606
0.810112
0.815731
0.812149
0.715049
0.691441
0.741575
0.621886
0.807321
0.682244
0.815961
0.801928
0.815345
0.837066
0.687788
0.804666
0.819995
0.832573
0.738571
0.782076
0.764875
0.773271
0.812574
0.571013
0.674591
0.815627
0.805372
0.812541
0.8046
0.713615
0.780498
0.725399
0.760585
0.799721
0.8321
0.812291
0.691638
0.823614
0.818009
0.811252
0.687184
0.691879
0.68232
0.872212
0.816183
0.816857
0.609918
0.711733
0.64194
0.803503
0.800418
0.67229
0.812018
0.8246
0.74972
0.799613
0.730507
0.814476
0.692822
0.81511
0.810548
0.801725
0.803117
0.825673
0.744569
0.816058
0.815339
0.780493
0.555958
0.816428
0.811234
0.758291
0.814248
0.747425
0.803002
0.826591
0.662045
0.818407
0.802734
0.810027
0.584881
0.639558
0.735604
0.806434
0.812392
0.811141
0.8213
0.814888
0.816269
0.704795
0.801963
0.813426
0.826443
0.703861
0.727182
0.8126
0.812059
0.696879
0.814414
0.774671
0.701416
0.811954
0.696346
0.804479
0.662975
0.802903
0.730076
0.667774
0.811466
0.786297
0.744569
0.631733
0.840232
0.821119
0.815171
0.770603
0.814568
0.800165
0.786329
0.800015
0.80175
0.8154
0.732542
0.809767
0.800115
0.819041
0.599303
0.801476
0.813198
0.814147
0.811878
0.812425
0.746665
0.803204
0.764296
0.751169
0.81887
0.648188
0.818803
0.817932
0.803116
0.815852
0.817081
0.721651
0.768498
0.822339
0.785598
0.8038
0.816295
0.87514
0.81824
0.798579
0.81711
0.815658
0.794052
0.818757
0.817122
0.773465
0.699608
0.841366
0.797087
0.803208
0.822662
0.781358
0.818124
0.824849
0.818927
0.817179
0.870624
0.803138
0.804967
0.818535
0.803132
0.815736
0.807013
0.736475
0.815654
0.819967
0.753846
0.709717
0.815532
0.843389
0.822408
0.655889
0.822
0.773877
0.808614
0.802014
0.730133
0.803144
0.798787
0.815551
0.817148
0.69495
0.705747
0.802286
0.78767
0.801718
0.824974
0.721839
0.815332
0.802505
0.800307
0.823538
0.815753
0.713856
0.815968
0.763437
0.802504
0.832659
0.803421
0.773657
0.797946
0.79467
0.81541
0.597636
0.815305
0.694135
0.680375
0.803524
0.819797
0.815346
0.802621
0.815442
0.808634
0.724811
0.787766
0.857253
0.803056
0.833634
0.807489
0.544802
0.762219
0.780187
0.648806
0.738239
0.579756
0.820258
0.813638
0.81416
0.802478
0.766894
0.685375
0.764802
0.75231
0.78221
0.815277
0.845001
0.819638
0.805885
0.819338
0.823874
0.802737
0.807697
0.706031
0.803217
0.756552
0.808734
0.797964
0.752053
0.822521
0.788551
0.803611
0.790101
0.841031
0.728298
0.800961
0.799567
0.804944
0.617997
0.815789
0.815673
0.821914
0.632868
0.815558
0.81555
0.798632
0.803901
0.793316
0.7756
0.806388
0.794873
0.816257
0.753114
0.804073
0.875353
0.763039
0.748347
0.807254
0.784058
0.84274
0.800171
0.779902
0.815659
0.798265
0.792644
0.808117
0.825769
0.835891
0.799788
0.574844
0.820662
0.828419
0.772237
0.830922
0.83835
0.823067
0.826458
0.80733
0.833079
0.827023
0.783843
0.809046
0.811666
0.806587
0.82291
0.803418
0.827383
0.792999
0.803313
0.805803
0.727131
0.807156
0.562138
0.818209
0.825504
0.828792
0.805864
0.81819
0.824102
0.819434
0.821028
0.838933
0.833265
0.788181
0.800401
0.821913
0.815641
0.817212
0.800309
0.806431
0.865649
0.820259
0.847488
0.815369
0.800696
0.824629
0.799811
0.833474
0.813702
0.815544
0.80532
0.727047
0.802942
0.804556
0.815363
0.80336
0.802233
0.822101
0.804624
0.804204
0.778067
0.819747
0.717926
0.814198
0.780598
0.759111
0.803588
0.813303
0.818977
0.715779
0.819547
0.815223
0.826562
0.817315
0.789874
0.816556
0.847371
0.833165
0.815081
0.811742
0.801607
0.74412
0.678698
0.815408
0.820616
0.771161
0.814615
0.807786
0.812047
0.80544
0.798569
0.77627
0.802411
0.800077
0.841552
0.817628
0.811428
0.80632
0.603766
0.731665
0.802189
0.783603
0.804114
0.81593
0.805932
0.816338
0.779927
0.815469
0.804805
0.810947
0.803731
0.818059
0.803171
0.816132
0.811125
0.816082
0.813048
0.717801
0.814677
0.815952
0.597626
0.815239
0.796795
0.802827
0.858857
0.818509
0.810947
0.872551
0.815553
0.815642
0.81708
0.819037
0.815473
0.764396
0.830296
0.801351
0.803155
0.814725
0.815524
0.816964
0.815405
0.81362
0.822878
0.803942
0.812706
0.809059
0.81521
0.819968
0.81543
0.811994
0.819452
0.808916
0.694786
0.659997
0.802613
0.808605
0.803317
0.811507
0.818561
0.817293
0.802873
0.803878
0.800577
0.800815
0.8171
0.84445
0.818747
0.811526
0.818674
0.818374
0.846117
0.817665
0.821089
0.785692
0.81601
0.806776
0.801313
0.79205
0.810957
0.818691
0.815263
0.815411
0.835977
0.806277
0.812986
0.81681
0.821531
0.803482
0.803187
0.805491
0.811148
0.815364
0.801537
0.803213
0.817126
0.822486
0.800802
0.621998
0.804225
0.796994
0.817262
0.798617
0.802727
0.748439
0.840938
0.80272
0.799735
0.834913
0.829863
0.810205
0.826354
0.800452
0.818051
0.817577
0.818891
0.803571
0.818479
0.72882
0.822466
0.811497
0.800093
0.813037
0.820687
0.799118
0.80396
0.782556
0.81513
0.815644
0.815746
0.81868
0.806395
0.817271
0.816004
0.826111
0.821962
0.837772
0.805905
0.695413
0.81811
0.840669
0.819932
0.804574
0.800011
0.803317
0.81638
0.814089
0.816193
0.74388
0.738675
0.800724
0.802929
0.815873
0.816723
0.798906
0.653816
0.708492
0.807992
0.768933
0.816064
0.703607
0.803025
0.728255
0.803162
0.819967
0.803099
0.817492
0.81299
0.798534
0.808552
0.793635
0.829814
0.815772
0.801181
0.803454
0.816034
0.821779
0.749623
0.822749
0.803689
0.783105
0.815652
0.803794
0.810488
0.814895
0.815246
0.835389
0.792885
0.798948
0.815534
0.759063
0.806577
0.815023
0.800964
0.816127
0.841211
0.802212
0.843301
0.808774
0.790454
0.812058
0.802598
0.852
0.788433
0.803124
0.816197
0.83171
0.808332
0.813919
0.815897
0.802796
0.802661
0.825913
0.78278
0.814472
0.815503
0.645754
0.815699
0.712787
0.817578
0.838313
0.824582
0.80395
0.814763
0.815395
0.725885
0.814968
0.800812
0.801516
0.800812
0.815884
0.863909
0.801184
0.800943
0.78542
0.840727
0.827925
0.81969
0.813373
0.746892
0.803579
0.803298
0.730892
0.799426
0.714513
0.810609
0.800891
0.676621
0.880302
0.702541
0.772144
0.8013
0.743594
0.808324
0.798885
0.803006
0.66063
0.796704
0.784119
0.79895
0.729478
0.818799
0.822538
0.884618
0.809401
0.831345
0.645425
0.799923
0.78694
0.744843
0.751686
0.769246
0.70651
0.803076
0.799275
0.803151
0.763852
0.627586
0.81138
0.613456
0.821155
0.822831
0.81145
0.736748
0.812085
0.795547
0.819164
0.782794
0.807291
0.797094
0.810101
0.716808
0.801416
0.722623
0.801261
0.798723
0.686978
0.80358
0.815317
0.815372
0.803058
0.761312
0.815125
0.731924
0.690925
0.802259
0.815373
0.8745
0.815283
0.814597
0.880642
0.86551
0.830921
0.717336
0.801928
0.811843
0.821337
0.798073
0.681944
0.722805
0.677303
0.802334
0.703682
0.768612
0.799343
0.618367
0.689754
0.836132
0.773717
0.745562
0.830528
0.759374
0.769143
0.642419
0.731667
0.785214
0.819698
0.869576
0.837837
0.815659
0.794687
0.799607
0.716177
0.815538
0.694281
0.796978
0.81536
0.783447
0.762647
0.801721
0.782902
0.802184
0.800681
0.811789
0.811041
0.867213
0.5776
0.540886
0.802354
0.80703
0.698774
0.809996
0.80277
0.837571
0.803451
0.80233
0.568558
0.558436
0.808357
0.812459
0.815462
0.727304
0.803116
0.810543
0.685095
0.811505
0.80266
0.814015
0.803135
0.800577
0.802204
0.814463
0.802901
0.816971
0.803212
0.862148
0.814821
0.802461
0.721016
0.67093
0.815454
0.586705
0.81274
0.810016
0.835924
0.8139
0.803022
0.810697
0.81351
0.813177
0.815135
0.80157
0.853994
0.856543
0.80228
0.656508
0.808489
0.822354
0.799396
0.803134
0.820004
0.734756
0.803206
0.825223
0.821327
0.815689
0.815306
0.766769
0.745325
0.800816
0.834041
0.802851
0.814312
0.804505
0.803714
0.805039
0.814137
0.808841
0.798717
0.806838
0.806028
0.824529
0.806646
0.80624
0.817563
0.806857
0.803336
0.813237
0.802921
0.802792
0.805768
0.807831
0.813371
0.773752
0.805291
0.802668
0.815297
0.79967
0.803713
0.806828
0.831868
0.804993
0.651626
0.800746
0.815404
0.80462
0.814725
0.763242
0.81519
0.751017
0.803628
0.802158
0.80402
0.818905
0.851094
0.804325
0.803221
0.746848
0.829608
0.815267
0.820387
0.82489
0.814788
0.737254
0.818099
0.72308
0.801047
0.8276
0.802361
0.701334
0.825844
0.814741
0.816378
0.824111
0.815634
0.773436
0.817159
0.650527
0.711675
0.815358
0.822603
0.677676
0.819291
0.659127
0.82142
0.806834
0.816674
0.80314
0.805622
0.814892
0.831697
0.825072
0.672513
0.81334
0.842086
0.78155
0.846344
0.800232
0.707005
0.83856
0.819512
0.835599
0.68971
0.685315
0.832929
0.659735
0.830641
0.815364
0.828618
0.80628
0.826907
0.787745
0.82541
0.824026
0.708598
0.865718
0.822839
0.821837
0.82359
0.75948
0.802808
0.526233
0.803287
0.820966
0.813791
0.804749
0.825956
0.815335
0.798024
0.820202
0.802963
0.682466
0.792443
0.834219
0.814689
0.716717
0.799415
0.821547
0.577515
0.815027
0.815825
0.802648
0.809916
0.726844
0.817956
0.802995
0.803455
0.795985
0.794151
0.797939
0.794667
0.80325
0.812732
0.819315
0.814338
0.573688
0.89303
0.707212
0.797888
0.740153
0.791487
0.81531
0.815928
0.815822
0.605481
0.819101
0.817206
0.803907
0.818075
0.836698
0.839531
0.782935
0.798427
0.799483
0.726137
0.75316
0.815519
0.764224
0.815173
0.819199
0.815086
0.813494
0.801923
0.775624
0.812054
0.816327
0.728915
0.810594
0.816117
0.81828
0.807804
0.809472
0.76508
0.814908
0.808195
0.803152
0.807435
0.617598
0.8065
0.804331
0.805919
0.821444
0.8456
0.804705
0.774605
0.80528
0.771654
0.82041
0.806015
0.813088
0.815321
0.850225
0.803383
0.744607
0.819775
0.815518
0.727537
0.800964
0.816464
0.7586
0.812968
0.570441
0.806581
0.686141
0.801269
0.811199
0.812715
0.817424
0.804196
0.815862
0.817893
0.80105
0.804426
0.844479
0.816375
0.796242
0.816362
0.802056
0.801623
0.800297
0.801273
0.807279
0.814918
0.801635
0.770367
0.818597
0.813013
0.808875
0.815329
0.587786
0.803382
0.813683
0.815558
0.787756
0.748744
0.718566
0.812824
0.815173
0.826053
0.789628
0.603991
0.771753
0.641711
0.81695
0.744968
0.81255
0.830313
0.696707
0.799715
0.833943
0.750093
0.800594
0.80314
0.815774
0.802419
0.699283
0.800716
0.550542
0.801808
0.802451
0.802198
0.587954
0.802904
0.803424
0.803171
0.72886
0.737772
0.803414
0.776653
0.815882
0.722533
0.707117
0.81531
0.801338
0.752885
0.854181
0.814155
0.812604
0.669943
0.802793
0.80057
0.800483
0.802454
0.65749
0.80325
0.815561
0.65503
0.685939
0.805851
0.79061
0.815416
0.823238
0.815246
0.815455
0.816645
0.803646
0.815479
0.815178
0.813487
0.829292
0.80253
0.80182
0.810395
0.72797
0.80958
0.815034
0.86282
0.811077
0.638736
0.775002
0.802196
0.776269
0.8169
0.812044
0.830074
0.814116
0.864623
0.802023
0.814818
0.594845
0.815681
0.8339
0.802892
0.814576
0.625786
0.815567
0.802688
0.816857
0.80222
0.817701
0.816172
0.754571
0.803566
0.80311
0.835168
0.861946
0.819631
0.816315
0.724779
0.742235
0.802507
0.803036
0.812083
0.81823
0.799582
0.802864
0.819635
0.806688
0.807546
0.739232
0.802703
0.817657
0.814085
0.768533
0.760428
0.811905
0.796457
0.857056
0.719088
0.83464
0.811173
0.711005
0.799723
0.814674
0.787469
0.800706
0.799738
0.815297
0.777593
0.774458
0.813662
0.696826
0.798706
0.76584
0.815172
0.817461
0.802017
0.787794
0.738902
0.752664
0.774163
0.814911
0.81911
0.805943
0.664989
0.80229
0.795944
0.777865
0.809752
0.813216
0.799573
0.803235
0.635817
0.804075
0.804695
0.851381
0.8037
0.809105
0.833385
0.805371
0.810324
0.85229
0.614376
0.804033
0.816373
0.805408
0.805018
0.805714
0.804577
0.804682
0.804193
0.805803
0.806388
0.725074
0.805698
0.807075
0.806901
0.815306
0.808199
0.818632
0.803087
0.803507
0.81493
0.81509
0.81025
0.803327
0.816238
0.813222
0.809924
0.81624
0.708976
0.814182
0.8316
0.815193
0.85435
0.749957
0.808252
0.815297
0.800926
0.611079
0.803249
0.77254
0.822037
0.627857
0.81582
0.829624
0.814954
0.81199
0.802092
0.827176
0.819276
0.803612
0.764984
0.817272
0.758615
0.548756
0.814656
0.693967
0.695766
0.820406
0.827755
0.827586
0.816883
0.847618
0.577041
0.876966
0.805256
0.826063
0.824402
0.8132
0.682715
0.815158
0.822872
0.816606
0.80113
0.773672
0.822279
0.567116
0.813263
0.843276
0.803129
0.839724
0.821643
0.803251
0.670392
0.843434
0.820595
0.836544
0.8009
0.813981
0.803038
0.833916
0.802824
0.81392
0.831497
0.829357
0.822038
0.824444
0.830872
0.738786
0.662988
0.567092
0.827517
0.825997
0.76754
0.756846
0.806591
0.824573
0.846881
0.592843
0.823297
0.822211
0.821306
0.819789
0.803963
0.820797
0.659905
0.744819
0.82051
0.797483
0.870244
0.89015
0.776548
0.804134
0.669995
0.835566
0.731362
0.719799
0.819148
0.801677
0.78354
0.663388
0.802165
0.815353
0.788926
0.713003
0.800703
0.81717
0.798022
0.679091
0.823567
0.792844
0.815993
0.833394
0.81517
0.795922
0.81642
0.816189
0.785889
0.804011
0.711901
0.84067
0.793095
0.811308
0.782023
0.804407
0.698059
0.80081
0.813504
0.812137
0.810969
0.809446
0.808352
0.807594
0.805964
0.804847
0.806773
0.726177
0.8054
0.801428
0.795925
0.8033
0.84451
0.716189
0.803194
0.776184
0.883994
0.854526
0.798014
0.724311
0.803356
0.797714
0.719915
0.803314
0.801732
0.734906
0.80367
0.790185
0.79739
0.801114
0.737716
0.779983
0.804661
0.74776
0.764455
0.769754
0.801436
0.814939
0.80861
0.759047
0.751431
0.799527
0.814035
0.803303
0.793089
0.801101
0.928612
0.860607
0.817906
0.815203
0.723321
0.844432
0.74783
0.826113
0.816615
0.898156
0.815356
0.797229
0.589617
0.81538
0.797346
0.815408
0.797766
0.845625
0.523708
0.832952
0.801548
0.805634
0.804892
0.8038
0.856015
0.801282
0.817605
0.701912
0.666699
0.667097
0.815445
0.50562
0.797753
0.722416
0.841878
0.814858
0.559198
0.8022
0.814855
0.814543
0.719317
0.80173
0.525842
0.797289
0.815567
0.797412
0.802716
0.797653
0.815723
0.834008
0.80324
0.798363
0.816096
0.798629
0.81624
0.814127
0.798915
0.816405
0.814039
0.816598
0.799031
0.816815
0.679936
0.799227
0.817059
0.803056
0.79942
0.817305
0.698672
0.815363
0.798288
0.815333
0.798481
0.810249
0.838448
0.861376
0.800949
0.80051
0.818226
0.815383
0.800151
0.799774
0.863681
0.812365
0.817904
0.810702
0.849974
0.828678
0.816877
0.825788
0.846325
0.815308
0.801645
0.819444
0.811747
0.802074
0.815186
0.800074
0.807641
0.783179
0.806882
0.815358
0.810941
0.820542