# vtk DataFile Version 1.0
unstructured grid
ascii
DATASET UNSTRUCTURED_GRID
points 3920 float
-1 0 0
-1 1 0
2 0 0
2 1 0
0 0 0
1 0 0
-1 1 0.1
-1 0 0.1
0 0 0.1
1 0 0.1
2 0 0.1
2 1 0.1
-0.98 0 0
-0.96 0 0
-0.94 0 0
-0.92 0 0
-0.9 0 0
-0.88 0 0
-0.86 0 0
-0.84 0 0
-0.82 0 0
-0.8 0 0
-0.78 0 0
-0.76 0 0
-0.74 0 0
-0.72 0 0
-0.7 0 0
-0.68 0 0
-0.66 0 0
-0.64 0 0
-0.62 0 0
-0.6 0 0
-0.58 0 0
-0.56 0 0
-0.54 0 0
-0.52 0 0
-0.5 0 0
-0.48 0 0
-0.46 0 0
-0.44 0 0
-0.42 0 0
-0.4 0 0
-0.38 0 0
-0.36 0 0
-0.34 0 0
-0.32 0 0
-0.3 0 0
-0.28 0 0
-0.26 0 0
-0.24 0 0
-0.22 0 0
-0.2 0 0
-0.18 0 0
-0.16 0 0
-0.14 0 0
-0.12 0 0
-0.1 0 0
-0.08 0 0
-0.06 0 0
-0.04 0 0
-0.02 0 0
1.02 0 0
1.04 0 0
1.06 0 0
1.08 0 0
1.1 0 0
1.12 0 0
1.14 0 0
1.16 0 0
1.18 0 0
1.2 0 0
1.22 0 0
1.24 0 0
1.26 0 0
1.28 0 0
1.3 0 0
1.32 0 0
1.34 0 0
1.36 0 0
1.38 0 0
1.4 0 0
1.42 0 0
1.44 0 0
1.46 0 0
1.48 0 0
1.5 0 0
1.52 0 0
1.54 0 0
1.56 0 0
1.58 0 0
1.6 0 0
1.62 0 0
1.64 0 0
1.66 0 0
1.68 0 0
1.7 0 0
1.72 0 0
1.74 0 0
1.76 0 0
1.78 0 0
1.8 0 0
1.82 0 0
1.84 0 0
1.86 0 0
1.88 0 0
1.9 0 0
1.92 0 0
1.94 0 0
1.96 0 0
1.98 0 0
2 0.0199133 0
2 0.0414128 0
2 0.0646247 0
2 0.0896856 0
2 0.116743 0
2 0.145955 0
2 0.177494 0
2 0.211545 0
2 0.248309 0
2 0.288001 0
2 0.330854 0
2 0.377121 0
2 0.427073 0
2 0.481004 0
2 0.539231 0
2 0.602096 0
2 0.669968 0
2 0.743247 0
2 0.822362 0
2 0.907779 0
1.9 1 0
1.8 1 0
1.7 1 0
1.6 1 0
1.5 1 0
1.4 1 0
1.3 1 0
1.2 1 0
1.1 1 0
1 1 0
0.9 1 0
0.8 1 0
0.7 1 0
0.6 1 0
0.5 1 0
0.4 1 0
0.3 1 0
0.2 1 0
0.1 1 0
3.69793e-12 1 0
-0.1 1 0
-0.2 1 0
-0.3 1 0
-0.4 1 0
-0.5 1 0
-0.6 1 0
-0.7 1 0
-0.8 1 0
-0.9 1 0
-1 0.907779 0
-1 0.822362 0
-1 0.743247 0
-1 0.669968 0
-1 0.602096 0
-1 0.539231 0
-1 0.481004 0
-1 0.427073 0
-1 0.377121 0
-1 0.330854 0
-1 0.288001 0
-1 0.248309 0
-1 0.211545 0
-1 0.177494 0
-1 0.145955 0
-1 0.116743 0
-1 0.0896856 0
-1 0.0646247 0
-1 0.0414128 0
-1 0.0199133 0
0.0182781 0.00745351 0
0.0366672 0.0146286 0
0.0551632 0.0215237 0
0.0737617 0.0281372 0
0.0924585 0.0344675 0
0.111249 0.0405131 0
0.13013 0.0462728 0
0.149095 0.0517451 0
0.168142 0.0569289 0
0.187265 0.0618228 0
0.20646 0.0664258 0
0.225723 0.0707368 0
0.245049 0.0747549 0
0.264434 0.078479 0
0.283873 0.0819084 0
0.303362 0.0850422 0
0.322896 0.0878798 0
0.342472 0.0904204 0
0.362083 0.0926635 0
0.381726 0.0946086 0
0.401397 0.0962552 0
0.42109 0.0976029 0
0.440802 0.0986514 0
0.460527 0.0994006 0
0.480261 0.0998501 0
0.5 0.1 0
0.519739 0.0998501 0
0.539473 0.0994006 0
0.559198 0.0986514 0
0.57891 0.0976029 0
0.598603 0.0962552 0
0.618274 0.0946086 0
0.637917 0.0926635 0
0.657528 0.0904204 0
0.677104 0.0878798 0
0.696638 0.0850422 0
0.716127 0.0819084 0
0.735566 0.078479 0
0.754951 0.0747549 0
0.774277 0.0707368 0
0.79354 0.0664258 0
0.812735 0.0618228 0
0.831858 0.0569289 0
0.850905 0.0517451 0
0.86987 0.0462728 0
0.888751 0.0405131 0
0.907542 0.0344675 0
0.926238 0.0281372 0
0.944837 0.0215237 0
0.963333 0.0146286 0
0.981722 0.00745351 0
-1 0.907779 0.1
-1 0.822362 0.1
-1 0.743247 0.1
-1 0.669968 0.1
-1 0.602096 0.1
-1 0.539231 0.1
-1 0.481004 0.1
-1 0.427073 0.1
-1 0.377121 0.1
-1 0.330854 0.1
-1 0.288001 0.1
-1 0.248309 0.1
-1 0.211545 0.1
-1 0.177494 0.1
-1 0.145955 0.1
-1 0.116743 0.1
-1 0.0896856 0.1
-1 0.0646247 0.1
-1 0.0414128 0.1
-1 0.0199133 0.1
-0.98 0 0.1
-0.96 0 0.1
-0.94 0 0.1
-0.92 0 0.1
-0.9 0 0.1
-0.88 0 0.1
-0.86 0 0.1
-0.84 0 0.1
-0.82 0 0.1
-0.8 0 0.1
-0.78 0 0.1
-0.76 0 0.1
-0.74 0 0.1
-0.72 0 0.1
-0.7 0 0.1
-0.68 0 0.1
-0.66 0 0.1
-0.64 0 0.1
-0.62 0 0.1
-0.6 0 0.1
-0.58 0 0.1
-0.56 0 0.1
-0.54 0 0.1
-0.52 0 0.1
-0.5 0 0.1
-0.48 0 0.1
-0.46 0 0.1
-0.44 0 0.1
-0.42 0 0.1
-0.4 0 0.1
-0.38 0 0.1
-0.36 0 0.1
-0.34 0 0.1
-0.32 0 0.1
-0.3 0 0.1
-0.28 0 0.1
-0.26 0 0.1
-0.24 0 0.1
-0.22 0 0.1
-0.2 0 0.1
-0.18 0 0.1
-0.16 0 0.1
-0.14 0 0.1
-0.12 0 0.1
-0.1 0 0.1
-0.08 0 0.1
-0.06 0 0.1
-0.04 0 0.1
-0.02 0 0.1
0.0182781 0.00745351 0.1
0.0366672 0.0146286 0.1
0.0551632 0.0215237 0.1
0.0737617 0.0281372 0.1
0.0924585 0.0344675 0.1
0.111249 0.0405131 0.1
0.13013 0.0462728 0.1
0.149095 0.0517451 0.1
0.168142 0.0569289 0.1
0.187265 0.0618228 0.1
0.20646 0.0664258 0.1
0.225723 0.0707368 0.1
0.245049 0.0747549 0.1
0.264434 0.078479 0.1
0.283873 0.0819084 0.1
0.303362 0.0850422 0.1
0.322896 0.0878798 0.1
0.342472 0.0904204 0.1
0.362083 0.0926635 0.1
0.381726 0.0946086 0.1
0.401397 0.0962552 0.1
0.42109 0.0976029 0.1
0.440802 0.0986514 0.1
0.460527 0.0994006 0.1
0.480261 0.0998501 0.1
0.5 0.1 0.1
0.519739 0.0998501 0.1
0.539473 0.0994006 0.1
0.559198 0.0986514 0.1
0.57891 0.0976029 0.1
0.598603 0.0962552 0.1
0.618274 0.0946086 0.1
0.637917 0.0926635 0.1
0.657528 0.0904204 0.1
0.677104 0.0878798 0.1
0.696638 0.0850422 0.1
0.716127 0.0819084 0.1
0.735566 0.078479 0.1
0.754951 0.0747549 0.1
0.774277 0.0707368 0.1
0.79354 0.0664258 0.1
0.812735 0.0618228 0.1
0.831858 0.0569289 0.1
0.850905 0.0517451 0.1
0.86987 0.0462728 0.1
0.888751 0.0405131 0.1
0.907542 0.0344675 0.1
0.926238 0.0281372 0.1
0.944837 0.0215237 0.1
0.963333 0.0146286 0.1
0.981722 0.00745351 0.1
1.02 0 0.1
1.04 0 0.1
1.06 0 0.1
1.08 0 0.1
1.1 0 0.1
1.12 0 0.1
1.14 0 0.1
1.16 0 0.1
1.18 0 0.1
1.2 0 0.1
1.22 0 0.1
1.24 0 0.1
1.26 0 0.1
1.28 0 0.1
1.3 0 0.1
1.32 0 0.1
1.34 0 0.1
1.36 0 0.1
1.38 0 0.1
1.4 0 0.1
1.42 0 0.1
1.44 0 0.1
1.46 0 0.1
1.48 0 0.1
1.5 0 0.1
1.52 0 0.1
1.54 0 0.1
1.56 0 0.1
1.58 0 0.1
1.6 0 0.1
1.62 0 0.1
1.64 0 0.1
1.66 0 0.1
1.68 0 0.1
1.7 0 0.1
1.72 0 0.1
1.74 0 0.1
1.76 0 0.1
1.78 0 0.1
1.8 0 0.1
1.82 0 0.1
1.84 0 0.1
1.86 0 0.1
1.88 0 0.1
1.9 0 0.1
1.92 0 0.1
1.94 0 0.1
1.96 0 0.1
1.98 0 0.1
2 0.0199133 0.1
2 0.0414128 0.1
2 0.0646247 0.1
2 0.0896856 0.1
2 0.116743 0.1
2 0.145955 0.1
2 0.177494 0.1
2 0.211545 0.1
2 0.248309 0.1
2 0.288001 0.1
2 0.330854 0.1
2 0.377121 0.1
2 0.427073 0.1
2 0.481004 0.1
2 0.539231 0.1
2 0.602096 0.1
2 0.669968 0.1
2 0.743247 0.1
2 0.822362 0.1
2 0.907779 0.1
1.9 1 0.1
1.8 1 0.1
1.7 1 0.1
1.6 1 0.1
1.5 1 0.1
1.4 1 0.1
1.3 1 0.1
1.2 1 0.1
1.1 1 0.1
1 1 0.1
0.9 1 0.1
0.8 1 0.1
0.7 1 0.1
0.6 1 0.1
0.5 1 0.1
0.4 1 0.1
0.3 1 0.1
0.2 1 0.1
0.1 1 0.1
3.69793e-12 1 0.1
-0.1 1 0.1
-0.2 1 0.1
-0.3 1 0.1
-0.4 1 0.1
-0.5 1 0.1
-0.6 1 0.1
-0.7 1 0.1
-0.8 1 0.1
-0.9 1 0.1
1.08758 0.0158154 0
-0.0898513 0.0203294 0
0.0966181 0.0537636 0
0.90205 0.0548881 0
1.21055 0.0202058 0
-0.209811 0.0159577 0
1.3305 0.0176902 0
-0.33 0.0173205 0
1.45324 0.0148141 0
-0.448654 0.0159854 0
1.56842 0.0191785 0
-0.569936 0.0166364 0
0.193292 0.0805369 0
0.805051 0.0813623 0
0.709096 0.100353 0
0.288591 0.0996656 0
0.390184 0.111848 0
0.61033 0.111742 0
0.488809 0.116278 0
1.67175 0.0169692 0
-0.67 0.0169809 0
-0.955017 0.454039 0
1.95131 0.44569 0
1.74981 0.0168753 0
-0.75 0.0173205 0
-0.968032 0.266538 0
1.96871 0.266267 0
0.978232 0.0305687 0
0.0208675 0.026451 0
-0.150454 0.91842 0
1.13854 0.907437 0
1.45012 0.904365 0
-0.445923 0.908903 0
-0.853423 0.0157019 0
1.84881 0.016319 0
0.853689 0.915652 0
0.153944 0.912184 0
0.545151 0.914125 0
0.549913 0.115152 0
1.51 0.0173205 0
-0.506989 0.01651 0
1.27 0.0173205 0
1.14976 0.0173333 0
-0.268171 0.0206442 0
-0.150501 0.0153244 0
-0.391384 0.0153993 0
1.38886 0.0171544 0
-0.973694 0.161724 0
1.97441 0.162392 0
-0.945221 0.633523 0
1.94544 0.63312 0
1.91008 0.0186068 0
-0.91 0.0169616 0
-0.030664 0.0194327 0
1.03074 0.0165456 0
-0.966065 0.353575 0
1.96128 0.359765 0
1.93879 0.781254 0
-0.937057 0.781882 0
-0.980746 0.080709 0
1.9772 0.0760699 0
0.058735 0.0409372 0
0.355202 0.913001 0
0.86356 0.0661005 0
0.134223 0.0651111 0
0.941972 0.0397386 0
-0.653034 0.915003 0
1.65328 0.904589 0
0.770126 0.0881325 0
0.232946 0.0902008 0
0.330582 0.105648 0
0.670612 0.108365 0
0.428707 0.116145 0
1.80993 0.016629 0
-0.810168 0.0172178 0
-0.71 0.0173205 0
1.63047 0.0175504 0
1.70842 0.0169661 0
-0.628824 0.0181787 0
-0.949815 0.0133898 0
1.95 0.0173205 0
1.85542 0.907891 0
-0.85 0.913397 0
1.9833 0.0307692 0
-0.983315 0.0309709 0
-0.750025 0.916468 0
-0.701107 0.836904 0
-0.607741 0.836428 0
-0.656448 0.759827 0
-0.572936 0.758144 0
-0.61411 0.691195 0
-0.539534 0.689068 0
-0.578542 0.626111 0
-0.507461 0.624216 0
-0.544001 0.566638 0
-0.477696 0.564279 0
-0.511582 0.51001 0
-0.451689 0.507147 0
-0.481834 0.457732 0
-0.426137 0.454624 0
-0.453236 0.407539 0
-0.398845 0.406233 0
-0.507958 0.409496 0
-0.368427 0.460177 0
-0.344602 0.405209 0
-0.315696 0.447824 0
-0.294128 0.402169 0
-0.262844 0.444518 0
-0.241968 0.388746 0
-0.209878 0.439557 0
-0.185184 0.391135 0
-0.156687 0.437338 0
-0.133719 0.390776 0
-0.104405 0.434306 0
-0.0818745 0.388334 0
-0.0528785 0.431165 0
-0.0305984 0.385639 0
-0.00180552 0.427863 0
0.0194564 0.382608 0
0.0485809 0.42449 0
0.0701962 0.37973 0
0.0985483 0.421145 0
0.119893 0.377339 0
0.147837 0.417911 0
0.172552 0.36751 0
0.197018 0.412597 0
0.221203 0.37141 0
0.24512 0.409646 0
-0.48178 0.364657 0
-0.531053 0.364782 0
-0.0599102 0.344151 0
-0.324909 0.359566 0
0.266181 0.368462 0
0.292132 0.407649 0
0.311992 0.365779 0
0.338918 0.404821 0
0.357567 0.355909 0
0.384723 0.40053 0
0.404675 0.359681 0
0.430617 0.398558 0
0.450457 0.35827 0
0.474237 0.395182 0
0.496746 0.34898 0
0.520548 0.397931 0
0.542071 0.353121 0
0.566011 0.389914 0
0.585061 0.350856 0
0.609352 0.38696 0
0.629069 0.348168 0
0.655979 0.391217 0
0.67472 0.346182 0
0.699346 0.381414 0
0.719333 0.341965 0
0.743718 0.377547 0
0.764028 0.339036 0
0.788201 0.373582 0
0.807659 0.336101 0
0.832821 0.372249 0
0.852309 0.334017 0
0.877785 0.370339 0
0.897875 0.331141 0
0.922904 0.366281 0
0.943173 0.327335 0
0.968282 0.363358 0
0.989029 0.324222 0
1.01391 0.361511 0
1.03465 0.321428 0
1.05949 0.358447 0
1.08389 0.312052 0
1.10575 0.355104 0
1.12889 0.31562 0
1.15067 0.353235 0
1.17157 0.312819 0
1.19626 0.349369 0
1.21618 0.309863 0
1.2416 0.346914 0
1.26131 0.30715 0
1.28691 0.344312 0
1.30571 0.303752 0
1.33144 0.341222 0
1.35018 0.300911 0
1.3758 0.338308 0
1.39501 0.298931 0
1.42015 0.335235 0
1.43904 0.296349 0
1.46355 0.330194 0
1.48256 0.293347 0
1.50685 0.326967 0
1.52589 0.29055 0
1.54996 0.325305 0
1.56909 0.287929 0
[...]
CELL_DATA 3694
SCALARS rho float
LOOKUP_TABLE default
0.734609
0.669682
0.803666
0.812409
0.826078
0.804923
0.791386
0.799556
0.809429
0.802505
0.816752
0.816746
0.840061
0.7891
0.800388
0.749539
0.803153
0.802751
0.759349
0.84967
0.816753
0.822529
0.695583
0.803244
0.692147
0.838937
0.719715
0.805825
0.836569
0.798214
0.798415
0.718314
0.80331
0.824259
0.802543
0.796831
0.836827
0.822327
0.824354
0.778077
0.804473
0.817119
0.833898
0.824826
0.80493
0.812295
0.800365
0.663043
0.678476
0.719321
0.801913
0.802857
0.846429
0.801875
0.626693
0.837726
0.802357
0.818531
0.83245
0.753503
0.796042
0.814473
0.841695
0.799171
0.842209
0.830389
0.8072
0.812946
0.7365
0.857965
0.803074
0.80741
0.822552
0.803117
0.823966
0.80283
0.81398
0.799277
0.813335
0.802605
0.712354
0.817934
0.802144
0.776676
0.809297
0.799229
0.817875
0.713481
0.736258
0.82466
0.798677
0.802182
0.82003
0.814959
0.674083
0.806328
0.722439
0.817243
0.81175
0.839547
0.814048
0.761699
0.719048
0.809233
0.808735
0.814469
0.81722
0.806827
0.714907
0.813794
0.799064
0.721053
0.721274
0.823069
0.867598
0.802003
0.799233
0.811551
0.803059
0.801905
0.765494
0.822258
0.819207
0.769294
0.704895
0.757963
0.816889
0.776285
0.843204
0.69905
0.766962
0.800161
0.807743
0.777221
0.800476
0.795115
0.805275
0.802251
0.797578
0.81398
0.813216
0.709361
0.816409
0.813033
0.757093
0.665455
0.676279
0.797706
0.815463
0.81291
0.743464
0.802564
0.553088
0.778058
0.683436
0.762625
0.712892
0.783221
0.605213
0.79282
0.837315
0.643702
0.781746
0.736457
0.843742
0.551338
0.817009
0.800015
0.802439
0.672485
0.801455
0.661507
0.857488
0.533095
0.799695
0.631027
0.872127
0.832902
0.820183
0.745029
0.813564
0.722025
0.826482
0.737324
0.647493
0.803015
0.673223
0.822935
0.801543
0.85062
0.791559
0.705096
0.814187
0.797976
0.741309
0.852529
0.811203
0.848519
0.735984
0.742004
0.77056
0.793337
0.831295
0.834047
0.816691
0.813583
0.667981
0.804442
0.725947
0.803104
0.707189
0.796944
0.795461
0.801325
0.825271
0.762926
0.829995
0.748936
0.825212
0.819418
0.815416
0.852798
0.829249
0.701739
0.826631
0.688614
0.787527
0.809538
0.850788
0.829778
0.807773
0.794163
0.74444
0.817116
0.83633
0.816929
0.714061
0.799319
0.693659
0.791747
0.795317
0.809521
0.63609
0.807357
0.757026
0.797667
0.803035
0.758619
0.814634
0.86545
0.784069
0.692866
0.804243
0.801236
0.646099
0.791791
0.777553
0.802273
0.83866
0.81423
0.606965
0.814656
0.809959
0.796372
0.814933
0.802527
0.815187
0.814142
0.835426
0.755623
0.801702
0.834475
0.810072
0.803076
0.795911
0.814394
0.72832
0.586296
0.816377
0.829439
0.819974
0.804039
0.679705
0.814931
0.814658
0.816367
0.71199
0.796838
0.814498
0.536736
0.802734
0.868906
0.676319
0.755549
0.838337
0.826641
0.814235
0.707929
0.809246
0.814493
0.803653
0.801463
0.81195
0.836345
0.816952
0.766832
0.806855
0.802967
0.645535
0.820572
0.82747
0.67053
0.790551
0.818409
0.820709
0.678042
0.686362
0.820995
0.823683
0.80937
0.733629
0.706096
0.712827
0.731609
0.819879
0.776108
0.803999
0.731434
0.742016
0.822101
0.809761
0.818772
0.76938
0.814632
0.813307
0.816887
0.815509
0.802658
0.807361
0.803517
0.692804
0.802628
0.81259
0.693253
0.80678
0.804947
0.818996
0.785557
0.805761
0.791612
0.814381
0.820562
0.819749
0.797849
0.679578
0.709518
0.79925
0.810711
0.621068
0.803725
0.807113
0.817068
0.742524
0.804112
0.815922
0.811073
0.817366
0.804877
0.797128
0.763838
0.80394
0.843218
0.819702
0.707585
0.803443
0.701144
0.705008
0.802905
0.613816
0.770237
0.784548
0.807901
0.812901
0.824922
0.816679
0.812316
0.819759
0.827888
0.802758
0.763989
0.809594
0.657952
0.818817
0.756682
0.726922
0.685871
0.813447
0.853765
0.818844
0.808407
0.82192
0.814818
0.786635
0.75767
0.809138
0.692581
0.791003
0.843282
0.826438
0.800678
0.863802
0.813208
0.816117
0.817103
0.830878
0.628263
0.798252
0.730306
0.797627
0.735087
0.818662
0.808503
0.786863
0.685697
0.814286
0.829842
0.811406
0.80279
0.803654
0.823982
0.803704
0.709737
0.790146
0.803047
0.81424
0.813555
0.812171
0.871442
0.827443
0.809216
0.83176
0.681372
0.823024
0.837305
0.815758
0.626882
0.814794
0.809004
0.845212
0.820964
0.802859
0.591364
0.80992
0.694924
0.805956
0.802832
0.811887
0.813032
0.825047
0.804925
0.811041
0.815596
0.723161
0.862711
0.801819
0.849919
0.815978
0.572779
0.803759
0.796517
0.811137
0.81723
0.646475
0.802756
0.809471
0.81282
0.806956
0.793711
0.815134
0.816888
0.795742
0.803564
0.821054
0.836647
0.729355
0.806122
0.809349
0.812685
0.681828
0.805053
0.815617
0.79901
0.803915
0.519104
0.832604
0.763092
0.814147
0.817311
0.830545
0.846
0.815707
0.811137
0.714993
0.798672
0.85217
0.808027
0.709469
0.799988
0.802562
0.872032
0.845024
0.818651
0.801926
0.809509
0.755042
0.814952
0.813665
0.583885
0.802498
0.728625
0.750008
0.802936
0.810927
0.780826
0.82108
0.814786
0.837793
0.81557
0.800344
0.80856
0.738681
0.736316
0.804026
0.807659
0.820743
0.802043
0.751575
0.687846
0.813067
0.814997
0.813841
0.593705
0.813185
0.81635
0.824363
0.802912
0.808315
0.819282
0.811687
0.839153
0.80292
0.812509
0.823388
0.815133
0.817457
0.821215
0.687777
0.783997
0.794495
0.803018
0.847363
0.802008
0.802393
0.634497
0.810542
0.813101
0.810582
0.818648
0.805637
0.812634
0.726617
0.843356
0.707865
0.80021
0.816916
0.807088
0.650467
0.684215
0.815067
0.805534
0.804079
0.785007
0.801472
0.828945
0.813111
0.804848
0.802
0.811871
0.618955
0.811932
0.80288
0.697216
0.815157
0.615803
0.783551
0.815091
0.837561
0.805521
0.812028
0.792039
0.795187
0.803878
0.801375
0.81157
0.810949
0.808575
0.803184
0.757202
0.803982
0.81206
0.811513
0.815894
0.811074
0.815488
0.814442
0.834028
0.73745
0.80651
0.815214
0.802277
0.54119
0.68106
0.810966
0.812794
0.814754
0.780202
0.808044
0.812497
0.803027
0.799803
0.802597
0.819626
0.820452
0.814524
0.784439
0.807787
0.805276
0.539779
0.773597
0.756888
0.806198
0.73517
0.674437
0.797395
0.767269
0.82741
0.814438
0.81422
0.808232
0.538961
0.81531
0.582429
0.694634
0.824325
0.86956
0.740763
0.816177
0.852659
0.694253
0.814968
0.808877
0.814737
0.807218
0.655513
0.854343
0.737319
0.729167
0.803211
0.804484
0.799386
0.833288
0.814721
0.690331
0.815189
0.80021
0.690296
0.839255
0.797943
0.621202
0.772574
0.815255
0.80751
0.814357
0.784314
0.724195
0.769612
0.836834
0.68802
0.815517
0.816974
0.826606
0.764898
0.821708
0.690677
0.804478
0.6599
0.70016
0.800182
0.82248
0.78807
0.814087
0.814943
0.814754
0.813501
0.575969
0.802502
0.814482
0.742911
0.809949
0.814983
0.811351
0.715765
0.693391
0.740872
0.619098
0.807147
0.680844
0.815205
0.801828
0.814533
0.836823
0.686608
0.804169
0.819452
0.832233
0.737083
0.781411
0.764675
0.772699
0.811969
0.560962
0.670997
0.814842
0.805223
0.811948
0.804462
0.712024
0.779951
0.723606
0.760565
0.799451
0.831631
0.812104
0.690707
0.823055
0.817542
0.810508
0.684497
0.693957
0.680746
0.871976
0.815454
0.816247
0.608012
0.710849
0.640573
0.803313
0.800266
0.671114
0.8118
0.824228
0.74849
0.799291
0.729033
0.813715
0.691878
0.81426
0.810368
0.801143
0.803056
0.825305
0.743842
0.815308
0.8145
0.780133
0.550708
0.816046
0.810526
0.757425
0.813384
0.747534
0.802784
0.826161
0.656177
0.817755
0.802673
0.809889
0.582119
0.623561
0.734717
0.806277
0.81169
0.810416
0.820716
0.814529
0.815555
0.703915
0.801868
0.812757
0.825932
0.702954
0.725321
0.811812
0.811557
0.69553
0.814224
0.774108
0.702619
0.811782
0.695388
0.803894
0.661749
0.802861
0.730331
0.66589
0.810775
0.786003
0.74371
0.63037
0.839879
0.820976
0.814536
0.770006
0.813708
0.799997
0.785799
0.799796
0.80161
0.81479
0.730891
0.809599
0.79992
0.818402
0.597341
0.801253
0.812555
0.81352
0.811202
0.811766
0.745731
0.802688
0.763827
0.750248
0.818247
0.645199
0.818187
0.817306
0.803056
0.81521
0.816442
0.719628
0.768449
0.821771
0.785001
0.80367
0.815645
0.874944
0.817664
0.797933
0.816415
0.814879
0.793861
0.818113
0.816551
0.772967
0.696891
0.840967
0.796912
0.803147
0.822468
0.780816
0.81747
0.824698
0.818288
0.816489
0.870384
0.803076
0.804779
0.817888
0.803072
0.814996
0.806853
0.735059
0.814922
0.819349
0.753875
0.707269
0.814809
0.843015
0.822231
0.651097
0.821417
0.773418
0.807948
0.80182
0.729161
0.803104
0.798543
0.815369
0.816552
0.69228
0.703579
0.802127
0.787465
0.80144
0.824602
0.722302
0.814497
0.802338
0.800028
0.823167
0.814981
0.712078
0.815246
0.762808
0.802373
0.83247
0.80329
0.772994
0.797827
0.794581
0.814628
0.575142
0.81445
0.69577
0.67612
0.803395
0.819175
0.814507
0.802491
0.814653
0.808131
0.723345
0.787485
0.856951
0.802998
0.833292
0.807323
0.540534
0.762217
0.779427
0.646455
0.737044
0.577149
0.819876
0.81278
0.813649
0.802382
0.766632
0.683953
0.763958
0.752146
0.781859
0.81442
0.844748
0.819013
0.805734
0.819191
0.823505
0.802563
0.807399
0.703737
0.803062
0.755911
0.808573
0.797685
0.751062
0.822068
0.788271
0.803471
0.789423
0.840696
0.727383
0.800799
0.799299
0.804801
0.616654
0.815022
0.814899
0.821534
0.629631
0.814777
0.814784
0.798385
0.803775
0.793086
0.774855
0.806029
0.794246
0.815522
0.753152
0.803471
0.875156
0.762305
0.747403
0.806663
0.783879
0.842352
0.799564
0.779133
0.815093
0.798096
0.792404
0.80796
0.825236
0.835455
0.799639
0.572452
0.820077
0.827941
0.771951
0.830443
0.837974
0.822521
0.825957
0.807168
0.83265
0.826506
0.783599
0.808754
0.810925
0.805963
0.822342
0.80331
0.827227
0.792787
0.802957
0.805621
0.725851
0.806984
0.559682
0.817561
0.82497
0.828294
0.805566
0.81791
0.823551
0.819259
0.820431
0.83852
0.832807
0.787517
0.800252
0.821331
0.814948
0.816528
0.800096
0.806276
0.865395
0.819648
0.847132
0.814655
0.800511
0.824467
0.799621
0.833287
0.81301
0.814957
0.805174
0.725286
0.802818
0.80442
0.814589
0.803239
0.801775
0.821935
0.80444
0.804073
0.777697
0.819576
0.716675
0.813894
0.779843
0.758439
0.803466
0.813128
0.818844
0.714171
0.818922
0.815046
0.826402
0.816668
0.789371
0.81584
0.847107
0.832822
0.814589
0.811569
0.801463
0.743057
0.676066
0.814587
0.82035
0.770392
0.813958
0.807604
0.811345
0.805264
0.798304
0.775916
0.802315
0.799888
0.841196
0.816958
0.811206
0.806122
0.602041
0.730186
0.802049
0.782935
0.803937
0.815258
0.805749
0.815609
0.779559
0.81466
0.804631
0.810221
0.803559
0.817418
0.803131
0.815391
0.810433
0.815387
0.812378
0.716389
0.814041
0.815198
0.59579
0.81442
0.796593
0.802607
0.858567
0.817927
0.810239
0.872333
0.814822
0.814902
0.816385
0.818405
0.81483
0.763909
0.830149
0.801127
0.803028
0.814112
0.814766
0.816263
0.814616
0.81299
0.822613
0.80383
0.812061
0.808876
0.814905
0.819797
0.814635
0.811334
0.818846
0.808754
0.696918
0.658115
0.802484
0.808306
0.803187
0.810831
0.817945
0.816674
0.80275
0.803566
0.800366
0.80065
0.816453
0.844138
0.818102
0.811242
0.81805
0.817721
0.845779
0.817037
0.820819
0.785392
0.815358
0.806625
0.800983
0.791808
0.810343
0.818059
0.814465
0.814688
0.835835
0.805681
0.812179
0.816171
0.821335
0.803356
0.803035
0.805348
0.810404
0.814582
0.801393
0.80262
0.816436
0.822315
0.800592
0.584418
0.804097
0.796521
0.816971
0.798432
0.802618
0.747753
0.840537
0.802577
0.799537
0.834468
0.829373
0.81003
0.825829
0.80026
0.817396
0.816999
0.818252
0.803451
0.817832
0.726955
0.821892
0.811333
0.799872
0.812823
0.820083
0.798935
0.803823
0.781879
0.814962
0.814864
0.814974
0.818041
0.806241
0.816582
0.81527
0.82567
0.821793
0.837348
0.805726
0.694491
0.817476
0.840354
0.819314
0.804398
0.799838
0.803147
0.815808
0.813907
0.815479
0.743391
0.737179
0.800513
0.802796
0.815151
0.816093
0.798261
0.651362
0.707624
0.807833
0.768915
0.815317
0.70229
0.802966
0.727451
0.803115
0.819692
0.803051
0.816816
0.81225
0.798405
0.808372
0.793015
0.829672
0.815005
0.800973
0.803296
0.815354
0.821212
0.748709
0.822277
0.803556
0.783011
0.814878
0.803652
0.8102
0.814034
0.814454
0.834977
0.792257
0.79874
0.814753
0.758433
0.806385
0.814175
0.800828
0.815422
0.841018
0.802038
0.84295
0.808286
0.789956
0.811251
0.802547
0.851733
0.788232
0.803048
0.815458
0.831237
0.808169
0.81313
0.815155
0.802664
0.802576
0.82575
0.782255
0.813689
0.814737
0.641925
0.814942
0.711956
0.817413
0.837928
0.824058
0.803733
0.813939
0.814587
0.724966
0.814123
0.800526
0.801399
0.800626
0.815171
0.863644
0.801023
0.800732
0.785115
0.84032
0.827767
0.819085
0.812662
0.746174
0.803024
0.803267
0.730098
0.799105
0.713637
0.809884
0.800801
0.675456
0.880119
0.701687
0.771923
0.800944
0.742543
0.808159
0.798639
0.802959
0.659336
0.796549
0.783816
0.798679
0.727646
0.818168
0.821964
0.884455
0.809237
0.830974
0.644049
0.799654
0.786414
0.743501
0.750622
0.768353
0.704867
0.802969
0.799007
0.803043
0.76313
0.625953
0.811207
0.611531
0.820645
0.822454
0.811282
0.736302
0.811623
0.794889
0.818601
0.782445
0.806626
0.796945
0.809393
0.715966
0.801254
0.721623
0.8011
0.798481
0.684625
0.803408
0.814482
0.814545
0.80299
0.760663
0.814316
0.732182
0.689901
0.802143
0.814542
0.874281
0.81444
0.813829
0.88047
0.865288
0.830571
0.718019
0.801783
0.811674
0.820993
0.797484
0.679651
0.722006
0.6745
0.802275
0.704804
0.767999
0.799139
0.614443
0.688583
0.835793
0.77305
0.744701
0.830073
0.758612
0.769047
0.627608
0.730691
0.784612
0.819201
0.869363
0.837492
0.814892
0.794133
0.799405
0.715045
0.814741
0.693266
0.796834
0.814519
0.783318
0.762005
0.801195
0.782305
0.802055
0.800518
0.811068
0.810866
0.866981
0.566615
0.536673
0.802226
0.806519
0.697408
0.809706
0.802666
0.837209
0.803352
0.802249
0.565801
0.552939
0.808201
0.811727
0.814653
0.725401
0.80306
0.810033
0.683506
0.810742
0.802574
0.813151
0.803093
0.800107
0.80212
0.813599
0.802847
0.81681
0.80309
0.861885
0.813956
0.802391
0.721136
0.66901
0.814697
0.58385
0.812223
0.809788
0.835541
0.813223
0.802904
0.810524
0.812646
0.812437
0.81427
0.801462
0.853629
0.856247
0.802052
0.653989
0.807883
0.822191
0.79928
0.803067
0.81949
0.733131
0.803169
0.824789
0.820837
0.815017
0.814531
0.766179
0.745361
0.800544
0.833633
0.802578
0.813783
0.80425
0.80345
0.804786
0.813277
0.808608
0.798439
0.806687
0.805782
0.824344
0.8065
0.806099
0.816894
0.806616
0.803304
0.812372
0.802874
0.802734
0.80563
0.807593
0.812513
0.773256
0.805158
0.802602
0.814432
0.799493
0.803604
0.806673
0.831436
0.804864
0.648571
0.8006
0.814711
0.804498
0.814558
0.762603
0.814476
0.750079
0.803533
0.802067
0.803907
0.8187
0.850765
0.804208
0.803183
0.746897
0.829151
0.814424
0.819801
0.824724
0.814199
0.735845
0.817451
0.721088
0.800894
0.827119
0.802255
0.698504
0.825341
0.814193
0.815649
0.823585
0.814849
0.772969
0.816475
0.646693
0.709277
0.814519
0.822056
0.67404
0.818659
0.6579
0.820853
0.806538
0.815964
0.803096
0.805325
0.814324
0.831349
0.824905
0.670456
0.812503
0.841698
0.781194
0.845984
0.80013
0.704618
0.838146
0.818887
0.835162
0.686754
0.681704
0.83247
0.655113
0.830162
0.814536
0.828119
0.806119
0.82639
0.78746
0.824876
0.823475
0.706457
0.865456
0.822272
0.821255
0.823421
0.758727
0.802719
0.521941
0.802679
0.82037
0.813001
0.804576
0.825437
0.81447
0.797769
0.819591
0.802897
0.678317
0.792211
0.833957
0.813864
0.714947
0.798801
0.821377
0.57443
0.814225
0.815059
0.802466
0.809746
0.725372
0.817457
0.802939
0.803367
0.795794
0.793517
0.797744
0.794551
0.80322
0.811868
0.81914
0.813576
0.571331
0.892888
0.70492
0.79772
0.738955
0.791274
0.814447
0.815175
0.815055
0.603443
0.81852
0.817035
0.803748
0.817519
0.83635
0.839271
0.782688
0.798297
0.799336
0.724261
0.752164
0.814717
0.763607
0.814994
0.818575
0.814284
0.813319
0.801855
0.774873
0.81188
0.815599
0.727947
0.810419
0.815375
0.817624
0.80763
0.809296
0.764227
0.81406
0.808018
0.803075
0.807263
0.615509
0.806326
0.80417
0.80575
0.820868
0.845341
0.804539
0.773781
0.805113
0.771359
0.819816
0.805387
0.812229
0.814456
0.849959
0.80329
0.744094
0.819612
0.814715
0.726618
0.800689
0.815741
0.758232
0.812103
0.568057
0.806401
0.685155
0.800989
0.810779
0.811984
0.816739
0.80406
0.815316
0.817259
0.800864
0.804114
0.844138
0.815658
0.79605
0.815732
0.801725
0.801293
0.800129
0.801086
0.806701
0.814088
0.801449
0.769504
0.817958
0.812595
0.80871
0.814466
0.58561
0.803192
0.813512
0.814767
0.787085
0.747785
0.718966
0.811967
0.814311
0.825542
0.788944
0.601964
0.771161
0.63896
0.816248
0.745035
0.811687
0.829926
0.693939
0.799519
0.83351
0.74888
0.800465
0.803072
0.815061
0.801968
0.698334
0.800553
0.547073
0.801614
0.802324
0.802091
0.564818
0.802836
0.803318
0.803071
0.728101
0.736996
0.803318
0.776074
0.81512
0.721682
0.706187
0.814512
0.8012
0.752184
0.853916
0.813312
0.811747
0.668681
0.802674
0.800424
0.80032
0.802369
0.655804
0.803126
0.814774
0.653666
0.684818
0.805656
0.790091
0.814601
0.822855
0.814504
0.814706
0.815948
0.803541
0.814676
0.814444
0.813067
0.829011
0.80231
0.801676
0.81017
0.726092
0.809419
0.814299
0.862583
0.810624
0.637174
0.774184
0.802071
0.775911
0.816203
0.811324
0.829711
0.813841
0.864385
0.801745
0.814071
0.592636
0.815387
0.833543
0.802831
0.813728
0.624008
0.814904
0.802628
0.81616
0.802126
0.817038
0.815449
0.754544
0.803444
0.80307
0.834802
0.861688
0.819433
0.815582
0.725156
0.740881
0.80241
0.802917
0.811799
0.81759
0.799389
0.802749
0.819038
0.80608
0.807383
0.739335
0.802616
0.817038
0.81348
0.767923
0.760352
0.811269
0.796272
0.856768
0.718254
0.834258
0.810521
0.711746
0.799539
0.813927
0.787319
0.800565
0.799579
0.81453
0.776934
0.774332
0.812858
0.696639
0.798485
0.765105
0.814388
0.816777
0.801869
0.787194
0.737958
0.751836
0.77361
0.814097
0.818478
0.805331
0.656383
0.801753
0.795384
0.777649
0.809584
0.812426
0.799391
0.80297
0.632467
0.803818
0.804444
0.85104
0.803588
0.808875
0.832982
0.805123
0.809645
0.851972
0.611591
0.803919
0.815644
0.805267
0.804881
0.805567
0.804453
0.804549
0.804071
0.805651
0.806149
0.723996
0.805541
0.806834
0.806375
0.814622
0.807967
0.818117
0.803036
0.803404
0.814204
0.814385
0.809542
0.803297
0.816068
0.812943
0.809399
0.815535
0.707681
0.813408
0.831174
0.814401
0.854026
0.749293
0.807628
0.814451
0.800597
0.598641
0.803164
0.771978
0.821455
0.62653
0.81506
0.829174
0.814135
0.811457
0.801965
0.826815
0.818843
0.803454
0.764384
0.816595
0.758263
0.545864
0.813791
0.695542
0.694272
0.820234
0.827282
0.827085
0.816191
0.84727
0.569937
0.876512
0.805092
0.825568
0.823885
0.812486
0.680949
0.814323
0.822333
0.815896
0.8008
0.77353
0.822105
0.564461
0.812716
0.842899
0.803026
0.839321
0.821084
0.803223
0.668213
0.843044
0.820017
0.836117
0.800715
0.813418
0.802993
0.833467
0.80271
0.813337
0.831027
0.828867
0.821864
0.823895
0.830606
0.738896
0.660244
0.562672
0.827008
0.825472
0.766958
0.756034
0.805952
0.82403
0.846624
0.589895
0.822737
0.821636
0.820717
0.819171
0.803788
0.820625
0.656665
0.743655
0.819906
0.797168
0.869775
0.889986
0.776115
0.803518
0.668912
0.835311
0.729688
0.717675
0.818971
0.801488
0.783203
0.659455
0.802065
0.81455
0.788654
0.710718
0.800085
0.816995
0.797816
0.675125
0.8232
0.792624
0.815245
0.832951
0.814993
0.795288
0.815698
0.815454
0.78564
0.803851
0.709734
0.84042
0.792871
0.81067
0.781667
0.804243
0.695033
0.800677
0.813324
0.81196
0.810793
0.809266
0.808175
0.807418
0.80579
0.80468
0.8066
0.724252
0.805231
0.801315
0.795737
0.803184
0.844251
0.714288
0.803114
0.77588
0.883831
0.854077
0.797851
0.722702
0.803141
0.797549
0.718323
0.803195
0.801535
0.73356
0.803516
0.789522
0.797077
0.800928
0.736928
0.779258
0.80409
0.746658
0.764077
0.768933
0.80125
0.814186
0.808445
0.758104
0.750913
0.799386
0.813198
0.80322
0.792611
0.800974
0.928587
0.860369
0.817313
0.814338
0.723576
0.844082
0.74716
0.82584
0.816222
0.898031
0.814512
0.796928
0.587576
0.814546
0.797042
0.814582
0.797462
0.845334
0.519257
0.832516
0.801431
0.805443
0.804717
0.803608
0.855574
0.801138
0.816942
0.701051
0.65822
0.666074
0.814629
0.501186
0.797473
0.721184
0.841578
0.814476
0.556767
0.801745
0.81404
0.813708
0.71851
0.80154
0.523404
0.796958
0.814771
0.797078
0.802597
0.797318
0.814946
0.833673
0.803211
0.798025
0.815348
0.79829
0.815502
0.813745
0.798572
0.815676
0.813264
0.815879
0.798679
0.816106
0.678951
0.798872
0.81636
0.802989
0.799062
0.816616
0.697036
0.81454
0.798042
0.814477
0.798122
0.809583
0.838036
0.861087
0.800806
0.800148
0.817566
0.815171
0.799791
0.799415
0.863238
0.811917
0.817234
0.810036
0.849673
0.828176
0.816206
0.825398
0.845953
0.814477
0.801275
0.818815
0.81133
0.8017
0.814374
0.799804
0.807218
0.78285
0.806497