# vtk DataFile Version 1.0
unstructured grid
ascii
DATASET UNSTRUCTURED_GRID
points 3920 float
-1 0 0
-1 1 0
2 0 0
2 1 0
0 0 0
1 0 0
-1 1 0.1
-1 0 0.1
0 0 0.1
1 0 0.1
2 0 0.1
2 1 0.1
-0.98 0 0
-0.96 0 0
-0.94 0 0
-0.92 0 0
-0.9 0 0
-0.88 0 0
-0.86 0 0
-0.84 0 0
-0.82 0 0
-0.8 0 0
-0.78 0 0
-0.76 0 0
-0.74 0 0
-0.72 0 0
-0.7 0 0
-0.68 0 0
-0.66 0 0
-0.64 0 0
-0.62 0 0
-0.6 0 0
-0.58 0 0
-0.56 0 0
-0.54 0 0
-0.52 0 0
-0.5 0 0
-0.48 0 0
-0.46 0 0
-0.44 0 0
-0.42 0 0
-0.4 0 0
-0.38 0 0
-0.36 0 0
-0.34 0 0
-0.32 0 0
-0.3 0 0
-0.28 0 0
-0.26 0 0
-0.24 0 0
-0.22 0 0
-0.2 0 0
-0.18 0 0
-0.16 0 0
-0.14 0 0
-0.12 0 0
-0.1 0 0
-0.08 0 0
-0.06 0 0
-0.04 0 0
-0.02 0 0
1.02 0 0
1.04 0 0
1.06 0 0
1.08 0 0
1.1 0 0
1.12 0 0
1.14 0 0
1.16 0 0
1.18 0 0
1.2 0 0
1.22 0 0
1.24 0 0
1.26 0 0
1.28 0 0
1.3 0 0
1.32 0 0
1.34 0 0
1.36 0 0
1.38 0 0
1.4 0 0
1.42 0 0
1.44 0 0
1.46 0 0
1.48 0 0
1.5 0 0
1.52 0 0
1.54 0 0
1.56 0 0
1.58 0 0
1.6 0 0
1.62 0 0
1.64 0 0
1.66 0 0
1.68 0 0
1.7 0 0
1.72 0 0
1.74 0 0
1.76 0 0
1.78 0 0
1.8 0 0
1.82 0 0
1.84 0 0
1.86 0 0
1.88 0 0
1.9 0 0
1.92 0 0
1.94 0 0
1.96 0 0
1.98 0 0
2 0.0199133 0
2 0.0414128 0
2 0.0646247 0
2 0.0896856 0
2 0.116743 0
2 0.145955 0
2 0.177494 0
2 0.211545 0
2 0.248309 0
2 0.288001 0
2 0.330854 0
2 0.377121 0
2 0.427073 0
2 0.481004 0
2 0.539231 0
2 0.602096 0
2 0.669968 0
2 0.743247 0
2 0.822362 0
2 0.907779 0
1.9 1 0
1.8 1 0
1.7 1 0
1.6 1 0
1.5 1 0
1.4 1 0
1.3 1 0
1.2 1 0
1.1 1 0
1 1 0
0.9 1 0
0.8 1 0
0.7 1 0
0.6 1 0
0.5 1 0
0.4 1 0
0.3 1 0
0.2 1 0
0.1 1 0
3.69793e-12 1 0
-0.1 1 0
-0.2 1 0
-0.3 1 0
-0.4 1 0
-0.5 1 0
-0.6 1 0
-0.7 1 0
-0.8 1 0
-0.9 1 0
-1 0.907779 0
-1 0.822362 0
-1 0.743247 0
-1 0.669968 0
-1 0.602096 0
-1 0.539231 0
-1 0.481004 0
-1 0.427073 0
-1 0.377121 0
-1 0.330854 0
-1 0.288001 0
-1 0.248309 0
-1 0.211545 0
-1 0.177494 0
-1 0.145955 0
-1 0.116743 0
-1 0.0896856 0
-1 0.0646247 0
-1 0.0414128 0
-1 0.0199133 0
0.0182781 0.00745351 0
0.0366672 0.0146286 0
0.0551632 0.0215237 0
0.0737617 0.0281372 0
0.0924585 0.0344675 0
0.111249 0.0405131 0
0.13013 0.0462728 0
0.149095 0.0517451 0
0.168142 0.0569289 0
0.187265 0.0618228 0
0.20646 0.0664258 0
0.225723 0.0707368 0
0.245049 0.0747549 0
0.264434 0.078479 0
0.283873 0.0819084 0
0.303362 0.0850422 0
0.322896 0.0878798 0
0.342472 0.0904204 0
0.362083 0.0926635 0
0.381726 0.0946086 0
0.401397 0.0962552 0
0.42109 0.0976029 0
0.440802 0.0986514 0
0.460527 0.0994006 0
0.480261 0.0998501 0
0.5 0.1 0
0.519739 0.0998501 0
0.539473 0.0994006 0
0.559198 0.0986514 0
0.57891 0.0976029 0
0.598603 0.0962552 0
0.618274 0.0946086 0
0.637917 0.0926635 0
0.657528 0.0904204 0
0.677104 0.0878798 0
0.696638 0.0850422 0
0.716127 0.0819084 0
0.735566 0.078479 0
0.754951 0.0747549 0
0.774277 0.0707368 0
0.79354 0.0664258 0
0.812735 0.0618228 0
0.831858 0.0569289 0
0.850905 0.0517451 0
0.86987 0.0462728 0
0.888751 0.0405131 0
0.907542 0.0344675 0
0.926238 0.0281372 0
0.944837 0.0215237 0
0.963333 0.0146286 0
0.981722 0.00745351 0
-1 0.907779 0.1
-1 0.822362 0.1
-1 0.743247 0.1
-1 0.669968 0.1
-1 0.602096 0.1
-1 0.539231 0.1
-1 0.481004 0.1
-1 0.427073 0.1
-1 0.377121 0.1
-1 0.330854 0.1
-1 0.288001 0.1
-1 0.248309 0.1
-1 0.211545 0.1
-1 0.177494 0.1
-1 0.145955 0.1
-1 0.116743 0.1
-1 0.0896856 0.1
-1 0.0646247 0.1
-1 0.0414128 0.1
-1 0.0199133 0.1
-0.98 0 0.1
-0.96 0 0.1
-0.94 0 0.1
-0.92 0 0.1
-0.9 0 0.1
-0.88 0 0.1
-0.86 0 0.1
-0.84 0 0.1
-0.82 0 0.1
-0.8 0 0.1
-0.78 0 0.1
-0.76 0 0.1
-0.74 0 0.1
-0.72 0 0.1
-0.7 0 0.1
-0.68 0 0.1
-0.66 0 0.1
-0.64 0 0.1
-0.62 0 0.1
-0.6 0 0.1
-0.58 0 0.1
-0.56 0 0.1
-0.54 0 0.1
-0.52 0 0.1
-0.5 0 0.1
-0.48 0 0.1
-0.46 0 0.1
-0.44 0 0.1
-0.42 0 0.1
-0.4 0 0.1
-0.38 0 0.1
-0.36 0 0.1
-0.34 0 0.1
-0.32 0 0.1
-0.3 0 0.1
-0.28 0 0.1
-0.26 0 0.1
-0.24 0 0.1
-0.22 0 0.1
-0.2 0 0.1
-0.18 0 0.1
-0.16 0 0.1
-0.14 0 0.1
-0.12 0 0.1
-0.1 0 0.1
-0.08 0 0.1
-0.06 0 0.1
-0.04 0 0.1
-0.02 0 0.1
0.0182781 0.00745351 0.1
0.0366672 0.0146286 0.1
0.0551632 0.0215237 0.1
0.0737617 0.0281372 0.1
0.0924585 0.0344675 0.1
0.111249 0.0405131 0.1
0.13013 0.0462728 0.1
0.149095 0.0517451 0.1
0.168142 0.0569289 0.1
0.187265 0.0618228 0.1
0.20646 0.0664258 0.1
0.225723 0.0707368 0.1
0.245049 0.0747549 0.1
0.264434 0.078479 0.1
0.283873 0.0819084 0.1
0.303362 0.0850422 0.1
0.322896 0.0878798 0.1
0.342472 0.0904204 0.1
0.362083 0.0926635 0.1
0.381726 0.0946086 0.1
0.401397 0.0962552 0.1
0.42109 0.0976029 0.1
0.440802 0.0986514 0.1
0.460527 0.0994006 0.1
0.480261 0.0998501 0.1
0.5 0.1 0.1
0.519739 0.0998501 0.1
0.539473 0.0994006 0.1
0.559198 0.0986514 0.1
0.57891 0.0976029 0.1
0.598603 0.0962552 0.1
0.618274 0.0946086 0.1
0.637917 0.0926635 0.1
0.657528 0.0904204 0.1
0.677104 0.0878798 0.1
0.696638 0.0850422 0.1
0.716127 0.0819084 0.1
0.735566 0.078479 0.1
0.754951 0.0747549 0.1
0.774277 0.0707368 0.1
0.79354 0.0664258 0.1
0.812735 0.0618228 0.1
0.831858 0.0569289 0.1
0.850905 0.0517451 0.1
0.86987 0.0462728 0.1
0.888751 0.0405131 0.1
0.907542 0.0344675 0.1
0.926238 0.0281372 0.1
0.944837 0.0215237 0.1
0.963333 0.0146286 0.1
0.981722 0.00745351 0.1
1.02 0 0.1
1.04 0 0.1
1.06 0 0.1
1.08 0 0.1
1.1 0 0.1
1.12 0 0.1
1.14 0 0.1
1.16 0 0.1
1.18 0 0.1
1.2 0 0.1
1.22 0 0.1
1.24 0 0.1
1.26 0 0.1
1.28 0 0.1
1.3 0 0.1
1.32 0 0.1
1.34 0 0.1
1.36 0 0.1
1.38 0 0.1
1.4 0 0.1
1.42 0 0.1
1.44 0 0.1
1.46 0 0.1
1.48 0 0.1
1.5 0 0.1
1.52 0 0.1
1.54 0 0.1
1.56 0 0.1
1.58 0 0.1
1.6 0 0.1
1.62 0 0.1
1.64 0 0.1
1.66 0 0.1
1.68 0 0.1
1.7 0 0.1
1.72 0 0.1
1.74 0 0.1
1.76 0 0.1
1.78 0 0.1
1.8 0 0.1
1.82 0 0.1
1.84 0 0.1
1.86 0 0.1
1.88 0 0.1
1.9 0 0.1
1.92 0 0.1
1.94 0 0.1
1.96 0 0.1
1.98 0 0.1
2 0.0199133 0.1
2 0.0414128 0.1
2 0.0646247 0.1
2 0.0896856 0.1
2 0.116743 0.1
2 0.145955 0.1
2 0.177494 0.1
2 0.211545 0.1
2 0.248309 0.1
2 0.288001 0.1
2 0.330854 0.1
2 0.377121 0.1
2 0.427073 0.1
2 0.481004 0.1
2 0.539231 0.1
2 0.602096 0.1
2 0.669968 0.1
2 0.743247 0.1
2 0.822362 0.1
2 0.907779 0.1
1.9 1 0.1
1.8 1 0.1
1.7 1 0.1
1.6 1 0.1
1.5 1 0.1
1.4 1 0.1
1.3 1 0.1
1.2 1 0.1
1.1 1 0.1
1 1 0.1
0.9 1 0.1
0.8 1 0.1
0.7 1 0.1
0.6 1 0.1
0.5 1 0.1
0.4 1 0.1
0.3 1 0.1
0.2 1 0.1
0.1 1 0.1
3.69793e-12 1 0.1
-0.1 1 0.1
-0.2 1 0.1
-0.3 1 0.1
-0.4 1 0.1
-0.5 1 0.1
-0.6 1 0.1
-0.7 1 0.1
-0.8 1 0.1
-0.9 1 0.1
1.08758 0.0158154 0
-0.0898513 0.0203294 0
0.0966181 0.0537636 0
0.90205 0.0548881 0
1.21055 0.0202058 0
-0.209811 0.0159577 0
1.3305 0.0176902 0
-0.33 0.0173205 0
1.45324 0.0148141 0
-0.448654 0.0159854 0
1.56842 0.0191785 0
-0.569936 0.0166364 0
0.193292 0.0805369 0
0.805051 0.0813623 0
0.709096 0.100353 0
0.288591 0.0996656 0
0.390184 0.111848 0
0.61033 0.111742 0
0.488809 0.116278 0
1.67175 0.0169692 0
-0.67 0.0169809 0
-0.955017 0.454039 0
1.95131 0.44569 0
1.74981 0.0168753 0
-0.75 0.0173205 0
-0.968032 0.266538 0
1.96871 0.266267 0
0.978232 0.0305687 0
0.0208675 0.026451 0
-0.150454 0.91842 0
1.13854 0.907437 0
1.45012 0.904365 0
-0.445923 0.908903 0
-0.853423 0.0157019 0
1.84881 0.016319 0
0.853689 0.915652 0
0.153944 0.912184 0
0.545151 0.914125 0
0.549913 0.115152 0
1.51 0.0173205 0
-0.506989 0.01651 0
1.27 0.0173205 0
1.14976 0.0173333 0
-0.268171 0.0206442 0
-0.150501 0.0153244 0
-0.391384 0.0153993 0
1.38886 0.0171544 0
-0.973694 0.161724 0
1.97441 0.162392 0
-0.945221 0.633523 0
1.94544 0.63312 0
1.91008 0.0186068 0
-0.91 0.0169616 0
-0.030664 0.0194327 0
1.03074 0.0165456 0
-0.966065 0.353575 0
1.96128 0.359765 0
1.93879 0.781254 0
-0.937057 0.781882 0
-0.980746 0.080709 0
1.9772 0.0760699 0
0.058735 0.0409372 0
0.355202 0.913001 0
0.86356 0.0661005 0
0.134223 0.0651111 0
0.941972 0.0397386 0
-0.653034 0.915003 0
1.65328 0.904589 0
0.770126 0.0881325 0
0.232946 0.0902008 0
0.330582 0.105648 0
0.670612 0.108365 0
0.428707 0.116145 0
1.80993 0.016629 0
-0.810168 0.0172178 0
-0.71 0.0173205 0
1.63047 0.0175504 0
1.70842 0.0169661 0
-0.628824 0.0181787 0
-0.949815 0.0133898 0
1.95 0.0173205 0
1.85542 0.907891 0
-0.85 0.913397 0
1.9833 0.0307692 0
-0.983315 0.0309709 0
-0.750025 0.916468 0
-0.701107 0.836904 0
-0.607741 0.836428 0
-0.656448 0.759827 0
-0.572936 0.758144 0
-0.61411 0.691195 0
-0.539534 0.689068 0
-0.578542 0.626111 0
-0.507461 0.624216 0
-0.544001 0.566638 0
-0.477696 0.564279 0
-0.511582 0.51001 0
-0.451689 0.507147 0
-0.481834 0.457732 0
-0.426137 0.454624 0
-0.453236 0.407539 0
-0.398845 0.406233 0
-0.507958 0.409496 0
-0.368427 0.460177 0
-0.344602 0.405209 0
-0.315696 0.447824 0
-0.294128 0.402169 0
-0.262844 0.444518 0
-0.241968 0.388746 0
-0.209878 0.439557 0
-0.185184 0.391135 0
-0.156687 0.437338 0
-0.133719 0.390776 0
-0.104405 0.434306 0
-0.0818745 0.388334 0
-0.0528785 0.431165 0
-0.0305984 0.385639 0
-0.00180552 0.427863 0
0.0194564 0.382608 0
0.0485809 0.42449 0
0.0701962 0.37973 0
0.0985483 0.421145 0
0.119893 0.377339 0
0.147837 0.417911 0
0.172552 0.36751 0
0.197018 0.412597 0
0.221203 0.37141 0
0.24512 0.409646 0
-0.48178 0.364657 0
-0.531053 0.364782 0
-0.0599102 0.344151 0
-0.324909 0.359566 0
0.266181 0.368462 0
0.292132 0.407649 0
0.311992 0.365779 0
0.338918 0.404821 0
0.357567 0.355909 0
0.384723 0.40053 0
0.404675 0.359681 0
0.430617 0.398558 0
0.450457 0.35827 0
0.474237 0.395182 0
0.496746 0.34898 0
0.520548 0.397931 0
0.542071 0.353121 0
0.566011 0.389914 0
0.585061 0.350856 0
0.609352 0.38696 0
0.629069 0.348168 0
0.655979 0.391217 0
0.67472 0.346182 0
0.699346 0.381414 0
0.719333 0.341965 0
0.743718 0.377547 0
0.764028 0.339036 0
0.788201 0.373582 0
0.807659 0.336101 0
0.832821 0.372249 0
0.852309 0.334017 0
0.877785 0.370339 0
0.897875 0.331141 0
0.922904 0.366281 0
0.943173 0.327335 0
0.968282 0.363358 0
0.989029 0.324222 0
1.01391 0.361511 0
1.03465 0.321428 0
1.05949 0.358447 0
1.08389 0.312052 0
1.10575 0.355104 0
1.12889 0.31562 0
1.15067 0.353235 0
1.17157 0.312819 0
1.19626 0.349369 0
1.21618 0.309863 0
1.2416 0.346914 0
1.26131 0.30715 0
1.28691 0.344312 0
1.30571 0.303752 0
1.33144 0.341222 0
1.35018 0.300911 0
1.3758 0.338308 0
1.39501 0.298931 0
1.42015 0.335235 0
1.43904 0.296349 0
1.46355 0.330194 0
1.48256 0.293347 0
1.50685 0.326967 0
1.52589 0.29055 0
1.54996 0.325305 0
1.56909 0.287929 0
[...]
CELL_DATA 3694
SCALARS rho float
LOOKUP_TABLE default
0.736266
0.672544
0.803819
0.81409
0.827105
0.805146
0.791714
0.800102
0.810938
0.802776
0.818232
0.818225
0.84061
0.789482
0.800885
0.752008
0.803293
0.803016
0.761458
0.850362
0.817928
0.823791
0.70041
0.80341
0.697034
0.839537
0.720414
0.806402
0.837187
0.798686
0.798872
0.718663
0.80354
0.824816
0.802903
0.798261
0.837576
0.823571
0.825412
0.778167
0.804694
0.817439
0.834524
0.825395
0.805193
0.813983
0.80096
0.67311
0.680756
0.723225
0.802082
0.80294
0.847147
0.802106
0.635581
0.838478
0.802728
0.819729
0.832728
0.75498
0.796343
0.816219
0.842552
0.799717
0.843115
0.83144
0.807705
0.814666
0.736426
0.858673
0.803163
0.807623
0.823814
0.803256
0.825163
0.802918
0.814223
0.79973
0.814861
0.802764
0.716144
0.818491
0.802337
0.776788
0.810716
0.799687
0.819079
0.71713
0.735817
0.825616
0.799943
0.802468
0.820621
0.816141
0.676293
0.806565
0.724137
0.818694
0.813351
0.840426
0.815677
0.763785
0.717879
0.810718
0.810154
0.816214
0.818675
0.807062
0.716691
0.815273
0.799311
0.724889
0.720302
0.824019
0.868214
0.802285
0.800519
0.813154
0.80315
0.802184
0.765828
0.82257
0.820464
0.770757
0.703662
0.759086
0.818316
0.777977
0.843926
0.70314
0.767344
0.80044
0.807973
0.777922
0.801071
0.796309
0.805499
0.80244
0.798085
0.815602
0.814723
0.71231
0.817873
0.814726
0.758191
0.675089
0.67847
0.798223
0.817039
0.813151
0.745772
0.802736
0.560825
0.779393
0.689806
0.76468
0.714686
0.784535
0.609029
0.793173
0.837599
0.646544
0.782312
0.738108
0.844627
0.558867
0.817335
0.800513
0.803019
0.674784
0.80156
0.664713
0.858203
0.547954
0.799937
0.640045
0.872785
0.833948
0.821417
0.745091
0.815037
0.721327
0.82765
0.737284
0.650255
0.803124
0.678659
0.824167
0.801711
0.851408
0.791867
0.702562
0.81595
0.798492
0.743251
0.853149
0.811448
0.849193
0.737624
0.74439
0.771333
0.794547
0.832367
0.834314
0.816916
0.81523
0.67143
0.804661
0.728671
0.803223
0.711751
0.798028
0.795702
0.801557
0.826465
0.764918
0.831093
0.75043
0.826408
0.820613
0.816998
0.853372
0.829538
0.706445
0.827795
0.683359
0.787968
0.810841
0.851576
0.830832
0.809257
0.794589
0.746704
0.818578
0.837268
0.818399
0.716959
0.800641
0.698221
0.793109
0.795559
0.810899
0.641535
0.807688
0.758926
0.797935
0.803121
0.760247
0.816325
0.866076
0.784203
0.690582
0.804489
0.801796
0.648935
0.793277
0.778251
0.802355
0.839404
0.815966
0.610798
0.816326
0.810198
0.797807
0.81657
0.802702
0.815421
0.815224
0.835709
0.757238
0.801918
0.835492
0.810629
0.803159
0.796208
0.816145
0.728214
0.590306
0.817836
0.829702
0.821291
0.804488
0.685632
0.816567
0.816322
0.817571
0.716073
0.797919
0.816239
0.552599
0.802858
0.86943
0.681308
0.757845
0.83925
0.827583
0.815994
0.705706
0.809478
0.816235
0.803867
0.801825
0.812196
0.837096
0.817513
0.767641
0.80708
0.80309
0.648297
0.821893
0.828615
0.673989
0.791934
0.819809
0.820933
0.680872
0.673915
0.822301
0.824881
0.809612
0.733114
0.708536
0.715236
0.734782
0.821204
0.777803
0.804216
0.734661
0.742
0.823344
0.811162
0.819357
0.770847
0.816324
0.814976
0.818355
0.816986
0.802783
0.807684
0.804046
0.68999
0.802755
0.812924
0.698773
0.807356
0.805165
0.820373
0.786028
0.806005
0.79198
0.816125
0.821884
0.821097
0.798383
0.686089
0.713973
0.799485
0.810939
0.627064
0.80393
0.807685
0.817343
0.744464
0.804306
0.817363
0.812689
0.818808
0.80509
0.797401
0.765567
0.804517
0.844105
0.820258
0.705534
0.803799
0.705261
0.703916
0.803136
0.616803
0.771029
0.785001
0.808091
0.814664
0.825994
0.818107
0.813414
0.821107
0.828994
0.802854
0.765703
0.809818
0.661524
0.820173
0.758287
0.729685
0.69206
0.815115
0.854398
0.820198
0.808972
0.822305
0.816473
0.787086
0.759581
0.810646
0.694585
0.791334
0.844053
0.826663
0.800861
0.864457
0.813448
0.817436
0.818566
0.831109
0.633668
0.799593
0.733585
0.798134
0.734892
0.81975
0.808723
0.788122
0.680241
0.816007
0.83014
0.813044
0.803018
0.803819
0.825186
0.803908
0.713927
0.790434
0.803126
0.815952
0.814983
0.813664
0.871993
0.828587
0.809449
0.832822
0.684229
0.824272
0.838275
0.817281
0.6298
0.816454
0.80931
0.84607
0.82227
0.802972
0.595234
0.810223
0.698987
0.806166
0.802912
0.812429
0.814788
0.825292
0.805125
0.811289
0.817079
0.726827
0.863369
0.802038
0.850719
0.817431
0.578947
0.803949
0.796819
0.81272
0.818681
0.657389
0.802859
0.809711
0.813109
0.80718
0.793989
0.816743
0.818323
0.797163
0.804142
0.822335
0.837409
0.732753
0.806348
0.809911
0.814191
0.684083
0.805363
0.816939
0.799465
0.804227
0.535125
0.833654
0.765098
0.815906
0.818752
0.8316
0.846754
0.817149
0.812788
0.718657
0.799162
0.852804
0.809511
0.711299
0.800372
0.802636
0.872582
0.845884
0.820039
0.802123
0.809747
0.756505
0.816542
0.814042
0.588189
0.80278
0.732092
0.750449
0.803257
0.812543
0.781167
0.82161
0.816416
0.838383
0.816939
0.800557
0.809873
0.738346
0.738235
0.804233
0.809071
0.82192
0.802409
0.752033
0.691817
0.814796
0.815358
0.814083
0.597826
0.814876
0.817449
0.825577
0.803143
0.809569
0.820554
0.811907
0.8401
0.803039
0.812754
0.824492
0.816741
0.818485
0.822218
0.692545
0.784418
0.795672
0.803227
0.848199
0.8021
0.803527
0.637354
0.811624
0.814645
0.810929
0.820039
0.805859
0.814352
0.728304
0.84424
0.706396
0.800624
0.818388
0.807325
0.661061
0.678391
0.815657
0.805758
0.80443
0.786477
0.801577
0.830035
0.814542
0.80507
0.802319
0.813365
0.621827
0.813542
0.803238
0.702478
0.816527
0.625574
0.785146
0.816607
0.838313
0.806961
0.813719
0.793521
0.796408
0.804239
0.801486
0.813205
0.811289
0.810083
0.803294
0.757336
0.804146
0.813778
0.81322
0.817035
0.812726
0.817038
0.816141
0.834801
0.740237
0.806836
0.816775
0.802639
0.546879
0.686374
0.81152
0.81452
0.816384
0.780532
0.808612
0.813051
0.803381
0.800016
0.802915
0.820669
0.821526
0.816211
0.785925
0.80907
0.806721
0.580853
0.774427
0.758416
0.807188
0.736755
0.680605
0.797902
0.768051
0.828517
0.816185
0.815931
0.808461
0.54456
0.815874
0.586722
0.700139
0.825539
0.870078
0.743576
0.817628
0.853417
0.697038
0.816484
0.809125
0.815062
0.807437
0.658295
0.855099
0.737295
0.732624
0.803419
0.804682
0.799783
0.833565
0.816393
0.693058
0.816233
0.800348
0.69604
0.8402
0.798459
0.624703
0.773406
0.816816
0.808954
0.81604
0.784529
0.72782
0.771466
0.837303
0.69013
0.817085
0.818207
0.827771
0.766252
0.822995
0.694658
0.804691
0.66254
0.702156
0.801248
0.823039
0.7896
0.81585
0.816546
0.816405
0.815258
0.581199
0.802628
0.816233
0.744445
0.810177
0.816574
0.813022
0.714335
0.689557
0.742423
0.624839
0.807442
0.683809
0.816807
0.802022
0.816221
0.837236
0.687411
0.805289
0.82067
0.833023
0.740093
0.782875
0.764927
0.773975
0.813314
0.582104
0.674826
0.81649
0.805443
0.81327
0.804671
0.715301
0.781176
0.726822
0.760583
0.799943
0.832695
0.812438
0.692733
0.824302
0.818602
0.812098
0.689776
0.690031
0.684048
0.872549
0.817013
0.817596
0.612048
0.712775
0.643499
0.803666
0.800582
0.673644
0.812191
0.825085
0.751037
0.799845
0.731624
0.815327
0.69393
0.816003
0.810617
0.802444
0.803159
0.826153
0.745441
0.8169
0.816227
0.780703
0.56175
0.816636
0.812058
0.758939
0.815147
0.747309
0.803186
0.827143
0.666663
0.819181
0.802787
0.810104
0.587846
0.650027
0.736637
0.80651
0.81321
0.811977
0.822013
0.815094
0.817089
0.705834
0.802052
0.814218
0.827082
0.704927
0.728954
0.813467
0.812691
0.698382
0.814545
0.775366
0.700186
0.812025
0.697466
0.805203
0.664384
0.802923
0.729754
0.669808
0.812278
0.786455
0.74557
0.633293
0.840699
0.82123
0.815934
0.771334
0.815466
0.800344
0.786988
0.80022
0.801801
0.816142
0.73419
0.809833
0.800309
0.819803
0.601494
0.80167
0.813971
0.814906
0.812678
0.813212
0.747332
0.80385
0.764583
0.751843
0.81962
0.651238
0.819546
0.818686
0.803154
0.81662
0.817845
0.723325
0.768505
0.823036
0.786325
0.803847
0.81707
0.875431
0.818949
0.79937
0.817916
0.816518
0.794137
0.819524
0.817826
0.773792
0.702059
0.841885
0.797148
0.803246
0.822819
0.782029
0.8189
0.824935
0.81969
0.817982
0.870965
0.803177
0.805121
0.819304
0.803167
0.816573
0.807083
0.737581
0.816486
0.820712
0.753803
0.711865
0.816359
0.843612
0.822544
0.66009
0.822712
0.774168
0.809413
0.802189
0.731252
0.803165
0.799009
0.815693
0.817876
0.696653
0.707877
0.802432
0.787748
0.801932
0.825459
0.72135
0.816218
0.802656
0.800528
0.824021
0.816609
0.715682
0.816794
0.763867
0.802554
0.832807
0.803501
0.774455
0.798009
0.794713
0.816271
0.615847
0.8162
0.69241
0.683644
0.803598
0.820546
0.816234
0.802718
0.816307
0.809265
0.72637
0.787896
0.857662
0.80309
0.834088
0.807553
0.549566
0.762192
0.781082
0.651312
0.73955
0.582548
0.820755
0.814535
0.814802
0.802555
0.767008
0.68696
0.765779
0.752321
0.782414
0.816172
0.845186
0.820389
0.805949
0.819422
0.824357
0.802889
0.807904
0.707693
0.80333
0.757332
0.8088
0.798201
0.753169
0.8231
0.788699
0.803698
0.790921
0.841477
0.72886
0.801126
0.79979
0.80501
0.61954
0.816642
0.81653
0.822123
0.636208
0.816419
0.816402
0.798856
0.803965
0.793428
0.776479
0.806609
0.795639
0.817091
0.753053
0.804814
0.875646
0.763569
0.749425
0.807983
0.784113
0.843245
0.800918
0.780807
0.816359
0.798336
0.792761
0.80818
0.82643
0.836451
0.799847
0.577398
0.821378
0.829025
0.772376
0.831527
0.838842
0.823744
0.827089
0.807393
0.83363
0.827669
0.783954
0.809252
0.81251
0.80735
0.823606
0.803475
0.827475
0.793087
0.803533
0.805877
0.728537
0.807223
0.564897
0.818978
0.826168
0.829419
0.806073
0.81839
0.824783
0.819569
0.821753
0.839467
0.833848
0.788982
0.800564
0.822625
0.816448
0.818011
0.800509
0.806494
0.866005
0.820997
0.84796
0.81619
0.80088
0.824725
0.799886
0.833622
0.814511
0.816265
0.805383
0.728449
0.803026
0.80462
0.816221
0.803404
0.802811
0.822199
0.804754
0.804269
0.778283
0.81985
0.718691
0.814403
0.781489
0.759572
0.803655
0.813417
0.819054
0.717474
0.820297
0.815337
0.826655
0.818085
0.790502
0.817378
0.847562
0.833372
0.815703
0.811855
0.801741
0.745309
0.681333
0.816288
0.820783
0.772063
0.815396
0.807915
0.812866
0.805574
0.798798
0.77647
0.80249
0.800269
0.842021
0.818416
0.811604
0.806402
0.60573
0.732792
0.802242
0.784406
0.804257
0.816721
0.80607
0.817168
0.780143
0.816343
0.80494
0.811782
0.803873
0.818824
0.803202
0.81697
0.811938
0.81689
0.813841
0.719331
0.815441
0.816798
0.599702
0.816119
0.796884
0.803013
0.859254
0.819223
0.811772
0.872866
0.816386
0.816479
0.817886
0.819794
0.816242
0.764699
0.830382
0.801548
0.803237
0.815469
0.816371
0.817775
0.81627
0.81438
0.823068
0.803987
0.81348
0.809184
0.815415
0.820098
0.816299
0.812783
0.820185
0.808977
0.692983
0.662038
0.802712
0.808812
0.803398
0.812309
0.819304
0.818041
0.802958
0.804092
0.800773
0.800983
0.817871
0.844871
0.819514
0.811724
0.819424
0.819147
0.846336
0.818418
0.821283
0.785854
0.816785
0.806839
0.801539
0.792169
0.811707
0.819447
0.816132
0.816238
0.836093
0.807012
0.813862
0.817574
0.821692
0.803557
0.803299
0.805556
0.811995
0.816226
0.801675
0.803944
0.817929
0.822617
0.800996
0.642166
0.804289
0.79759
0.817465
0.798687
0.802768
0.749266
0.841458
0.802773
0.799934
0.835482
0.83048
0.810325
0.827009
0.800642
0.818826
0.818288
0.819653
0.803638
0.819248
0.730536
0.82317
0.811558
0.800297
0.813206
0.821419
0.799194
0.804038
0.783367
0.815236
0.816504
0.816602
0.819443
0.806465
0.818074
0.816838
0.826677
0.822065
0.838318
0.806039
0.696497
0.818869
0.841092
0.820677
0.804714
0.800195
0.803461
0.817086
0.814229
0.817012
0.744143
0.740204
0.800919
0.802979
0.816699
0.81748
0.799695
0.656394
0.709518
0.808059
0.768934
0.816905
0.704143
0.803058
0.72921
0.803199
0.820162
0.803129
0.818285
0.813831
0.798583
0.808678
0.794392
0.829929
0.816625
0.80137
0.803567
0.816832
0.822475
0.750673
0.823348
0.803768
0.78317
0.816509
0.803882
0.81069
0.815793
0.816112
0.835922
0.79365
0.799158
0.816395
0.759831
0.806728
0.815915
0.801016
0.816941
0.841368
0.80237
0.843765
0.809388
0.791077
0.812936
0.80262
0.8522
0.788508
0.803161
0.817034
0.83231
0.808405
0.814785
0.816734
0.802893
0.802697
0.826033
0.783432
0.815334
0.816355
0.64952
0.816546
0.713773
0.817677
0.838815
0.825237
0.804078
0.815646
0.81627
0.726955
0.815858
0.801034
0.801633
0.800996
0.816705
0.864279
0.801347
0.801135
0.785591
0.841255
0.82802
0.820423
0.814195
0.747753
0.804269
0.803318
0.731837
0.79966
0.715545
0.811446
0.800923
0.677961
0.880578
0.703553
0.772213
0.801527
0.744773
0.808397
0.799106
0.803028
0.662107
0.796768
0.784282
0.79918
0.731206
0.819556
0.823242
0.884873
0.809471
0.831555
0.646993
0.800142
0.787593
0.74625
0.752513
0.770264
0.708252
0.803117
0.799501
0.803192
0.764372
0.629433
0.811498
0.615605
0.821794
0.823321
0.81152
0.736949
0.812672
0.796348
0.819859
0.782999
0.808091
0.797154
0.810928
0.717804
0.801575
0.723773
0.801422
0.798946
0.689353
0.803724
0.816203
0.816255
0.803094
0.762099
0.816
0.731584
0.692114
0.802355
0.816258
0.874818
0.816173
0.815453
0.880908
0.865831
0.831383
0.716625
0.802058
0.811916
0.821539
0.798798
0.684302
0.723755
0.680028
0.802358
0.702492
0.769037
0.799548
0.622455
0.689406
0.836582
0.774518
0.746566
0.831109
0.760273
0.769135
0.65225
0.732787
0.785948
0.820324
0.869887
0.838294
0.816512
0.795369
0.799809
0.717458
0.816406
0.695461
0.797019
0.816249
0.783471
0.763426
0.802375
0.78363
0.802232
0.800851
0.81262
0.811106
0.867544
0.588869
0.545554
0.802458
0.80767
0.700293
0.810198
0.802841
0.838047
0.803495
0.802401
0.571622
0.564519
0.808412
0.813295
0.816336
0.72902
0.803155
0.811183
0.686834
0.812362
0.802725
0.814915
0.80317
0.801169
0.80228
0.815362
0.802949
0.817032
0.803288
0.862514
0.815719
0.802525
0.720779
0.672993
0.816302
0.589764
0.813388
0.810197
0.836425
0.814698
0.803099
0.81077
0.814409
0.814018
0.816033
0.801677
0.854216
0.856946
0.802475
0.659145
0.809233
0.822418
0.799439
0.803169
0.820649
0.736376
0.803235
0.825781
0.821946
0.816481
0.816163
0.767493
0.745194
0.801031
0.834568
0.80306
0.814975
0.804705
0.803921
0.805233
0.815034
0.809024
0.79895
0.806892
0.806222
0.824681
0.806701
0.806293
0.818351
0.807046
0.803359
0.814137
0.80294
0.802842
0.805821
0.808018
0.814268
0.774076
0.805344
0.802695
0.816196
0.799858
0.803769
0.806884
0.832423
0.805046
0.654721
0.800901
0.816211
0.804672
0.814789
0.763681
0.816012
0.751708
0.803675
0.80224
0.804073
0.819072
0.851533
0.804378
0.803248
0.746694
0.830191
0.816158
0.821103
0.824959
0.815511
0.738359
0.818869
0.724733
0.801106
0.828209
0.802447
0.703586
0.826476
0.815424
0.817208
0.824767
0.816496
0.773733
0.817958
0.65424
0.71378
0.816246
0.823281
0.680899
0.820048
0.660539
0.822117
0.807041
0.817491
0.803167
0.805833
0.815594
0.831909
0.825141
0.671637
0.81423
0.842593
0.781759
0.846818
0.800269
0.709228
0.839095
0.820263
0.836159
0.692417
0.688319
0.833513
0.66381
0.831247
0.816247
0.829245
0.806339
0.827553
0.787897
0.826074
0.824707
0.710695
0.866083
0.823536
0.822548
0.823662
0.760372
0.80287
0.531726
0.804035
0.821692
0.814657
0.804816
0.826604
0.816234
0.798255
0.82094
0.802997
0.685658
0.792556
0.834413
0.815571
0.718527
0.800169
0.82162
0.580917
0.815899
0.816678
0.80272
0.809989
0.728403
0.818585
0.803026
0.803498
0.796069
0.794924
0.798017
0.79475
0.80327
0.813633
0.819393
0.815189
0.576181
0.893263
0.708896
0.797957
0.741463
0.791577
0.816208
0.816774
0.816675
0.607732
0.819813
0.817282
0.804015
0.818765
0.836911
0.83973
0.783048
0.798476
0.79954
0.727925
0.754281
0.81639
0.764977
0.815257
0.819949
0.815958
0.813575
0.801949
0.776509
0.812136
0.817157
0.729526
0.810684
0.816954
0.819058
0.807925
0.809564
0.766062
0.8158
0.808292
0.803192
0.80753
0.619871
0.806603
0.804437
0.80602
0.822149
0.845799
0.804812
0.775561
0.805383
0.771799
0.821133
0.806783
0.813985
0.816219
0.850428
0.803431
0.744893
0.819873
0.81639
0.728605
0.801181
0.81729
0.758793
0.813868
0.572991
0.806715
0.687293
0.801488
0.811738
0.81355
0.818223
0.804267
0.816541
0.818653
0.801231
0.804641
0.844703
0.817197
0.796327
0.81712
0.80228
0.801846
0.800474
0.801451
0.807994
0.815803
0.801808
0.771357
0.81936
0.813548
0.808943
0.816227
0.590194
0.803461
0.813752
0.816425
0.788564
0.749837
0.71818
0.813722
0.816071
0.826692
0.790454
0.606233
0.772477
0.644597
0.817761
0.74488
0.813451
0.83052
0.699212
0.799914
0.8345
0.751394
0.800642
0.803178
0.816595
0.802991
0.700394
0.800885
0.55441
0.801985
0.80255
0.802238
0.607283
0.802954
0.803482
0.803212
0.729768
0.738695
0.803456
0.777365
0.816732
0.723538
0.708206
0.816179
0.801391
0.753728
0.854548
0.815045
0.813501
0.671383
0.80284
0.800726
0.800656
0.802524
0.659352
0.803326
0.816425
0.65658
0.687231
0.805931
0.791257
0.816294
0.823736
0.816084
0.816298
0.817453
0.80369
0.816351
0.816012
0.814025
0.829494
0.80272
0.801953
0.810575
0.729701
0.809645
0.815868
0.863157
0.811652
0.6405
0.775953
0.802301
0.776471
0.817708
0.812874
0.830549
0.814302
0.864961
0.802236
0.815661
0.597269
0.815887
0.834371
0.802942
0.815469
0.627776
0.816352
0.802714
0.817666
0.802303
0.818483
0.816998
0.754503
0.80361
0.803143
0.835648
0.862307
0.819793
0.817148
0.724322
0.743654
0.802584
0.803113
0.812278
0.818995
0.799781
0.802941
0.82036
0.807435
0.80762
0.739024
0.802766
0.818404
0.814823
0.768955
0.760398
0.812673
0.796523
0.857451
0.720076
0.835139
0.811956
0.710187
0.799799
0.815517
0.787509
0.800861
0.799791
0.81615
0.778387
0.774474
0.814536
0.696271
0.798922
0.766712
0.816035
0.818259
0.802146
0.788527
0.739988
0.753632
0.774848
0.815789
0.819867
0.806696
0.670087
0.802957
0.796635
0.777947
0.809815
0.814084
0.799649
0.803442
0.639249
0.804278
0.804891
0.851835
0.803755
0.809288
0.833907
0.805566
0.811129
0.852718
0.617347
0.804085
0.817203
0.805463
0.805074
0.80577
0.804629
0.804738
0.804247
0.805861
0.806577
0.726295
0.805757
0.807264
0.807557
0.816107
0.808381
0.819279
0.803127
0.803549
0.81576
0.815905
0.811076
0.803348
0.816305
0.813414
0.810583
0.817054
0.710417
0.815041
0.832148
0.816059
0.854785
0.750762
0.809014
0.816189
0.801154
0.62171
0.803292
0.773233
0.822749
0.629372
0.81667
0.830198
0.815834
0.812658
0.802203
0.827368
0.819831
0.803722
0.765719
0.818066
0.758795
0.551924
0.815554
0.692559
0.697403
0.820476
0.828355
0.828214
0.817688
0.84808
0.584475
0.877179
0.805318
0.826686
0.825048
0.814025
0.684614
0.816044
0.823541
0.817423
0.801358
0.773732
0.822353
0.570069
0.813945
0.843771
0.803174
0.840246
0.822332
0.803269
0.672684
0.843656
0.821302
0.837093
0.801082
0.814679
0.803076
0.83449
0.802902
0.814638
0.832093
0.829974
0.822112
0.825122
0.831069
0.738672
0.665776
0.571961
0.828154
0.826653
0.767933
0.757433
0.807368
0.825246
0.847074
0.595978
0.823986
0.822916
0.822025
0.820534
0.804032
0.820871
0.663072
0.745713
0.821242
0.797728
0.870502
0.890406
0.776819
0.804891
0.671252
0.835756
0.732726
0.72162
0.819227
0.801755
0.783735
0.666991
0.802254
0.816225
0.78907
0.715071
0.801463
0.817249
0.79811
0.682366
0.824046
0.792941
0.816834
0.833961
0.815252
0.796696
0.817245
0.817022
0.786005
0.804118
0.71397
0.84086
0.793202
0.812079
0.782233
0.804514
0.70036
0.800956
0.813589
0.81222
0.811053
0.809541
0.808448
0.80769
0.806068
0.804952
0.806872
0.727913
0.805503
0.801545
0.796007
0.803369
0.844706
0.718085
0.803241
0.776342
0.884248
0.854758
0.79808
0.725977
0.803536
0.797766
0.721057
0.803382
0.801911
0.736346
0.803727
0.790987
0.797635
0.801294
0.738214
0.780842
0.80537
0.748977
0.764662
0.770707
0.801611
0.815784
0.808686
0.760115
0.751736
0.799581
0.814924
0.803347
0.793691
0.801235
0.928714
0.860945
0.81863
0.816101
0.723059
0.844895
0.748641
0.826308
0.817123
0.898369
0.816246
0.797475
0.59187
0.816267
0.797592
0.81629
0.79801
0.846021
0.52918
0.833511
0.801592
0.805788
0.804957
0.803963
0.85625
0.801424
0.818388
0.702931
0.666634
0.668292
0.816323
0.510604
0.797991
0.723782
0.842284
0.815019
0.561872
0.802776
0.815733
0.81543
0.720278
0.801906
0.528602
0.797537
0.816436
0.797659
0.802803
0.797899
0.816581
0.834451
0.803259
0.798603
0.816937
0.798869
0.817075
0.814333
0.799155
0.817234
0.814898
0.81742
0.799268
0.817631
0.681089
0.799464
0.817868
0.8031
0.799656
0.818107
0.700427
0.816244
0.798514
0.816228
0.798624
0.811044
0.838668
0.861771
0.801098
0.800742
0.819006
0.815547
0.800384
0.800009
0.863898
0.812934
0.818692
0.811497
0.850383
0.829307
0.817666
0.826002
0.846814
0.816192
0.801873
0.820199
0.812281
0.802302
0.816063
0.800293
0.808183