# vtk DataFile Version 1.0
unstructured grid
ascii
DATASET UNSTRUCTURED_GRID
points 3920 float
-1 0 0
-1 1 0
2 0 0
2 1 0
0 0 0
1 0 0
-1 1 0.1
-1 0 0.1
0 0 0.1
1 0 0.1
2 0 0.1
2 1 0.1
-0.98 0 0
-0.96 0 0
-0.94 0 0
-0.92 0 0
-0.9 0 0
-0.88 0 0
-0.86 0 0
-0.84 0 0
-0.82 0 0
-0.8 0 0
-0.78 0 0
-0.76 0 0
-0.74 0 0
-0.72 0 0
-0.7 0 0
-0.68 0 0
-0.66 0 0
-0.64 0 0
-0.62 0 0
-0.6 0 0
-0.58 0 0
-0.56 0 0
-0.54 0 0
-0.52 0 0
-0.5 0 0
-0.48 0 0
-0.46 0 0
-0.44 0 0
-0.42 0 0
-0.4 0 0
-0.38 0 0
-0.36 0 0
-0.34 0 0
-0.32 0 0
-0.3 0 0
-0.28 0 0
-0.26 0 0
-0.24 0 0
-0.22 0 0
-0.2 0 0
-0.18 0 0
-0.16 0 0
-0.14 0 0
-0.12 0 0
-0.1 0 0
-0.08 0 0
-0.06 0 0
-0.04 0 0
-0.02 0 0
1.02 0 0
1.04 0 0
1.06 0 0
1.08 0 0
1.1 0 0
1.12 0 0
1.14 0 0
1.16 0 0
1.18 0 0
1.2 0 0
1.22 0 0
1.24 0 0
1.26 0 0
1.28 0 0
1.3 0 0
1.32 0 0
1.34 0 0
1.36 0 0
1.38 0 0
1.4 0 0
1.42 0 0
1.44 0 0
1.46 0 0
1.48 0 0
1.5 0 0
1.52 0 0
1.54 0 0
1.56 0 0
1.58 0 0
1.6 0 0
1.62 0 0
1.64 0 0
1.66 0 0
1.68 0 0
1.7 0 0
1.72 0 0
1.74 0 0
1.76 0 0
1.78 0 0
1.8 0 0
1.82 0 0
1.84 0 0
1.86 0 0
1.88 0 0
1.9 0 0
1.92 0 0
1.94 0 0
1.96 0 0
1.98 0 0
2 0.0199133 0
2 0.0414128 0
2 0.0646247 0
2 0.0896856 0
2 0.116743 0
2 0.145955 0
2 0.177494 0
2 0.211545 0
2 0.248309 0
2 0.288001 0
2 0.330854 0
2 0.377121 0
2 0.427073 0
2 0.481004 0
2 0.539231 0
2 0.602096 0
2 0.669968 0
2 0.743247 0
2 0.822362 0
2 0.907779 0
1.9 1 0
1.8 1 0
1.7 1 0
1.6 1 0
1.5 1 0
1.4 1 0
1.3 1 0
1.2 1 0
1.1 1 0
1 1 0
0.9 1 0
0.8 1 0
0.7 1 0
0.6 1 0
0.5 1 0
0.4 1 0
0.3 1 0
0.2 1 0
0.1 1 0
3.69793e-12 1 0
-0.1 1 0
-0.2 1 0
-0.3 1 0
-0.4 1 0
-0.5 1 0
-0.6 1 0
-0.7 1 0
-0.8 1 0
-0.9 1 0
-1 0.907779 0
-1 0.822362 0
-1 0.743247 0
-1 0.669968 0
-1 0.602096 0
-1 0.539231 0
-1 0.481004 0
-1 0.427073 0
-1 0.377121 0
-1 0.330854 0
-1 0.288001 0
-1 0.248309 0
-1 0.211545 0
-1 0.177494 0
-1 0.145955 0
-1 0.116743 0
-1 0.0896856 0
-1 0.0646247 0
-1 0.0414128 0
-1 0.0199133 0
0.0182781 0.00745351 0
0.0366672 0.0146286 0
0.0551632 0.0215237 0
0.0737617 0.0281372 0
0.0924585 0.0344675 0
0.111249 0.0405131 0
0.13013 0.0462728 0
0.149095 0.0517451 0
0.168142 0.0569289 0
0.187265 0.0618228 0
0.20646 0.0664258 0
0.225723 0.0707368 0
0.245049 0.0747549 0
0.264434 0.078479 0
0.283873 0.0819084 0
0.303362 0.0850422 0
0.322896 0.0878798 0
0.342472 0.0904204 0
0.362083 0.0926635 0
0.381726 0.0946086 0
0.401397 0.0962552 0
0.42109 0.0976029 0
0.440802 0.0986514 0
0.460527 0.0994006 0
0.480261 0.0998501 0
0.5 0.1 0
0.519739 0.0998501 0
0.539473 0.0994006 0
0.559198 0.0986514 0
0.57891 0.0976029 0
0.598603 0.0962552 0
0.618274 0.0946086 0
0.637917 0.0926635 0
0.657528 0.0904204 0
0.677104 0.0878798 0
0.696638 0.0850422 0
0.716127 0.0819084 0
0.735566 0.078479 0
0.754951 0.0747549 0
0.774277 0.0707368 0
0.79354 0.0664258 0
0.812735 0.0618228 0
0.831858 0.0569289 0
0.850905 0.0517451 0
0.86987 0.0462728 0
0.888751 0.0405131 0
0.907542 0.0344675 0
0.926238 0.0281372 0
0.944837 0.0215237 0
0.963333 0.0146286 0
0.981722 0.00745351 0
-1 0.907779 0.1
-1 0.822362 0.1
-1 0.743247 0.1
-1 0.669968 0.1
-1 0.602096 0.1
-1 0.539231 0.1
-1 0.481004 0.1
-1 0.427073 0.1
-1 0.377121 0.1
-1 0.330854 0.1
-1 0.288001 0.1
-1 0.248309 0.1
-1 0.211545 0.1
-1 0.177494 0.1
-1 0.145955 0.1
-1 0.116743 0.1
-1 0.0896856 0.1
-1 0.0646247 0.1
-1 0.0414128 0.1
-1 0.0199133 0.1
-0.98 0 0.1
-0.96 0 0.1
-0.94 0 0.1
-0.92 0 0.1
-0.9 0 0.1
-0.88 0 0.1
-0.86 0 0.1
-0.84 0 0.1
-0.82 0 0.1
-0.8 0 0.1
-0.78 0 0.1
-0.76 0 0.1
-0.74 0 0.1
-0.72 0 0.1
-0.7 0 0.1
-0.68 0 0.1
-0.66 0 0.1
-0.64 0 0.1
-0.62 0 0.1
-0.6 0 0.1
-0.58 0 0.1
-0.56 0 0.1
-0.54 0 0.1
-0.52 0 0.1
-0.5 0 0.1
-0.48 0 0.1
-0.46 0 0.1
-0.44 0 0.1
-0.42 0 0.1
-0.4 0 0.1
-0.38 0 0.1
-0.36 0 0.1
-0.34 0 0.1
-0.32 0 0.1
-0.3 0 0.1
-0.28 0 0.1
-0.26 0 0.1
-0.24 0 0.1
-0.22 0 0.1
-0.2 0 0.1
-0.18 0 0.1
-0.16 0 0.1
-0.14 0 0.1
-0.12 0 0.1
-0.1 0 0.1
-0.08 0 0.1
-0.06 0 0.1
-0.04 0 0.1
-0.02 0 0.1
0.0182781 0.00745351 0.1
0.0366672 0.0146286 0.1
0.0551632 0.0215237 0.1
0.0737617 0.0281372 0.1
0.0924585 0.0344675 0.1
0.111249 0.0405131 0.1
0.13013 0.0462728 0.1
0.149095 0.0517451 0.1
0.168142 0.0569289 0.1
0.187265 0.0618228 0.1
0.20646 0.0664258 0.1
0.225723 0.0707368 0.1
0.245049 0.0747549 0.1
0.264434 0.078479 0.1
0.283873 0.0819084 0.1
0.303362 0.0850422 0.1
0.322896 0.0878798 0.1
0.342472 0.0904204 0.1
0.362083 0.0926635 0.1
0.381726 0.0946086 0.1
0.401397 0.0962552 0.1
0.42109 0.0976029 0.1
0.440802 0.0986514 0.1
0.460527 0.0994006 0.1
0.480261 0.0998501 0.1
0.5 0.1 0.1
0.519739 0.0998501 0.1
0.539473 0.0994006 0.1
0.559198 0.0986514 0.1
0.57891 0.0976029 0.1
0.598603 0.0962552 0.1
0.618274 0.0946086 0.1
0.637917 0.0926635 0.1
0.657528 0.0904204 0.1
0.677104 0.0878798 0.1
0.696638 0.0850422 0.1
0.716127 0.0819084 0.1
0.735566 0.078479 0.1
0.754951 0.0747549 0.1
0.774277 0.0707368 0.1
0.79354 0.0664258 0.1
0.812735 0.0618228 0.1
0.831858 0.0569289 0.1
0.850905 0.0517451 0.1
0.86987 0.0462728 0.1
0.888751 0.0405131 0.1
0.907542 0.0344675 0.1
0.926238 0.0281372 0.1
0.944837 0.0215237 0.1
0.963333 0.0146286 0.1
0.981722 0.00745351 0.1
1.02 0 0.1
1.04 0 0.1
1.06 0 0.1
1.08 0 0.1
1.1 0 0.1
1.12 0 0.1
1.14 0 0.1
1.16 0 0.1
1.18 0 0.1
1.2 0 0.1
1.22 0 0.1
1.24 0 0.1
1.26 0 0.1
1.28 0 0.1
1.3 0 0.1
1.32 0 0.1
1.34 0 0.1
1.36 0 0.1
1.38 0 0.1
1.4 0 0.1
1.42 0 0.1
1.44 0 0.1
1.46 0 0.1
1.48 0 0.1
1.5 0 0.1
1.52 0 0.1
1.54 0 0.1
1.56 0 0.1
1.58 0 0.1
1.6 0 0.1
1.62 0 0.1
1.64 0 0.1
1.66 0 0.1
1.68 0 0.1
1.7 0 0.1
1.72 0 0.1
1.74 0 0.1
1.76 0 0.1
1.78 0 0.1
1.8 0 0.1
1.82 0 0.1
1.84 0 0.1
1.86 0 0.1
1.88 0 0.1
1.9 0 0.1
1.92 0 0.1
1.94 0 0.1
1.96 0 0.1
1.98 0 0.1
2 0.0199133 0.1
2 0.0414128 0.1
2 0.0646247 0.1
2 0.0896856 0.1
2 0.116743 0.1
2 0.145955 0.1
2 0.177494 0.1
2 0.211545 0.1
2 0.248309 0.1
2 0.288001 0.1
2 0.330854 0.1
2 0.377121 0.1
2 0.427073 0.1
2 0.481004 0.1
2 0.539231 0.1
2 0.602096 0.1
2 0.669968 0.1
2 0.743247 0.1
2 0.822362 0.1
2 0.907779 0.1
1.9 1 0.1
1.8 1 0.1
1.7 1 0.1
1.6 1 0.1
1.5 1 0.1
1.4 1 0.1
1.3 1 0.1
1.2 1 0.1
1.1 1 0.1
1 1 0.1
0.9 1 0.1
0.8 1 0.1
0.7 1 0.1
0.6 1 0.1
0.5 1 0.1
0.4 1 0.1
0.3 1 0.1
0.2 1 0.1
0.1 1 0.1
3.69793e-12 1 0.1
-0.1 1 0.1
-0.2 1 0.1
-0.3 1 0.1
-0.4 1 0.1
-0.5 1 0.1
-0.6 1 0.1
-0.7 1 0.1
-0.8 1 0.1
-0.9 1 0.1
1.08758 0.0158154 0
-0.0898513 0.0203294 0
0.0966181 0.0537636 0
0.90205 0.0548881 0
1.21055 0.0202058 0
-0.209811 0.0159577 0
1.3305 0.0176902 0
-0.33 0.0173205 0
1.45324 0.0148141 0
-0.448654 0.0159854 0
1.56842 0.0191785 0
-0.569936 0.0166364 0
0.193292 0.0805369 0
0.805051 0.0813623 0
0.709096 0.100353 0
0.288591 0.0996656 0
0.390184 0.111848 0
0.61033 0.111742 0
0.488809 0.116278 0
1.67175 0.0169692 0
-0.67 0.0169809 0
-0.955017 0.454039 0
1.95131 0.44569 0
1.74981 0.0168753 0
-0.75 0.0173205 0
-0.968032 0.266538 0
1.96871 0.266267 0
0.978232 0.0305687 0
0.0208675 0.026451 0
-0.150454 0.91842 0
1.13854 0.907437 0
1.45012 0.904365 0
-0.445923 0.908903 0
-0.853423 0.0157019 0
1.84881 0.016319 0
0.853689 0.915652 0
0.153944 0.912184 0
0.545151 0.914125 0
0.549913 0.115152 0
1.51 0.0173205 0
-0.506989 0.01651 0
1.27 0.0173205 0
1.14976 0.0173333 0
-0.268171 0.0206442 0
-0.150501 0.0153244 0
-0.391384 0.0153993 0
1.38886 0.0171544 0
-0.973694 0.161724 0
1.97441 0.162392 0
-0.945221 0.633523 0
1.94544 0.63312 0
1.91008 0.0186068 0
-0.91 0.0169616 0
-0.030664 0.0194327 0
1.03074 0.0165456 0
-0.966065 0.353575 0
1.96128 0.359765 0
1.93879 0.781254 0
-0.937057 0.781882 0
-0.980746 0.080709 0
1.9772 0.0760699 0
0.058735 0.0409372 0
0.355202 0.913001 0
0.86356 0.0661005 0
0.134223 0.0651111 0
0.941972 0.0397386 0
-0.653034 0.915003 0
1.65328 0.904589 0
0.770126 0.0881325 0
0.232946 0.0902008 0
0.330582 0.105648 0
0.670612 0.108365 0
0.428707 0.116145 0
1.80993 0.016629 0
-0.810168 0.0172178 0
-0.71 0.0173205 0
1.63047 0.0175504 0
1.70842 0.0169661 0
-0.628824 0.0181787 0
-0.949815 0.0133898 0
1.95 0.0173205 0
1.85542 0.907891 0
-0.85 0.913397 0
1.9833 0.0307692 0
-0.983315 0.0309709 0
-0.750025 0.916468 0
-0.701107 0.836904 0
-0.607741 0.836428 0
-0.656448 0.759827 0
-0.572936 0.758144 0
-0.61411 0.691195 0
-0.539534 0.689068 0
-0.578542 0.626111 0
-0.507461 0.624216 0
-0.544001 0.566638 0
-0.477696 0.564279 0
-0.511582 0.51001 0
-0.451689 0.507147 0
-0.481834 0.457732 0
-0.426137 0.454624 0
-0.453236 0.407539 0
-0.398845 0.406233 0
-0.507958 0.409496 0
-0.368427 0.460177 0
-0.344602 0.405209 0
-0.315696 0.447824 0
-0.294128 0.402169 0
-0.262844 0.444518 0
-0.241968 0.388746 0
-0.209878 0.439557 0
-0.185184 0.391135 0
-0.156687 0.437338 0
-0.133719 0.390776 0
-0.104405 0.434306 0
-0.0818745 0.388334 0
-0.0528785 0.431165 0
-0.0305984 0.385639 0
-0.00180552 0.427863 0
0.0194564 0.382608 0
0.0485809 0.42449 0
0.0701962 0.37973 0
0.0985483 0.421145 0
0.119893 0.377339 0
0.147837 0.417911 0
0.172552 0.36751 0
0.197018 0.412597 0
0.221203 0.37141 0
0.24512 0.409646 0
-0.48178 0.364657 0
-0.531053 0.364782 0
-0.0599102 0.344151 0
-0.324909 0.359566 0
0.266181 0.368462 0
0.292132 0.407649 0
0.311992 0.365779 0
0.338918 0.404821 0
0.357567 0.355909 0
0.384723 0.40053 0
0.404675 0.359681 0
0.430617 0.398558 0
0.450457 0.35827 0
0.474237 0.395182 0
0.496746 0.34898 0
0.520548 0.397931 0
0.542071 0.353121 0
0.566011 0.389914 0
0.585061 0.350856 0
0.609352 0.38696 0
0.629069 0.348168 0
0.655979 0.391217 0
0.67472 0.346182 0
0.699346 0.381414 0
0.719333 0.341965 0
0.743718 0.377547 0
0.764028 0.339036 0
0.788201 0.373582 0
0.807659 0.336101 0
0.832821 0.372249 0
0.852309 0.334017 0
0.877785 0.370339 0
0.897875 0.331141 0
0.922904 0.366281 0
0.943173 0.327335 0
0.968282 0.363358 0
0.989029 0.324222 0
1.01391 0.361511 0
1.03465 0.321428 0
1.05949 0.358447 0
1.08389 0.312052 0
1.10575 0.355104 0
1.12889 0.31562 0
1.15067 0.353235 0
1.17157 0.312819 0
1.19626 0.349369 0
1.21618 0.309863 0
1.2416 0.346914 0
1.26131 0.30715 0
1.28691 0.344312 0
1.30571 0.303752 0
1.33144 0.341222 0
1.35018 0.300911 0
1.3758 0.338308 0
1.39501 0.298931 0
1.42015 0.335235 0
1.43904 0.296349 0
1.46355 0.330194 0
1.48256 0.293347 0
1.50685 0.326967 0
1.52589 0.29055 0
1.54996 0.325305 0
1.56909 0.287929 0
[...]
CELL_DATA 3694
SCALARS rho float
LOOKUP_TABLE default
0.739971
0.679289
0.804401
0.818576
0.829257
0.8058
0.792815
0.800996
0.814589
0.803377
0.821867
0.821857
0.841232
0.790717
0.801735
0.757295
0.803724
0.80363
0.765963
0.85164
0.820473
0.826662
0.71084
0.804027
0.707649
0.840199
0.722487
0.807422
0.837909
0.799286
0.799454
0.720367
0.804111
0.82564
0.803665
0.801369
0.838991
0.826379
0.827646
0.779097
0.805327
0.818181
0.835261
0.826217
0.805971
0.818504
0.801965
0.68618
0.686075
0.731531
0.802726
0.803221
0.84849
0.802918
0.656554
0.839902
0.803492
0.822358
0.833246
0.758229
0.797345
0.821039
0.844261
0.80059
0.844962
0.833676
0.80866
0.819346
0.737486
0.859995
0.803416
0.808323
0.826684
0.803697
0.827825
0.803216
0.814858
0.800388
0.818654
0.803372
0.72399
0.819397
0.802687
0.777774
0.814009
0.800367
0.821727
0.724646
0.73678
0.827563
0.802623
0.803072
0.82151
0.818693
0.681448
0.807264
0.727959
0.822219
0.817449
0.842196
0.819934
0.768232
0.718419
0.814269
0.813442
0.821032
0.822216
0.80776
0.720375
0.818875
0.800175
0.733052
0.720968
0.825946
0.8693
0.802872
0.803252
0.817263
0.803401
0.80276
0.767302
0.823205
0.823292
0.773918
0.703834
0.762058
0.82174
0.781581
0.845276
0.712194
0.768885
0.801314
0.808687
0.779921
0.802079
0.798817
0.806157
0.802795
0.798702
0.819823
0.818435
0.718986
0.821443
0.819278
0.761119
0.688261
0.683574
0.798903
0.821069
0.813829
0.751094
0.803135
0.583849
0.782249
0.700482
0.769062
0.718757
0.787332
0.618414
0.794311
0.838066
0.653276
0.783995
0.741793
0.846416
0.581037
0.818082
0.801344
0.804031
0.68016
0.801987
0.672305
0.859547
0.60579
0.800785
0.660596
0.873289
0.836176
0.824179
0.746146
0.818607
0.722107
0.830231
0.738741
0.656767
0.803512
0.67239
0.82694
0.802352
0.852941
0.792908
0.701994
0.820856
0.799168
0.747842
0.853738
0.812148
0.850425
0.741287
0.749851
0.773525
0.797089
0.834672
0.834806
0.817512
0.819567
0.679556
0.805284
0.734714
0.803585
0.721252
0.800286
0.796571
0.802371
0.829124
0.769178
0.833469
0.753727
0.829076
0.823244
0.821053
0.853913
0.830109
0.716473
0.830366
0.678125
0.789333
0.81373
0.853111
0.833074
0.812775
0.795515
0.75193
0.822145
0.839196
0.822001
0.723481
0.80347
0.70516
0.796001
0.796432
0.814045
0.654612
0.808501
0.763055
0.798818
0.803361
0.763813
0.820882
0.866595
0.78512
0.689797
0.805278
0.802764
0.655656
0.796476
0.780242
0.802681
0.840808
0.820742
0.620228
0.820781
0.810911
0.800922
0.820868
0.803092
0.816047
0.817482
0.836207
0.760784
0.802273
0.837642
0.811607
0.803403
0.797205
0.820993
0.729222
0.600245
0.821381
0.83023
0.824334
0.80536
0.698291
0.820865
0.820743
0.820204
0.724602
0.800169
0.821032
0.61106
0.803153
0.870273
0.675394
0.762741
0.841109
0.829497
0.82088
0.705092
0.810189
0.821041
0.804447
0.802526
0.812867
0.838518
0.81843
0.769938
0.807806
0.803448
0.654808
0.824956
0.831128
0.682139
0.794872
0.823148
0.821524
0.687489
0.662488
0.825316
0.827545
0.810312
0.734163
0.714128
0.720721
0.741721
0.824277
0.781411
0.804826
0.741677
0.743129
0.826148
0.814396
0.820268
0.774021
0.820879
0.819414
0.821944
0.820598
0.803249
0.808484
0.805011
0.688681
0.803037
0.813721
0.709884
0.808373
0.805827
0.823628
0.787483
0.806778
0.793155
0.820939
0.824948
0.824253
0.79911
0.699499
0.723283
0.800322
0.811626
0.642012
0.804515
0.808697
0.818029
0.749054
0.805018
0.820835
0.816846
0.822296
0.805734
0.798337
0.769309
0.805537
0.845902
0.821135
0.705318
0.804591
0.71433
0.704301
0.803698
0.624071
0.773259
0.786423
0.808751
0.819564
0.828272
0.821537
0.815711
0.824262
0.831388
0.803199
0.769416
0.810506
0.670027
0.823346
0.761803
0.735798
0.702765
0.819544
0.855518
0.823367
0.809975
0.822971
0.820853
0.78848
0.763729
0.814293
0.699192
0.792445
0.845535
0.827148
0.801547
0.865642
0.814125
0.820453
0.822134
0.83157
0.646696
0.802467
0.740702
0.798761
0.736186
0.822049
0.809431
0.790791
0.673825
0.820709
0.830709
0.817312
0.80355
0.80444
0.82787
0.804476
0.722631
0.791482
0.803356
0.820604
0.818376
0.817299
0.872911
0.831099
0.810142
0.835096
0.690901
0.827095
0.840292
0.821086
0.636941
0.820862
0.810103
0.847788
0.825284
0.803378
0.604809
0.811006
0.708072
0.806849
0.803197
0.813382
0.819653
0.825848
0.805769
0.811981
0.820719
0.734699
0.864564
0.802412
0.852284
0.820952
0.596337
0.804517
0.797817
0.816731
0.822209
0.677292
0.80322
0.810412
0.813851
0.807875
0.794958
0.820919
0.821781
0.800232
0.805166
0.825261
0.838857
0.74006
0.807048
0.810899
0.817889
0.689334
0.806132
0.819963
0.800124
0.804977
0.611516
0.835895
0.769387
0.820787
0.822241
0.833851
0.848193
0.820623
0.817114
0.72632
0.799847
0.853927
0.813032
0.71546
0.800969
0.802921
0.873496
0.847607
0.823334
0.802454
0.810465
0.759716
0.82063
0.814868
0.59864
0.803404
0.739454
0.752376
0.80398
0.816703
0.78242
0.822371
0.820685
0.83907
0.820133
0.80133
0.812785
0.739191
0.742525
0.804829
0.81231
0.824501
0.803156
0.753982
0.700844
0.819529
0.816162
0.814736
0.607821
0.819419
0.819764
0.828298
0.803689
0.812289
0.823436
0.812568
0.842056
0.803478
0.813441
0.82686
0.820913
0.820604
0.824284
0.703104
0.785782
0.798137
0.803738
0.849859
0.802473
0.805891
0.644154
0.81387
0.818511
0.811748
0.823344
0.806534
0.81902
0.732098
0.84603
0.706565
0.801307
0.821994
0.808034
0.68031
0.672114
0.816619
0.806444
0.805231
0.789608
0.802006
0.832386
0.817941
0.805711
0.802982
0.817006
0.628937
0.817687
0.804006
0.713116
0.819719
0.650022
0.788549
0.82038
0.83974
0.810263
0.81825
0.796711
0.798975
0.805046
0.80194
0.817464
0.812104
0.813719
0.803671
0.758452
0.804775
0.818441
0.817821
0.819474
0.817054
0.820953
0.82073
0.836279
0.74644
0.807639
0.820738
0.803388
0.562306
0.698032
0.812485
0.819233
0.820651
0.781789
0.809614
0.813992
0.804153
0.800793
0.803617
0.822839
0.823788
0.820742
0.78909
0.811873
0.810037
0.650918
0.776718
0.762195
0.80922
0.740292
0.693858
0.798512
0.770297
0.830911
0.821017
0.820578
0.809185
0.55979
0.816816
0.597145
0.711476
0.82826
0.870906
0.74959
0.821145
0.854871
0.703475
0.820252
0.809865
0.815834
0.80816
0.664858
0.85655
0.738766
0.739962
0.804169
0.805302
0.800315
0.834076
0.820856
0.699374
0.818395
0.800899
0.707859
0.842152
0.799153
0.633259
0.775702
0.820779
0.812311
0.820552
0.785521
0.735608
0.775417
0.83787
0.695013
0.821083
0.820939
0.830343
0.76919
0.825945
0.703655
0.805329
0.66874
0.706731
0.803458
0.823882
0.792877
0.820755
0.820692
0.820769
0.820133
0.593964
0.802877
0.821081
0.747847
0.810872
0.820665
0.817447
0.714417
0.686689
0.745872
0.639232
0.808205
0.690734
0.820952
0.802332
0.820759
0.837805
0.684116
0.807615
0.823375
0.834545
0.746509
0.785994
0.766004
0.776725
0.816375
0.63646
0.668561
0.820838
0.80611
0.816251
0.805293
0.722596
0.783793
0.733787
0.761627
0.800733
0.834972
0.813238
0.697399
0.827126
0.820812
0.816132
0.701296
0.687766
0.691741
0.873524
0.820967
0.820723
0.621778
0.717162
0.650549
0.804445
0.801042
0.679567
0.813041
0.826776
0.756472
0.80074
0.737394
0.819502
0.698659
0.820812
0.811314
0.805234
0.803442
0.82782
0.748991
0.821001
0.820957
0.7824
0.598216
0.817584
0.815832
0.762685
0.820051
0.748295
0.804012
0.829167
0.684239
0.822612
0.803012
0.810778
0.60191
0.669039
0.740934
0.807199
0.816951
0.815874
0.824991
0.816049
0.820938
0.710218
0.802347
0.817731
0.829601
0.709444
0.736676
0.817824
0.815084
0.704949
0.81527
0.778069
0.698939
0.812716
0.702253
0.80804
0.670571
0.803152
0.730504
0.679036
0.815935
0.787856
0.749696
0.640431
0.842306
0.821837
0.81922
0.774206
0.820343
0.800857
0.789506
0.800876
0.802517
0.819265
0.741221
0.810545
0.800923
0.82314
0.611537
0.802455
0.817307
0.818138
0.816227
0.816652
0.751274
0.806281
0.766822
0.755763
0.822854
0.665393
0.822726
0.821938
0.803449
0.819964
0.821175
0.731225
0.769537
0.825909
0.789139
0.804514
0.820479
0.876179
0.821862
0.802516
0.821638
0.820828
0.795101
0.822904
0.820693
0.776075
0.71294
0.843764
0.797989
0.80354
0.823527
0.784612
0.822344
0.825462
0.823032
0.821668
0.871958
0.803483
0.805925
0.822696
0.803467
0.820601
0.807794
0.743283
0.820456
0.823915
0.754828
0.721529
0.82027
0.844255
0.823214
0.678266
0.825688
0.776288
0.812856
0.80293
0.735952
0.803378
0.799644
0.816466
0.820918
0.703059
0.717195
0.803071
0.788806
0.802826
0.827148
0.721813
0.820916
0.803348
0.801374
0.825703
0.820869
0.723592
0.820699
0.766685
0.80323
0.833362
0.804054
0.7776
0.7988
0.795488
0.8206
0.657681
0.821043
0.689647
0.697185
0.804154
0.823778
0.820958
0.803226
0.820682
0.811639
0.733026
0.788874
0.858994
0.80338
0.835623
0.808294
0.580356
0.763195
0.784605
0.662879
0.745043
0.595775
0.8225
0.819394
0.817255
0.802891
0.768555
0.693972
0.769705
0.753434
0.784066
0.821026
0.845701
0.82364
0.80665
0.820002
0.826033
0.803607
0.808866
0.715125
0.803968
0.760449
0.809502
0.798866
0.757754
0.825252
0.790036
0.804279
0.794127
0.842981
0.732445
0.801695
0.80056
0.805676
0.626694
0.820863
0.820802
0.822995
0.652259
0.820742
0.820614
0.79951
0.804546
0.794546
0.779955
0.807627
0.798618
0.82109
0.754141
0.807754
0.876404
0.766799
0.753866
0.810887
0.785133
0.845054
0.803842
0.78437
0.819181
0.799189
0.793905
0.80889
0.829091
0.83854
0.800611
0.589528
0.824366
0.831356
0.773926
0.833863
0.840578
0.826483
0.829555
0.808125
0.835667
0.830234
0.785209
0.810198
0.816522
0.810469
0.826481
0.803992
0.82799
0.794122
0.804563
0.806671
0.734515
0.807981
0.578741
0.822374
0.828837
0.831874
0.807035
0.819233
0.827557
0.820276
0.824818
0.841424
0.836062
0.792104
0.801008
0.825595
0.820146
0.821658
0.801179
0.807208
0.867073
0.824155
0.849599
0.820036
0.801499
0.825293
0.800772
0.834157
0.818194
0.819234
0.806067
0.735328
0.803522
0.805254
0.820497
0.804032
0.804952
0.822805
0.805528
0.804879
0.780035
0.820497
0.722835
0.815304
0.784995
0.762562
0.804211
0.81416
0.819611
0.724797
0.823548
0.816059
0.82719
0.821472
0.792884
0.821249
0.848066
0.834097
0.818055
0.81261
0.80227
0.75025
0.693092
0.820887
0.821496
0.775653
0.818838
0.808703
0.816609
0.806349
0.79948
0.778186
0.802827
0.800853
0.843645
0.821963
0.812461
0.807197
0.614901
0.738604
0.802958
0.787541
0.805018
0.820274
0.806862
0.821123
0.781871
0.820858
0.805705
0.815678
0.804615
0.822174
0.80339
0.821011
0.815593
0.820607
0.817359
0.725922
0.818735
0.820928
0.609342
0.820708
0.797862
0.803833
0.860523
0.822179
0.815545
0.873736
0.820357
0.820509
0.821609
0.823091
0.81959
0.766996
0.830843
0.802327
0.803763
0.818602
0.820525
0.821541
0.820646
0.817621
0.823841
0.80457
0.816819
0.809964
0.816309
0.820795
0.820721
0.816228
0.823299
0.809687
0.691022
0.67139
0.803208
0.809762
0.803937
0.815862
0.822486
0.821236
0.803442
0.805072
0.801461
0.801546
0.82126
0.846252
0.822894
0.812639
0.822659
0.82258
0.846922
0.821672
0.822083
0.787281
0.820196
0.807535
0.802503
0.793334
0.814814
0.822735
0.820573
0.82015
0.836551
0.809942
0.818358
0.820905
0.822415
0.804098
0.803926
0.806225
0.816026
0.820555
0.802195
0.806816
0.821617
0.823278
0.801703
0.6562
0.804883
0.799814
0.818323
0.799565
0.803343
0.752611
0.843343
0.803496
0.800521
0.837624
0.832881
0.811102
0.829625
0.801261
0.822271
0.821208
0.822996
0.804178
0.82264
0.73816
0.826092
0.812234
0.800969
0.814043
0.82453
0.800084
0.804625
0.786536
0.815949
0.820816
0.820862
0.822786
0.80715
0.821756
0.82083
0.828771
0.822679
0.840337
0.806819
0.701106
0.822173
0.842483
0.82388
0.805478
0.800706
0.804185
0.819962
0.815005
0.820858
0.746606
0.746645
0.801617
0.80366
0.820604
0.820745
0.802837
0.668234
0.713833
0.808759
0.769924
0.820988
0.706564
0.803357
0.733165
0.803411
0.820982
0.803366
0.821877
0.817848
0.799268
0.809455
0.797323
0.830442
0.820847
0.802091
0.804216
0.820449
0.825342
0.754994
0.825615
0.804332
0.784112
0.820781
0.804475
0.811621
0.820674
0.820508
0.837866
0.796618
0.799673
0.820718
0.762887
0.807544
0.820709
0.801724
0.820728
0.841847
0.803063
0.845365
0.811681
0.793434
0.817426
0.802895
0.852663
0.789537
0.803558
0.821065
0.834616
0.809107
0.819153
0.820775
0.803413
0.803153
0.826637
0.785932
0.819664
0.820568
0.66686
0.820694
0.717898
0.81835
0.840604
0.827843
0.804889
0.820272
0.820779
0.731444
0.820626
0.801912
0.801997
0.801628
0.82055
0.865414
0.801925
0.80185
0.78706
0.843181
0.828539
0.823535
0.818004
0.751248
0.806917
0.803474
0.73574
0.800544
0.719883
0.815338
0.801416
0.683814
0.88126
0.707815
0.773277
0.802544
0.749676
0.809104
0.799764
0.803278
0.668641
0.797575
0.785733
0.799919
0.738761
0.822846
0.826162
0.885444
0.810172
0.832322
0.65407
0.800935
0.790088
0.752107
0.757019
0.774329
0.715868
0.80368
0.800255
0.803759
0.767556
0.637912
0.812258
0.625408
0.824285
0.825035
0.81221
0.739256
0.814835
0.799514
0.82269
0.784654
0.811508
0.797929
0.814692
0.721971
0.802173
0.72864
0.802009
0.799564
0.699897
0.804458
0.820906
0.820901
0.803445
0.765236
0.820516
0.732379
0.69724
0.802768
0.820932
0.8757
0.82093
0.819684
0.881533
0.866726
0.832958
0.716813
0.802607
0.812611
0.822396
0.801595
0.694833
0.7277
0.69229
0.802682
0.701473
0.771784
0.800105
0.642387
0.686554
0.838103
0.777676
0.750696
0.833298
0.763904
0.77008
0.671306
0.737491
0.788785
0.822727
0.870733
0.839853
0.820735
0.797969
0.800373
0.722943
0.820837
0.700538
0.797748
0.820994
0.784317
0.766524
0.804849
0.786449
0.802902
0.801391
0.816494
0.811777
0.868494
0.639821
0.575076
0.802932
0.810086
0.70693
0.811134
0.803261
0.839699
0.804011
0.802671
0.587038
0.602535
0.809038
0.817247
0.820853
0.73676
0.80342
0.813611
0.694572
0.816539
0.803066
0.819817
0.803354
0.803368
0.802553
0.820269
0.803162
0.817576
0.803801
0.863633
0.820625
0.802773
0.721661
0.682343
0.820457
0.604336
0.815874
0.811071
0.838201
0.818278
0.803582
0.811483
0.819309
0.818036
0.820942
0.802002
0.854761
0.858246
0.80329
0.671216
0.812257
0.822916
0.800059
0.803508
0.823166
0.743269
0.803404
0.827829
0.824314
0.820036
0.82044
0.770339
0.746185
0.801882
0.836482
0.803976
0.817553
0.805606
0.804824
0.806146
0.819903
0.80991
0.799691
0.807606
0.807121
0.825359
0.807405
0.806981
0.8219
0.807943
0.803509
0.819038
0.803196
0.803071
0.806498
0.808909
0.819127
0.776346
0.806005
0.803052
0.82111
0.800325
0.8043
0.807609
0.834477
0.805683
0.668965
0.801369
0.819914
0.805279
0.815429
0.766534
0.81986
0.755694
0.804161
0.80253
0.804627
0.819837
0.853014
0.804959
0.803424
0.747699
0.832393
0.82092
0.824092
0.825445
0.818489
0.74405
0.822265
0.732543
0.801877
0.830551
0.802821
0.713712
0.828949
0.818127
0.821167
0.827379
0.820843
0.775882
0.821606
0.671159
0.723271
0.820975
0.826026
0.69505
0.823344
0.666751
0.824986
0.807999
0.821317
0.803386
0.80679
0.818427
0.832648
0.825638
0.664098
0.81894
0.844409
0.783437
0.848472
0.800825
0.719047
0.841055
0.823513
0.838251
0.704398
0.70137
0.835732
0.681436
0.833586
0.820896
0.8317
0.807085
0.830118
0.789257
0.828744
0.827481
0.719855
0.867196
0.826411
0.825519
0.82419
0.763968
0.803247
0.57846
0.807004
0.824757
0.81903
0.805606
0.829179
0.82115
0.798817
0.824098
0.803339
0.699015
0.793687
0.835055
0.820201
0.726349
0.803123
0.822183
0.599113
0.820368
0.820898
0.803561
0.810703
0.735046
0.820991
0.803309
0.80395
0.797019
0.797936
0.798947
0.795588
0.803415
0.81853
0.819994
0.819368
0.588005
0.893726
0.716481
0.798806
0.746946
0.79264
0.821105
0.820905
0.820898
0.618
0.822761
0.817912
0.804677
0.821546
0.837594
0.840303
0.784325
0.799162
0.800296
0.735716
0.758876
0.820856
0.76796
0.815924
0.823193
0.820425
0.814257
0.802328
0.780011
0.812831
0.821111
0.733288
0.811399
0.820995
0.822521
0.808697
0.810283
0.770015
0.820593
0.809024
0.803586
0.808255
0.630676
0.807332
0.805115
0.806737
0.825074
0.846318
0.805509
0.779349
0.80609
0.773384
0.824177
0.809925
0.818842
0.821132
0.85091
0.803902
0.747427
0.820511
0.820867
0.733085
0.802044
0.821206
0.760792
0.818769
0.584708
0.807501
0.692248
0.802371
0.813681
0.817495
0.821877
0.804877
0.819235
0.821959
0.801883
0.805615
0.8453
0.821069
0.79728
0.820385
0.803259
0.802828
0.801001
0.802122
0.810817
0.820469
0.802495
0.775305
0.822702
0.815478
0.809659
0.821126
0.601205
0.804305
0.814417
0.820821
0.791714
0.754344
0.718835
0.818573
0.820961
0.829213
0.793685
0.616291
0.775316
0.658028
0.821531
0.745862
0.818343
0.831321
0.710336
0.800484
0.83657
0.756761
0.801318
0.803529
0.820438
0.805102
0.705133
0.801433
0.576251
0.802717
0.803032
0.802808
0.6539
0.803258
0.803985
0.803738
0.733507
0.742488
0.803963
0.780137
0.820921
0.727734
0.712825
0.820617
0.802101
0.757131
0.855667
0.8198
0.818345
0.677721
0.803465
0.801182
0.801185
0.802824
0.667792
0.803854
0.820788
0.663521
0.692843
0.806714
0.793715
0.820858
0.825483
0.820125
0.820395
0.821186
0.804238
0.820831
0.819997
0.815963
0.830197
0.803535
0.802491
0.811446
0.737388
0.81034
0.819857
0.864132
0.813758
0.648527
0.779717
0.802761
0.778192
0.821445
0.816743
0.832189
0.815191
0.86594
0.803131
0.819735
0.609383
0.81677
0.83599
0.803197
0.820261
0.63685
0.819843
0.803038
0.821406
0.802617
0.821983
0.820909
0.755494
0.804242
0.803327
0.837317
0.863398
0.820544
0.821135
0.725002
0.749594
0.802937
0.803611
0.813193
0.822342
0.800297
0.803408
0.823416
0.810446
0.808329
0.740066
0.803122
0.821598
0.817898
0.771689
0.761431
0.815941
0.797385
0.858708
0.724203
0.836905
0.815331
0.7101
0.800687
0.819596
0.788372
0.801263
0.800538
0.82037
0.781502
0.775437
0.819014
0.6951
0.799447
0.770199
0.820379
0.8219
0.802708
0.791355
0.744509
0.757578
0.777507
0.820342
0.823164
0.809734
0.679861
0.805488
0.799272
0.779171
0.810462
0.818458
0.800537
0.804351
0.655582
0.805178
0.805798
0.853387
0.804299
0.810174
0.835789
0.806474
0.814683
0.85414
0.631908
0.804649
0.821161
0.806157
0.805752
0.80648
0.805249
0.805399
0.804847
0.806591
0.807473
0.731474
0.806505
0.808164
0.810053
0.819743
0.809271
0.82179
0.803349
0.804093
0.819687
0.819687
0.814842
0.803494
0.816889
0.81431
0.813101
0.82084
0.716643
0.819309
0.834163
0.820456
0.856243
0.754002
0.81216
0.820969
0.802107
0.658246
0.803727
0.775935
0.825722
0.636157
0.820847
0.832353
0.820424
0.815242
0.802659
0.828109
0.821851
0.804376
0.768622
0.821668
0.760742
0.568141
0.82046
0.691286
0.704598
0.821025
0.830646
0.830676
0.821392
0.849668
0.625532
0.877761
0.806087
0.829107
0.827602
0.817863
0.693101
0.820738
0.826228
0.821248
0.802315
0.774732
0.822895
0.584862
0.816624
0.845523
0.803716
0.842144
0.825143
0.80341
0.683059
0.844319
0.824235
0.839129
0.801723
0.817471
0.803276
0.836651
0.803356
0.817564
0.834377
0.832375
0.822666
0.827883
0.831746
0.739689
0.678427
0.599227
0.830668
0.829272
0.770555
0.760954
0.810591
0.82797
0.847577
0.611464
0.826811
0.82584
0.825043
0.823737
0.804844
0.821444
0.677521
0.750544
0.824354
0.798477
0.871044
0.890984
0.778824
0.807926
0.676738
0.836374
0.739413
0.730017
0.819833
0.802632
0.785331
0.682967
0.802586
0.820701
0.79038
0.724302
0.80446
0.817884
0.799076
0.696427
0.825715
0.794018
0.820922
0.836084
0.815918
0.799725
0.821155
0.82102
0.787251
0.804789
0.723038
0.841417
0.794298
0.815357
0.783919
0.805203
0.710437
0.801349
0.81428
0.81292
0.811762
0.810273
0.809182
0.808422
0.806797
0.805656
0.807601
0.735738
0.806219
0.801891
0.796948
0.803881
0.845236
0.726298
0.803634
0.777898
0.884818
0.85539
0.798908
0.733105
0.804361
0.79857
0.726807
0.803909
0.80264
0.742415
0.804483
0.794118
0.798374
0.801956
0.74156
0.784221
0.808127
0.754012
0.766607
0.77451
0.802288
0.8199
0.809394
0.764456
0.754251
0.800313
0.819636
0.803765
0.795952
0.801632
0.928533
0.861925
0.821652
0.821013
0.723913
0.84649
0.751914
0.82705
0.818928
0.898738
0.821014
0.798138
0.602922
0.820967
0.798276
0.820923
0.798702
0.847284
0.574449
0.835592
0.802206
0.806601
0.805706
0.80476
0.856868
0.801926
0.821889
0.707226
0.650512
0.673464
0.820891
0.553801
0.798652
0.729617
0.843597
0.815897
0.574039
0.804907
0.82029
0.820134
0.724277
0.802617
0.543578
0.798327
0.820866
0.798469
0.80326
0.798723
0.820876
0.835943
0.803403
0.79947
0.821024
0.799749
0.821096
0.815317
0.800046
0.821187
0.819171
0.821306
0.800206
0.821448
0.686046
0.800417
0.821617
0.803414
0.800624
0.821791
0.708151
0.82086
0.799089
0.82108
0.799593
0.814504
0.839393
0.863033
0.801567
0.801738
0.822491
0.816364
0.80137
0.800986
0.86451
0.815016
0.822244
0.814966
0.851708
0.83178
0.821221
0.826834
0.848539
0.820863
0.8029
0.823479
0.814206
0.803334
0.820605
0.801104
0.810156