# vtk DataFile Version 1.0
unstructured grid
ascii
DATASET UNSTRUCTURED_GRID
points 3920 float
-1 0 0
-1 1 0
2 0 0
2 1 0
0 0 0
1 0 0
-1 1 0.1
-1 0 0.1
0 0 0.1
1 0 0.1
2 0 0.1
2 1 0.1
-0.98 0 0
-0.96 0 0
-0.94 0 0
-0.92 0 0
-0.9 0 0
-0.88 0 0
-0.86 0 0
-0.84 0 0
-0.82 0 0
-0.8 0 0
-0.78 0 0
-0.76 0 0
-0.74 0 0
-0.72 0 0
-0.7 0 0
-0.68 0 0
-0.66 0 0
-0.64 0 0
-0.62 0 0
-0.6 0 0
-0.58 0 0
-0.56 0 0
-0.54 0 0
-0.52 0 0
-0.5 0 0
-0.48 0 0
-0.46 0 0
-0.44 0 0
-0.42 0 0
-0.4 0 0
-0.38 0 0
-0.36 0 0
-0.34 0 0
-0.32 0 0
-0.3 0 0
-0.28 0 0
-0.26 0 0
-0.24 0 0
-0.22 0 0
-0.2 0 0
-0.18 0 0
-0.16 0 0
-0.14 0 0
-0.12 0 0
-0.1 0 0
-0.08 0 0
-0.06 0 0
-0.04 0 0
-0.02 0 0
1.02 0 0
1.04 0 0
1.06 0 0
1.08 0 0
1.1 0 0
1.12 0 0
1.14 0 0
1.16 0 0
1.18 0 0
1.2 0 0
1.22 0 0
1.24 0 0
1.26 0 0
1.28 0 0
1.3 0 0
1.32 0 0
1.34 0 0
1.36 0 0
1.38 0 0
1.4 0 0
1.42 0 0
1.44 0 0
1.46 0 0
1.48 0 0
1.5 0 0
1.52 0 0
1.54 0 0
1.56 0 0
1.58 0 0
1.6 0 0
1.62 0 0
1.64 0 0
1.66 0 0
1.68 0 0
1.7 0 0
1.72 0 0
1.74 0 0
1.76 0 0
1.78 0 0
1.8 0 0
1.82 0 0
1.84 0 0
1.86 0 0
1.88 0 0
1.9 0 0
1.92 0 0
1.94 0 0
1.96 0 0
1.98 0 0
2 0.0199133 0
2 0.0414128 0
2 0.0646247 0
2 0.0896856 0
2 0.116743 0
2 0.145955 0
2 0.177494 0
2 0.211545 0
2 0.248309 0
2 0.288001 0
2 0.330854 0
2 0.377121 0
2 0.427073 0
2 0.481004 0
2 0.539231 0
2 0.602096 0
2 0.669968 0
2 0.743247 0
2 0.822362 0
2 0.907779 0
1.9 1 0
1.8 1 0
1.7 1 0
1.6 1 0
1.5 1 0
1.4 1 0
1.3 1 0
1.2 1 0
1.1 1 0
1 1 0
0.9 1 0
0.8 1 0
0.7 1 0
0.6 1 0
0.5 1 0
0.4 1 0
0.3 1 0
0.2 1 0
0.1 1 0
3.69793e-12 1 0
-0.1 1 0
-0.2 1 0
-0.3 1 0
-0.4 1 0
-0.5 1 0
-0.6 1 0
-0.7 1 0
-0.8 1 0
-0.9 1 0
-1 0.907779 0
-1 0.822362 0
-1 0.743247 0
-1 0.669968 0
-1 0.602096 0
-1 0.539231 0
-1 0.481004 0
-1 0.427073 0
-1 0.377121 0
-1 0.330854 0
-1 0.288001 0
-1 0.248309 0
-1 0.211545 0
-1 0.177494 0
-1 0.145955 0
-1 0.116743 0
-1 0.0896856 0
-1 0.0646247 0
-1 0.0414128 0
-1 0.0199133 0
0.0182781 0.00745351 0
0.0366672 0.0146286 0
0.0551632 0.0215237 0
0.0737617 0.0281372 0
0.0924585 0.0344675 0
0.111249 0.0405131 0
0.13013 0.0462728 0
0.149095 0.0517451 0
0.168142 0.0569289 0
0.187265 0.0618228 0
0.20646 0.0664258 0
0.225723 0.0707368 0
0.245049 0.0747549 0
0.264434 0.078479 0
0.283873 0.0819084 0
0.303362 0.0850422 0
0.322896 0.0878798 0
0.342472 0.0904204 0
0.362083 0.0926635 0
0.381726 0.0946086 0
0.401397 0.0962552 0
0.42109 0.0976029 0
0.440802 0.0986514 0
0.460527 0.0994006 0
0.480261 0.0998501 0
0.5 0.1 0
0.519739 0.0998501 0
0.539473 0.0994006 0
0.559198 0.0986514 0
0.57891 0.0976029 0
0.598603 0.0962552 0
0.618274 0.0946086 0
0.637917 0.0926635 0
0.657528 0.0904204 0
0.677104 0.0878798 0
0.696638 0.0850422 0
0.716127 0.0819084 0
0.735566 0.078479 0
0.754951 0.0747549 0
0.774277 0.0707368 0
0.79354 0.0664258 0
0.812735 0.0618228 0
0.831858 0.0569289 0
0.850905 0.0517451 0
0.86987 0.0462728 0
0.888751 0.0405131 0
0.907542 0.0344675 0
0.926238 0.0281372 0
0.944837 0.0215237 0
0.963333 0.0146286 0
0.981722 0.00745351 0
-1 0.907779 0.1
-1 0.822362 0.1
-1 0.743247 0.1
-1 0.669968 0.1
-1 0.602096 0.1
-1 0.539231 0.1
-1 0.481004 0.1
-1 0.427073 0.1
-1 0.377121 0.1
-1 0.330854 0.1
-1 0.288001 0.1
-1 0.248309 0.1
-1 0.211545 0.1
-1 0.177494 0.1
-1 0.145955 0.1
-1 0.116743 0.1
-1 0.0896856 0.1
-1 0.0646247 0.1
-1 0.0414128 0.1
-1 0.0199133 0.1
-0.98 0 0.1
-0.96 0 0.1
-0.94 0 0.1
-0.92 0 0.1
-0.9 0 0.1
-0.88 0 0.1
-0.86 0 0.1
-0.84 0 0.1
-0.82 0 0.1
-0.8 0 0.1
-0.78 0 0.1
-0.76 0 0.1
-0.74 0 0.1
-0.72 0 0.1
-0.7 0 0.1
-0.68 0 0.1
-0.66 0 0.1
-0.64 0 0.1
-0.62 0 0.1
-0.6 0 0.1
-0.58 0 0.1
-0.56 0 0.1
-0.54 0 0.1
-0.52 0 0.1
-0.5 0 0.1
-0.48 0 0.1
-0.46 0 0.1
-0.44 0 0.1
-0.42 0 0.1
-0.4 0 0.1
-0.38 0 0.1
-0.36 0 0.1
-0.34 0 0.1
-0.32 0 0.1
-0.3 0 0.1
-0.28 0 0.1
-0.26 0 0.1
-0.24 0 0.1
-0.22 0 0.1
-0.2 0 0.1
-0.18 0 0.1
-0.16 0 0.1
-0.14 0 0.1
-0.12 0 0.1
-0.1 0 0.1
-0.08 0 0.1
-0.06 0 0.1
-0.04 0 0.1
-0.02 0 0.1
0.0182781 0.00745351 0.1
0.0366672 0.0146286 0.1
0.0551632 0.0215237 0.1
0.0737617 0.0281372 0.1
0.0924585 0.0344675 0.1
0.111249 0.0405131 0.1
0.13013 0.0462728 0.1
0.149095 0.0517451 0.1
0.168142 0.0569289 0.1
0.187265 0.0618228 0.1
0.20646 0.0664258 0.1
0.225723 0.0707368 0.1
0.245049 0.0747549 0.1
0.264434 0.078479 0.1
0.283873 0.0819084 0.1
0.303362 0.0850422 0.1
0.322896 0.0878798 0.1
0.342472 0.0904204 0.1
0.362083 0.0926635 0.1
0.381726 0.0946086 0.1
0.401397 0.0962552 0.1
0.42109 0.0976029 0.1
0.440802 0.0986514 0.1
0.460527 0.0994006 0.1
0.480261 0.0998501 0.1
0.5 0.1 0.1
0.519739 0.0998501 0.1
0.539473 0.0994006 0.1
0.559198 0.0986514 0.1
0.57891 0.0976029 0.1
0.598603 0.0962552 0.1
0.618274 0.0946086 0.1
0.637917 0.0926635 0.1
0.657528 0.0904204 0.1
0.677104 0.0878798 0.1
0.696638 0.0850422 0.1
0.716127 0.0819084 0.1
0.735566 0.078479 0.1
0.754951 0.0747549 0.1
0.774277 0.0707368 0.1
0.79354 0.0664258 0.1
0.812735 0.0618228 0.1
0.831858 0.0569289 0.1
0.850905 0.0517451 0.1
0.86987 0.0462728 0.1
0.888751 0.0405131 0.1
0.907542 0.0344675 0.1
0.926238 0.0281372 0.1
0.944837 0.0215237 0.1
0.963333 0.0146286 0.1
0.981722 0.00745351 0.1
1.02 0 0.1
1.04 0 0.1
1.06 0 0.1
1.08 0 0.1
1.1 0 0.1
1.12 0 0.1
1.14 0 0.1
1.16 0 0.1
1.18 0 0.1
1.2 0 0.1
1.22 0 0.1
1.24 0 0.1
1.26 0 0.1
1.28 0 0.1
1.3 0 0.1
1.32 0 0.1
1.34 0 0.1
1.36 0 0.1
1.38 0 0.1
1.4 0 0.1
1.42 0 0.1
1.44 0 0.1
1.46 0 0.1
1.48 0 0.1
1.5 0 0.1
1.52 0 0.1
1.54 0 0.1
1.56 0 0.1
1.58 0 0.1
1.6 0 0.1
1.62 0 0.1
1.64 0 0.1
1.66 0 0.1
1.68 0 0.1
1.7 0 0.1
1.72 0 0.1
1.74 0 0.1
1.76 0 0.1
1.78 0 0.1
1.8 0 0.1
1.82 0 0.1
1.84 0 0.1
1.86 0 0.1
1.88 0 0.1
1.9 0 0.1
1.92 0 0.1
1.94 0 0.1
1.96 0 0.1
1.98 0 0.1
2 0.0199133 0.1
2 0.0414128 0.1
2 0.0646247 0.1
2 0.0896856 0.1
2 0.116743 0.1
2 0.145955 0.1
2 0.177494 0.1
2 0.211545 0.1
2 0.248309 0.1
2 0.288001 0.1
2 0.330854 0.1
2 0.377121 0.1
2 0.427073 0.1
2 0.481004 0.1
2 0.539231 0.1
2 0.602096 0.1
2 0.669968 0.1
2 0.743247 0.1
2 0.822362 0.1
2 0.907779 0.1
1.9 1 0.1
1.8 1 0.1
1.7 1 0.1
1.6 1 0.1
1.5 1 0.1
1.4 1 0.1
1.3 1 0.1
1.2 1 0.1
1.1 1 0.1
1 1 0.1
0.9 1 0.1
0.8 1 0.1
0.7 1 0.1
0.6 1 0.1
0.5 1 0.1
0.4 1 0.1
0.3 1 0.1
0.2 1 0.1
0.1 1 0.1
3.69793e-12 1 0.1
-0.1 1 0.1
-0.2 1 0.1
-0.3 1 0.1
-0.4 1 0.1
-0.5 1 0.1
-0.6 1 0.1
-0.7 1 0.1
-0.8 1 0.1
-0.9 1 0.1
1.08758 0.0158154 0
-0.0898513 0.0203294 0
0.0966181 0.0537636 0
0.90205 0.0548881 0
1.21055 0.0202058 0
-0.209811 0.0159577 0
1.3305 0.0176902 0
-0.33 0.0173205 0
1.45324 0.0148141 0
-0.448654 0.0159854 0
1.56842 0.0191785 0
-0.569936 0.0166364 0
0.193292 0.0805369 0
0.805051 0.0813623 0
0.709096 0.100353 0
0.288591 0.0996656 0
0.390184 0.111848 0
0.61033 0.111742 0
0.488809 0.116278 0
1.67175 0.0169692 0
-0.67 0.0169809 0
-0.955017 0.454039 0
1.95131 0.44569 0
1.74981 0.0168753 0
-0.75 0.0173205 0
-0.968032 0.266538 0
1.96871 0.266267 0
0.978232 0.0305687 0
0.0208675 0.026451 0
-0.150454 0.91842 0
1.13854 0.907437 0
1.45012 0.904365 0
-0.445923 0.908903 0
-0.853423 0.0157019 0
1.84881 0.016319 0
0.853689 0.915652 0
0.153944 0.912184 0
0.545151 0.914125 0
0.549913 0.115152 0
1.51 0.0173205 0
-0.506989 0.01651 0
1.27 0.0173205 0
1.14976 0.0173333 0
-0.268171 0.0206442 0
-0.150501 0.0153244 0
-0.391384 0.0153993 0
1.38886 0.0171544 0
-0.973694 0.161724 0
1.97441 0.162392 0
-0.945221 0.633523 0
1.94544 0.63312 0
1.91008 0.0186068 0
-0.91 0.0169616 0
-0.030664 0.0194327 0
1.03074 0.0165456 0
-0.966065 0.353575 0
1.96128 0.359765 0
1.93879 0.781254 0
-0.937057 0.781882 0
-0.980746 0.080709 0
1.9772 0.0760699 0
0.058735 0.0409372 0
0.355202 0.913001 0
0.86356 0.0661005 0
0.134223 0.0651111 0
0.941972 0.0397386 0
-0.653034 0.915003 0
1.65328 0.904589 0
0.770126 0.0881325 0
0.232946 0.0902008 0
0.330582 0.105648 0
0.670612 0.108365 0
0.428707 0.116145 0
1.80993 0.016629 0
-0.810168 0.0172178 0
-0.71 0.0173205 0
1.63047 0.0175504 0
1.70842 0.0169661 0
-0.628824 0.0181787 0
-0.949815 0.0133898 0
1.95 0.0173205 0
1.85542 0.907891 0
-0.85 0.913397 0
1.9833 0.0307692 0
-0.983315 0.0309709 0
-0.750025 0.916468 0
-0.701107 0.836904 0
-0.607741 0.836428 0
-0.656448 0.759827 0
-0.572936 0.758144 0
-0.61411 0.691195 0
-0.539534 0.689068 0
-0.578542 0.626111 0
-0.507461 0.624216 0
-0.544001 0.566638 0
-0.477696 0.564279 0
-0.511582 0.51001 0
-0.451689 0.507147 0
-0.481834 0.457732 0
-0.426137 0.454624 0
-0.453236 0.407539 0
-0.398845 0.406233 0
-0.507958 0.409496 0
-0.368427 0.460177 0
-0.344602 0.405209 0
-0.315696 0.447824 0
-0.294128 0.402169 0
-0.262844 0.444518 0
-0.241968 0.388746 0
-0.209878 0.439557 0
-0.185184 0.391135 0
-0.156687 0.437338 0
-0.133719 0.390776 0
-0.104405 0.434306 0
-0.0818745 0.388334 0
-0.0528785 0.431165 0
-0.0305984 0.385639 0
-0.00180552 0.427863 0
0.0194564 0.382608 0
0.0485809 0.42449 0
0.0701962 0.37973 0
0.0985483 0.421145 0
0.119893 0.377339 0
0.147837 0.417911 0
0.172552 0.36751 0
0.197018 0.412597 0
0.221203 0.37141 0
0.24512 0.409646 0
-0.48178 0.364657 0
-0.531053 0.364782 0
-0.0599102 0.344151 0
-0.324909 0.359566 0
0.266181 0.368462 0
0.292132 0.407649 0
0.311992 0.365779 0
0.338918 0.404821 0
0.357567 0.355909 0
0.384723 0.40053 0
0.404675 0.359681 0
0.430617 0.398558 0
0.450457 0.35827 0
0.474237 0.395182 0
0.496746 0.34898 0
0.520548 0.397931 0
0.542071 0.353121 0
0.566011 0.389914 0
0.585061 0.350856 0
0.609352 0.38696 0
0.629069 0.348168 0
0.655979 0.391217 0
0.67472 0.346182 0
0.699346 0.381414 0
0.719333 0.341965 0
0.743718 0.377547 0
0.764028 0.339036 0
0.788201 0.373582 0
0.807659 0.336101 0
0.832821 0.372249 0
0.852309 0.334017 0
0.877785 0.370339 0
0.897875 0.331141 0
0.922904 0.366281 0
0.943173 0.327335 0
0.968282 0.363358 0
0.989029 0.324222 0
1.01391 0.361511 0
1.03465 0.321428 0
1.05949 0.358447 0
1.08389 0.312052 0
1.10575 0.355104 0
1.12889 0.31562 0
1.15067 0.353235 0
1.17157 0.312819 0
1.19626 0.349369 0
1.21618 0.309863 0
1.2416 0.346914 0
1.26131 0.30715 0
1.28691 0.344312 0
1.30571 0.303752 0
1.33144 0.341222 0
1.35018 0.300911 0
1.3758 0.338308 0
1.39501 0.298931 0
1.42015 0.335235 0
1.43904 0.296349 0
1.46355 0.330194 0
1.48256 0.293347 0
1.50685 0.326967 0
1.52589 0.29055 0
1.54996 0.325305 0
1.56909 0.287929 0
[...]
CELL_DATA 3694
SCALARS rho float
LOOKUP_TABLE default
0.747933
0.692238
0.80468
0.823866
0.834338
0.806123
0.793686
0.801281
0.820408
0.803611
0.827445
0.827436
0.84176
0.791767
0.802016
0.766878
0.803903
0.803878
0.774651
0.855652
0.825981
0.832144
0.725047
0.804339
0.722168
0.84073
0.726153
0.807911
0.838382
0.799514
0.799683
0.72389
0.804343
0.826195
0.803961
0.807846
0.843284
0.83185
0.832818
0.780572
0.805621
0.818761
0.835754
0.826771
0.80696
0.823775
0.802326
0.693223
0.696787
0.742992
0.803059
0.803309
0.852604
0.803615
0.679537
0.844206
0.803783
0.827861
0.833791
0.765443
0.798314
0.826082
0.848781
0.800862
0.849605
0.838751
0.809141
0.824504
0.73948
0.864003
0.80354
0.808833
0.832164
0.803879
0.833222
0.803314
0.815644
0.800612
0.82427
0.803669
0.732139
0.819965
0.802875
0.779229
0.819919
0.800593
0.82725
0.732284
0.738973
0.832509
0.808715
0.803307
0.822081
0.824259
0.691881
0.807668
0.736078
0.827811
0.822978
0.846791
0.82532
0.776838
0.720876
0.820123
0.81937
0.826077
0.827804
0.808172
0.724841
0.824539
0.800871
0.744325
0.723325
0.830899
0.872992
0.803101
0.809384
0.822791
0.803531
0.802986
0.769447
0.823951
0.828839
0.780974
0.706263
0.76558
0.827361
0.789104
0.849431
0.726007
0.771046
0.802436
0.809198
0.782
0.802446
0.804783
0.80649
0.802979
0.798935
0.825231
0.824085
0.730945
0.827044
0.824515
0.76464
0.695568
0.693933
0.799132
0.826538
0.814384
0.757606
0.803318
0.624734
0.788823
0.708471
0.777601
0.727278
0.793789
0.635927
0.795443
0.838572
0.666349
0.785665
0.749728
0.850993
0.621683
0.818648
0.801612
0.804442
0.690987
0.8021
0.686507
0.863578
0.637403
0.801475
0.682841
0.873421
0.841215
0.829682
0.747989
0.824289
0.725198
0.835549
0.741581
0.669397
0.803644
0.672975
0.832391
0.802679
0.857217
0.794284
0.704603
0.825846
0.799398
0.753134
0.854072
0.812773
0.854395
0.749169
0.756572
0.776093
0.803114
0.839772
0.835361
0.818177
0.824919
0.694219
0.805567
0.74561
0.803736
0.731921
0.805901
0.797131
0.803069
0.834496
0.777595
0.838637
0.761021
0.834448
0.828723
0.826511
0.854244
0.830673
0.729564
0.835679
0.679816
0.790795
0.819594
0.857388
0.838159
0.818709
0.796635
0.758353
0.827731
0.843965
0.827584
0.735155
0.80968
0.710796
0.802462
0.796998
0.819946
0.674911
0.808952
0.771441
0.800001
0.803484
0.771501
0.82609
0.86681
0.786523
0.692325
0.806244
0.80312
0.668714
0.803213
0.782309
0.802752
0.845076
0.825818
0.637806
0.826048
0.811852
0.807418
0.826218
0.803275
0.816737
0.822877
0.836732
0.768462
0.802472
0.8426
0.812144
0.803515
0.798094
0.826019
0.731295
0.618831
0.826991
0.830863
0.829895
0.806345
0.713469
0.826215
0.82603
0.825763
0.733872
0.805777
0.826093
0.641466
0.803319
0.873691
0.676397
0.771853
0.845797
0.834384
0.825882
0.707771
0.810807
0.826094
0.804691
0.802776
0.813678
0.842816
0.818995
0.772692
0.808353
0.803603
0.667421
0.830504
0.8364
0.696785
0.801401
0.828741
0.822304
0.700111
0.662815
0.83085
0.832945
0.810791
0.736381
0.725025
0.731383
0.750428
0.829839
0.788941
0.805092
0.750762
0.74503
0.831622
0.820286
0.82084
0.781089
0.826088
0.824714
0.827531
0.826214
0.803415
0.808927
0.805416
0.691116
0.803207
0.814269
0.721299
0.808877
0.806168
0.829214
0.788831
0.807687
0.794388
0.825988
0.830497
0.829823
0.799341
0.714074
0.733843
0.800957
0.812252
0.664957
0.804764
0.809207
0.818604
0.754364
0.805544
0.826472
0.822363
0.827892
0.806052
0.799109
0.777161
0.805987
0.850491
0.821699
0.707846
0.804922
0.728051
0.706739
0.803928
0.638417
0.77587
0.788093
0.809728
0.824578
0.833457
0.827159
0.821166
0.829832
0.836593
0.803305
0.777233
0.811317
0.68545
0.828938
0.769437
0.746733
0.711001
0.824848
0.859355
0.828958
0.810499
0.82371
0.826161
0.789966
0.772125
0.820123
0.70863
0.793327
0.849814
0.827816
0.801925
0.869468
0.814698
0.826115
0.82772
0.832135
0.667668
0.80874
0.749904
0.798993
0.738983
0.827371
0.810052
0.797045
0.675094
0.825832
0.831255
0.822756
0.803764
0.804768
0.833269
0.804716
0.73199
0.792892
0.803465
0.825759
0.824101
0.823012
0.876384
0.836372
0.810634
0.840174
0.70356
0.832557
0.845124
0.826636
0.651141
0.826154
0.810597
0.852288
0.83082
0.803514
0.623036
0.81151
0.722268
0.807269
0.803279
0.813932
0.824688
0.826429
0.806106
0.812781
0.826322
0.744723
0.868404
0.802607
0.856593
0.826574
0.628224
0.804762
0.798788
0.822324
0.8278
0.692771
0.803338
0.810907
0.814396
0.808315
0.795642
0.826327
0.827393
0.806722
0.805608
0.830784
0.843185
0.749794
0.807471
0.811429
0.82356
0.699944
0.806505
0.825635
0.800348
0.805305
0.635039
0.840941
0.777835
0.825794
0.827838
0.838928
0.852407
0.826262
0.822532
0.734392
0.800074
0.857772
0.818956
0.724151
0.801189
0.802983
0.876962
0.852113
0.828926
0.802648
0.811203
0.766878
0.826083
0.815413
0.618215
0.803649
0.750479
0.755199
0.804271
0.822223
0.784124
0.823134
0.826053
0.839537
0.825814
0.801855
0.818685
0.741393
0.751384
0.805091
0.818295
0.82993
0.803434
0.75682
0.715409
0.824651
0.816715
0.81548
0.626652
0.82466
0.825154
0.833705
0.803909
0.818127
0.828988
0.813286
0.846821
0.80363
0.814033
0.832132
0.826323
0.825823
0.829383
0.718318
0.787445
0.804055
0.803945
0.854289
0.802561
0.811594
0.657439
0.819322
0.824108
0.812265
0.828935
0.8069
0.824191
0.740171
0.850609
0.709007
0.801538
0.827575
0.808478
0.695533
0.673437
0.817192
0.806826
0.805587
0.796452
0.802118
0.837552
0.823676
0.806017
0.80323
0.822724
0.643266
0.823186
0.804311
0.724183
0.82541
0.675005
0.79572
0.825957
0.844045
0.816351
0.823521
0.803438
0.80501
0.805394
0.802068
0.82291
0.812633
0.81958
0.803804
0.760136
0.805125
0.823627
0.823056
0.824946
0.822473
0.826469
0.825922
0.840654
0.754278
0.808067
0.826239
0.80367
0.593638
0.713623
0.813027
0.824373
0.826019
0.783523
0.810132
0.814546
0.804466
0.801318
0.803893
0.828058
0.829055
0.825967
0.795982
0.817774
0.816138
0.65129
0.779186
0.766653
0.814458
0.747953
0.709854
0.798746
0.772998
0.836122
0.826053
0.825737
0.809936
0.591178
0.817383
0.61665
0.724039
0.833668
0.874304
0.759831
0.826765
0.859052
0.715609
0.825832
0.810672
0.816394
0.809135
0.677596
0.86072
0.741619
0.750938
0.804739
0.805601
0.80054
0.834601
0.826118
0.711405
0.823681
0.8011
0.720829
0.846914
0.799382
0.649465
0.77823
0.82628
0.818292
0.825791
0.787004
0.745556
0.783411
0.838429
0.704996
0.826564
0.826523
0.835657
0.775904
0.831458
0.717972
0.805633
0.680837
0.716151
0.808994
0.824441
0.799802
0.825747
0.826118
0.826086
0.825154
0.617295
0.803055
0.826105
0.755299
0.811451
0.826116
0.8228
0.717127
0.68901
0.75339
0.661919
0.809164
0.703696
0.826374
0.80253
0.82598
0.838365
0.686411
0.813258
0.828878
0.838997
0.757026
0.792876
0.76756
0.783115
0.822178
0.654782
0.668663
0.826162
0.806459
0.822042
0.805581
0.734884
0.78998
0.741572
0.763325
0.800979
0.840055
0.813771
0.706917
0.832587
0.826092
0.821736
0.716572
0.690075
0.705554
0.877066
0.826467
0.826383
0.639811
0.726272
0.664353
0.804765
0.80126
0.69122
0.813575
0.831492
0.766152
0.801022
0.743791
0.824939
0.708339
0.825865
0.81219
0.811354
0.803583
0.832498
0.756701
0.826441
0.826059
0.784322
0.637859
0.818158
0.821556
0.767109
0.825054
0.75026
0.804335
0.834155
0.695565
0.828209
0.80318
0.811736
0.626879
0.671117
0.749812
0.807582
0.822645
0.821549
0.830527
0.816613
0.826477
0.719301
0.802545
0.823457
0.834903
0.718781
0.747798
0.823204
0.820638
0.717173
0.816131
0.784396
0.701772
0.813309
0.712057
0.814097
0.682659
0.803207
0.732971
0.694827
0.821694
0.789433
0.75826
0.654601
0.846749
0.822606
0.824928
0.780808
0.825359
0.801077
0.79554
0.801101
0.80297
0.824973
0.752204
0.811221
0.801144
0.828734
0.630339
0.802729
0.823078
0.823885
0.822003
0.822433
0.755849
0.812053
0.769608
0.760351
0.828459
0.685312
0.828335
0.827568
0.803575
0.825642
0.82682
0.740316
0.771213
0.831406
0.795599
0.804917
0.826135
0.879455
0.827467
0.808961
0.827198
0.826173
0.795793
0.828499
0.826322
0.778551
0.726129
0.848446
0.799172
0.803668
0.824094
0.790755
0.827946
0.82615
0.828628
0.827238
0.875527
0.803612
0.806301
0.828296
0.803583
0.826081
0.80826
0.749862
0.825962
0.829494
0.756599
0.733104
0.825803
0.844677
0.8238
0.695506
0.83121
0.778707
0.818805
0.803201
0.745413
0.803438
0.799868
0.817031
0.826563
0.708421
0.730593
0.803309
0.790268
0.803146
0.831853
0.724324
0.826039
0.803615
0.801648
0.83041
0.826238
0.736127
0.826224
0.769983
0.80362
0.833962
0.804281
0.784604
0.799965
0.796684
0.825939
0.659764
0.826071
0.692128
0.70832
0.804385
0.829362
0.826064
0.803433
0.825995
0.817254
0.744427
0.790089
0.863015
0.803495
0.840072
0.808967
0.625712
0.764923
0.791989
0.681583
0.755148
0.619757
0.827304
0.824437
0.822801
0.80307
0.770747
0.707001
0.777761
0.755176
0.785865
0.826048
0.846146
0.829226
0.807096
0.820794
0.830727
0.80389
0.809356
0.721893
0.804232
0.767426
0.810018
0.799096
0.766712
0.830403
0.791395
0.804518
0.800958
0.847316
0.736844
0.801914
0.8008
0.806034
0.641077
0.826251
0.826167
0.823561
0.674617
0.826082
0.826011
0.799735
0.8048
0.795582
0.787351
0.808122
0.805098
0.826571
0.756079
0.813871
0.879675
0.770521
0.762752
0.816867
0.786638
0.849662
0.810105
0.791803
0.824842
0.799807
0.79512
0.809455
0.83446
0.843448
0.801098
0.611996
0.829919
0.836525
0.776017
0.838998
0.845161
0.831932
0.834831
0.808732
0.840568
0.835545
0.786871
0.810707
0.82212
0.816526
0.831968
0.80421
0.828618
0.795463
0.804994
0.80751
0.745399
0.808728
0.605489
0.827981
0.834216
0.837106
0.807486
0.819795
0.832996
0.820849
0.830371
0.846195
0.84109
0.798892
0.801228
0.831117
0.825752
0.827238
0.801407
0.807702
0.870754
0.829728
0.854008
0.825599
0.801723
0.825899
0.801878
0.834755
0.823861
0.824927
0.806468
0.743084
0.803725
0.80557
0.825865
0.804368
0.81038
0.823409
0.806522
0.805162
0.782084
0.821096
0.727557
0.815859
0.792357
0.766115
0.804446
0.814719
0.820411
0.737013
0.829136
0.816637
0.827799
0.827104
0.798695
0.826773
0.848486
0.834603
0.823502
0.813148
0.802484
0.759726
0.709608
0.82607
0.822268
0.783245
0.824535
0.809166
0.822311
0.806733
0.799707
0.780274
0.80301
0.801072
0.848086
0.827558
0.812983
0.808142
0.63215
0.745076
0.803413
0.794423
0.805359
0.825912
0.807276
0.82662
0.783821
0.826091
0.806066
0.821359
0.804933
0.827788
0.803501
0.826476
0.821362
0.826195
0.823093
0.737579
0.824452
0.826357
0.627481
0.825899
0.798742
0.804149
0.864469
0.827777
0.821277
0.877152
0.825863
0.825988
0.82717
0.828688
0.825276
0.769828
0.831439
0.802596
0.803977
0.824326
0.825951
0.827092
0.825958
0.823381
0.824398
0.804849
0.822602
0.810446
0.816863
0.821377
0.826008
0.82202
0.828889
0.810369
0.693452
0.687646
0.803411
0.810263
0.804158
0.821647
0.828099
0.826881
0.803642
0.805486
0.801693
0.801764
0.826894
0.850422
0.828489
0.81317
0.828267
0.828176
0.847325
0.827306
0.822643
0.788878
0.825856
0.807998
0.802851
0.794485
0.820683
0.828341
0.825851
0.825684
0.837092
0.815961
0.823646
0.826555
0.822978
0.804321
0.804181
0.806603
0.821635
0.825893
0.802406
0.812929
0.827187
0.823849
0.801941
0.655457
0.805152
0.805374
0.81888
0.800716
0.803594
0.759969
0.848034
0.803984
0.800741
0.842579
0.83807
0.811622
0.834969
0.801483
0.827874
0.826827
0.828592
0.804405
0.82824
0.748698
0.831595
0.812909
0.801196
0.81458
0.830092
0.800863
0.804875
0.793472
0.816508
0.826159
0.826231
0.828388
0.807549
0.827325
0.826317
0.833816
0.823267
0.845169
0.807216
0.710553
0.827794
0.8467
0.829461
0.805829
0.800926
0.804484
0.825607
0.815553
0.826399
0.749992
0.757174
0.801852
0.804076
0.826129
0.826406
0.809271
0.686687
0.722813
0.80924
0.771486
0.826436
0.710419
0.803465
0.74155
0.803539
0.821539
0.803465
0.827464
0.823401
0.799602
0.80992
0.803793
0.831077
0.826235
0.802337
0.804488
0.826064
0.83085
0.763734
0.83084
0.804565
0.78544
0.826145
0.804721
0.812145
0.825682
0.825813
0.842661
0.80314
0.799903
0.826057
0.76978
0.807966
0.825774
0.802143
0.826291
0.842332
0.803326
0.84977
0.817209
0.799212
0.822741
0.802956
0.853017
0.790968
0.803697
0.826533
0.839723
0.809568
0.824498
0.826245
0.803623
0.803312
0.827209
0.791928
0.825019
0.825965
0.687341
0.826119
0.72654
0.81894
0.845233
0.833217
0.805885
0.825448
0.826017
0.74067
0.825708
0.802207
0.802201
0.801854
0.8261
0.869179
0.802145
0.80209
0.788431
0.847912
0.829115
0.829121
0.823635
0.758879
0.812873
0.803539
0.744049
0.800819
0.728921
0.821037
0.801571
0.69536
0.88441
0.716677
0.774729
0.802921
0.759129
0.809588
0.799988
0.80334
0.681329
0.798058
0.787428
0.80015
0.749581
0.82845
0.831664
0.888447
0.810681
0.832837
0.667878
0.801184
0.796091
0.762151
0.762463
0.782461
0.728658
0.803925
0.80049
0.80401
0.771227
0.653971
0.812784
0.643474
0.829678
0.82978
0.812761
0.742705
0.820182
0.806104
0.828249
0.786267
0.817525
0.798367
0.820466
0.730702
0.802397
0.738416
0.802232
0.79979
0.715286
0.804767
0.826026
0.826056
0.803565
0.772272
0.825753
0.734823
0.707616
0.802959
0.826069
0.879117
0.826015
0.825088
0.884617
0.870216
0.837467
0.719507
0.802825
0.813163
0.822961
0.807823
0.71075
0.736064
0.708536
0.802753
0.704308
0.774861
0.800329
0.668228
0.688977
0.842499
0.7847
0.759261
0.838346
0.771681
0.771754
0.673706
0.746942
0.795281
0.8281
0.874133
0.844267
0.826124
0.804058
0.800595
0.733571
0.826117
0.710835
0.798918
0.826086
0.785724
0.773505
0.810687
0.792945
0.803282
0.801606
0.822152
0.8126
0.872026
0.65778
0.621266
0.803131
0.815766
0.71921
0.81165
0.803447
0.844208
0.804227
0.80286
0.616196
0.641084
0.810003
0.822846
0.826085
0.747097
0.803554
0.819222
0.708363
0.822057
0.803242
0.824825
0.803484
0.808892
0.802746
0.825267
0.803317
0.818382
0.804012
0.867386
0.825618
0.802958
0.723835
0.69813
0.825883
0.629872
0.82147
0.811578
0.842843
0.823966
0.803782
0.812063
0.824327
0.823585
0.825929
0.802208
0.855111
0.862237
0.803593
0.689739
0.81821
0.823616
0.800324
0.80363
0.828592
0.754058
0.803511
0.832855
0.829639
0.825677
0.825807
0.776883
0.748363
0.802165
0.841267
0.804334
0.823157
0.805997
0.805198
0.806555
0.824931
0.810398
0.799922
0.808208
0.80755
0.825922
0.807943
0.807465
0.827495
0.808391
0.803591
0.82406
0.803248
0.803236
0.806933
0.809377
0.824175
0.77881
0.806398
0.803148
0.826091
0.800551
0.804526
0.808278
0.839403
0.806028
0.688655
0.801583
0.825522
0.805585
0.816087
0.769875
0.825424
0.760366
0.804362
0.802723
0.804873
0.8204
0.857231
0.805231
0.803519
0.749854
0.837461
0.826002
0.82965
0.826082
0.824201
0.750655
0.827873
0.741611
0.802432
0.835737
0.803007
0.723787
0.834236
0.823772
0.826661
0.832761
0.826168
0.778332
0.827186
0.69104
0.73473
0.826078
0.831484
0.710216
0.828935
0.678873
0.830501
0.808469
0.826854
0.803476
0.807232
0.824109
0.833161
0.826247
0.663596
0.824087
0.849028
0.785259
0.852901
0.801031
0.731941
0.845831
0.829102
0.843163
0.71886
0.714233
0.840767
0.698556
0.838727
0.826049
0.836934
0.807834
0.835431
0.790632
0.834124
0.832921
0.733033
0.87093
0.831898
0.831043
0.82479
0.771695
0.803424
0.624661
0.813162
0.83031
0.824374
0.806451
0.834511
0.826129
0.799054
0.829672
0.803456
0.710314
0.794728
0.835554
0.825375
0.738709
0.80943
0.822778
0.631248
0.825634
0.826286
0.804525
0.811246
0.74637
0.826414
0.803411
0.804126
0.797792
0.804464
0.800093
0.796753
0.803486
0.823564
0.820583
0.824804
0.609994
0.896564
0.723434
0.799416
0.756988
0.794012
0.826097
0.826333
0.826284
0.637447
0.828347
0.818491
0.804964
0.827121
0.838069
0.840764
0.786013
0.799498
0.80077
0.746933
0.767822
0.826116
0.774735
0.816487
0.828789
0.825692
0.814801
0.802417
0.787435
0.813351
0.826608
0.73781
0.811896
0.826461
0.828115
0.809139
0.810752
0.778096
0.82566
0.809475
0.803735
0.808678
0.650557
0.807732
0.805421
0.80711
0.830599
0.846727
0.805838
0.787111
0.80644
0.775512
0.82974
0.816009
0.823896
0.826113
0.851274
0.804094
0.750866
0.821092
0.826121
0.742291
0.802335
0.826715
0.763515
0.823796
0.606429
0.807925
0.702339
0.802678
0.818797
0.823091
0.82745
0.805152
0.824849
0.827583
0.802113
0.806039
0.845717
0.826597
0.798057
0.826053
0.803631
0.803191
0.801218
0.802358
0.816756
0.825617
0.802738
0.783302
0.828305
0.820569
0.810223
0.826116
0.621691
0.805257
0.815043
0.82612
0.798542
0.763304
0.721122
0.823635
0.825959
0.83452
0.800552
0.635444
0.781874
0.678425
0.82708
0.747771
0.823384
0.831849
0.723769
0.800704
0.841486
0.766367
0.80168
0.803658
0.825989
0.81047
0.714866
0.80165
0.619404
0.802983
0.803233
0.803053
0.655676
0.803416
0.804197
0.803955
0.741506
0.750602
0.80417
0.786581
0.826323
0.736526
0.722337
0.825897
0.802527
0.764602
0.859498
0.824904
0.823416
0.690035
0.803781
0.8014
0.801401
0.803004
0.683171
0.80407
0.826106
0.67695
0.703972
0.807684
0.79965
0.826063
0.830266
0.825608
0.825849
0.826754
0.804476
0.826084
0.825507
0.821062
0.830725
0.803844
0.802706
0.811963
0.74801
0.810877
0.825367
0.867732
0.819068
0.66375
0.78745
0.802959
0.780281
0.827007
0.822397
0.836782
0.815741
0.869527
0.803458
0.825214
0.631215
0.817329
0.840516
0.803352
0.825333
0.653718
0.825505
0.803122
0.826966
0.802806
0.827585
0.826426
0.757438
0.804585
0.803451
0.841877
0.867126
0.821115
0.826619
0.72771
0.759772
0.803116
0.803815
0.81373
0.827955
0.800522
0.803604
0.829001
0.816479
0.808778
0.742469
0.803297
0.827237
0.823649
0.774756
0.763328
0.821769
0.79858
0.862651
0.732877
0.84156
0.821175
0.713016
0.801518
0.825074
0.789743
0.801481
0.801682
0.825768
0.788431
0.777056
0.824301
0.698192
0.799679
0.777724
0.825714
0.827476
0.802929
0.797809
0.753635
0.765823
0.783747
0.825561
0.82876
0.815801
0.683149
0.81138
0.805386
0.780914
0.811409
0.823815
0.801323
0.804716
0.677773
0.80556
0.806197
0.857684
0.804534
0.810673
0.84056
0.806893
0.820523
0.858291
0.655491
0.804902
0.826656
0.806622
0.806169
0.806996
0.805568
0.805774
0.805137
0.807172
0.807912
0.741581
0.807158
0.808621
0.815811
0.825377
0.809749
0.827255
0.803486
0.804326
0.825228
0.82528
0.820611
0.803567
0.817707
0.814852
0.8188
0.826403
0.728225
0.824704
0.839069
0.82576
0.860419
0.761175
0.81814
0.826039
0.802439
0.669272
0.803897
0.782234
0.831242
0.649462
0.826256
0.83739
0.825619
0.820923
0.802857
0.828803
0.826951
0.804656
0.775247
0.827259
0.763413
0.599967
0.825455
0.693725
0.717493
0.82175
0.835803
0.835929
0.826964
0.854024
0.654413
0.877882
0.80682
0.834365
0.832957
0.82349
0.707585
0.825865
0.831666
0.826787
0.802655
0.776175
0.823562
0.61294
0.822312
0.850074
0.803949
0.846857
0.830642
0.80347
0.699526
0.844744
0.829781
0.843988
0.801951
0.823177
0.803416
0.841635
0.803549
0.823303
0.839473
0.837569
0.823305
0.833311
0.83227
0.741681
0.696491
0.638257
0.835949
0.834624
0.77357
0.765075
0.816658
0.833385
0.847985
0.638142
0.832279
0.83135
0.830584
0.829321
0.805676
0.822068
0.695923
0.756215
0.82992
0.79871
0.871215
0.893975
0.781045
0.814077
0.68773
0.836867
0.74728
0.74011
0.820445
0.803592
0.786997
0.700276
0.802776
0.825958
0.791643
0.736096
0.810744
0.818483
0.800206
0.709694
0.830382
0.795345
0.826369
0.841044
0.816503
0.80621
0.826668
0.826503
0.788846
0.805087
0.735627
0.841876
0.79525
0.821203
0.785595
0.805521
0.719608
0.801565
0.814846
0.813459
0.812272
0.810767
0.809647
0.808861
0.807187
0.805997
0.808015
0.746159
0.806582
0.802098
0.797673
0.804093
0.845661
0.73869
0.803795
0.779914
0.887826
0.855756
0.799466
0.744742
0.804691
0.799736
0.732781
0.804127
0.802901
0.75304
0.805105
0.800869
0.798607
0.802188
0.745696
0.791442
0.814124
0.763466
0.769156
0.782359
0.802524
0.825355
0.809859
0.773039
0.757512
0.800737
0.824769
0.803931
0.801537
0.801843
0.93044
0.865542
0.827279
0.825997
0.72609
0.850873
0.759131
0.827597
0.823818
0.901437
0.826092
0.798374
0.623555
0.826087
0.798511
0.826085
0.798935
0.851322
0.621215
0.840524
0.802494
0.807001
0.806715
0.805098
0.857172
0.802136
0.827492
0.716097
0.648363
0.683854
0.826093
0.606811
0.798882
0.740477
0.847719
0.816745
0.595918
0.810317
0.825506
0.825263
0.732714
0.802871
0.575761
0.798564
0.826146
0.798708
0.803454
0.798966
0.826228
0.840351
0.803464
0.799728
0.82647
0.800015
0.826567
0.81589
0.80032
0.826683
0.824565
0.826824
0.800498
0.826985
0.696096
0.80072
0.827171
0.803561
0.800938
0.827358
0.721373
0.826034
0.799321
0.826102
0.80065
0.820364
0.83986
0.866958
0.801779
0.80209
0.828083
0.816922
0.801709
0.801312
0.864775
0.820286
0.82783
0.820812
0.855768
0.837023
0.82683
0.827385
0.853043
0.826003
0.803296
0.829068
0.819296
0.803746
0.825825
0.801359
0.81529