# vtk DataFile Version 1.0
unstructured grid
ascii
DATASET UNSTRUCTURED_GRID
points 7812 float
-1 0 0
-1 1 0
2 0 0
2 1 0
0 0 0
1 0 0
-1 1 0.1
-1 0 0.1
0 0 0.1
1 0 0.1
2 0 0.1
2 1 0.1
-0.99 0 0
-0.98 0 0
-0.97 0 0
-0.96 0 0
-0.95 0 0
-0.94 0 0
-0.93 0 0
-0.92 0 0
-0.91 0 0
-0.9 0 0
-0.89 0 0
-0.88 0 0
-0.87 0 0
-0.86 0 0
-0.85 0 0
-0.84 0 0
-0.83 0 0
-0.82 0 0
-0.81 0 0
-0.8 0 0
-0.79 0 0
-0.78 0 0
-0.77 0 0
-0.76 0 0
-0.75 0 0
-0.74 0 0
-0.73 0 0
-0.72 0 0
-0.71 0 0
-0.7 0 0
-0.69 0 0
-0.68 0 0
-0.67 0 0
-0.66 0 0
-0.65 0 0
-0.64 0 0
-0.63 0 0
-0.62 0 0
-0.61 0 0
-0.6 0 0
-0.59 0 0
-0.58 0 0
-0.57 0 0
-0.56 0 0
-0.55 0 0
-0.54 0 0
-0.53 0 0
-0.52 0 0
-0.51 0 0
-0.5 0 0
-0.49 0 0
-0.48 0 0
-0.47 0 0
-0.46 0 0
-0.45 0 0
-0.44 0 0
-0.43 0 0
-0.42 0 0
-0.41 0 0
-0.4 0 0
-0.39 0 0
-0.38 0 0
-0.37 0 0
-0.36 0 0
-0.35 0 0
-0.34 0 0
-0.33 0 0
-0.32 0 0
-0.31 0 0
-0.3 0 0
-0.29 0 0
-0.28 0 0
-0.27 0 0
-0.26 0 0
-0.25 0 0
-0.24 0 0
-0.23 0 0
-0.22 0 0
-0.21 0 0
-0.2 0 0
-0.19 0 0
-0.18 0 0
-0.17 0 0
-0.16 0 0
-0.15 0 0
-0.14 0 0
-0.13 0 0
-0.12 0 0
-0.11 0 0
-0.1 0 0
-0.09 0 0
-0.08 0 0
-0.07 0 0
-0.06 0 0
-0.05 0 0
-0.04 0 0
-0.03 0 0
-0.02 0 0
-0.01 0 0
1.01 0 0
1.02 0 0
1.03 0 0
1.04 0 0
1.05 0 0
1.06 0 0
1.07 0 0
1.08 0 0
1.09 0 0
1.1 0 0
1.11 0 0
1.12 0 0
1.13 0 0
1.14 0 0
1.15 0 0
1.16 0 0
1.17 0 0
1.18 0 0
1.19 0 0
1.2 0 0
1.21 0 0
1.22 0 0
1.23 0 0
1.24 0 0
1.25 0 0
1.26 0 0
1.27 0 0
1.28 0 0
1.29 0 0
1.3 0 0
1.31 0 0
1.32 0 0
1.33 0 0
1.34 0 0
1.35 0 0
1.36 0 0
1.37 0 0
1.38 0 0
1.39 0 0
1.4 0 0
1.41 0 0
1.42 0 0
1.43 0 0
1.44 0 0
1.45 0 0
1.46 0 0
1.47 0 0
1.48 0 0
1.49 0 0
1.5 0 0
1.51 0 0
1.52 0 0
1.53 0 0
1.54 0 0
1.55 0 0
1.56 0 0
1.57 0 0
1.58 0 0
1.59 0 0
1.6 0 0
1.61 0 0
1.62 0 0
1.63 0 0
1.64 0 0
1.65 0 0
1.66 0 0
1.67 0 0
1.68 0 0
1.69 0 0
1.7 0 0
1.71 0 0
1.72 0 0
1.73 0 0
1.74 0 0
1.75 0 0
1.76 0 0
1.77 0 0
1.78 0 0
1.79 0 0
1.8 0 0
1.81 0 0
1.82 0 0
1.83 0 0
1.84 0 0
1.85 0 0
1.86 0 0
1.87 0 0
1.88 0 0
1.89 0 0
1.9 0 0
1.91 0 0
1.92 0 0
1.93 0 0
1.94 0 0
1.95 0 0
1.96 0 0
1.97 0 0
1.98 0 0
1.99 0 0
2 0.010289 0
2 0.0215307 0
2 0.0338135 0
2 0.0472336 0
2 0.0618965 0
2 0.0779171 0
2 0.0954213 0
2 0.114546 0
2 0.135442 0
2 0.158274 0
2 0.183219 0
2 0.210474 0
2 0.240253 0
2 0.27279 0
2 0.308339 0
2 0.347181 0
2 0.389619 0
2 0.435987 0
2 0.486649 0
2 0.542002 0
2 0.602481 0
2 0.66856 0
2 0.740758 0
2 0.819642 0
2 0.90583 0
1.9 1 0
1.8 1 0
1.7 1 0
1.6 1 0
1.5 1 0
1.4 1 0
1.3 1 0
1.2 1 0
1.1 1 0
1 1 0
0.9 1 0
0.8 1 0
0.7 1 0
0.6 1 0
0.5 1 0
0.4 1 0
0.3 1 0
0.2 1 0
0.1 1 0
3.69793e-12 1 0
-0.1 1 0
-0.2 1 0
-0.3 1 0
-0.4 1 0
-0.5 1 0
-0.6 1 0
-0.7 1 0
-0.8 1 0
-0.9 1 0
-1 0.90583 0
-1 0.819642 0
-1 0.740758 0
-1 0.66856 0
-1 0.602481 0
-1 0.542002 0
-1 0.486649 0
-1 0.435987 0
-1 0.389619 0
-1 0.347181 0
-1 0.308339 0
-1 0.27279 0
-1 0.240253 0
-1 0.210474 0
-1 0.183219 0
-1 0.158274 0
-1 0.135442 0
-1 0.114546 0
-1 0.0954213 0
-1 0.0779171 0
-1 0.0618965 0
-1 0.0472336 0
-1 0.0338135 0
-1 0.0215307 0
-1 0.010289 0
0.00921362 0.00379763 0
0.0184561 0.00752451 0
0.0277268 0.0111804 0
0.0370253 0.0147652 0
0.0463511 0.0182786 0
0.0557034 0.0217203 0
0.0650819 0.0250903 0
0.074486 0.0283883 0
0.083915 0.0316141 0
0.0933685 0.0347675 0
0.102846 0.0378484 0
0.112347 0.0408565 0
0.12187 0.0437917 0
0.131416 0.0466538 0
0.140983 0.0494427 0
0.150572 0.0521581 0
0.160181 0.0547999 0
0.16981 0.0573681 0
0.179458 0.0598623 0
0.189125 0.0622825 0
0.198811 0.0646285 0
0.208514 0.0669001 0
0.218234 0.0690974 0
0.227971 0.07122 0
0.237724 0.073268 0
0.247493 0.0752411 0
0.257276 0.0771393 0
0.267073 0.0789625 0
0.276884 0.0807105 0
0.286708 0.0823832 0
0.296545 0.0839806 0
0.306394 0.0855025 0
0.316254 0.0869488 0
0.326125 0.0883196 0
0.336006 0.0896146 0
0.345896 0.0908339 0
0.355796 0.0919773 0
0.365704 0.0930447 0
0.375621 0.0940362 0
0.385544 0.0949517 0
0.395474 0.095791 0
0.40541 0.0965542 0
0.415352 0.0972412 0
0.425299 0.097852 0
0.43525 0.0983865 0
0.445205 0.0988447 0
0.455164 0.0992266 0
0.465125 0.0995321 0
0.475088 0.0997613 0
0.485052 0.0999141 0
0.495017 0.0999904 0
0.504983 0.0999904 0
0.514948 0.0999141 0
0.524912 0.0997613 0
0.534875 0.0995321 0
0.544836 0.0992266 0
0.554795 0.0988447 0
0.56475 0.0983865 0
0.574701 0.097852 0
0.584648 0.0972412 0
0.59459 0.0965542 0
0.604526 0.095791 0
0.614456 0.0949517 0
0.624379 0.0940362 0
0.634296 0.0930447 0
0.644204 0.0919773 0
0.654104 0.0908339 0
0.663994 0.0896146 0
0.673875 0.0883196 0
0.683746 0.0869488 0
0.693606 0.0855025 0
0.703455 0.0839806 0
0.713292 0.0823832 0
0.723116 0.0807105 0
0.732927 0.0789625 0
0.742724 0.0771393 0
0.752508 0.0752411 0
0.762276 0.073268 0
0.772029 0.07122 0
0.781766 0.0690974 0
0.791486 0.0669001 0
0.801189 0.0646285 0
0.810875 0.0622825 0
0.820542 0.0598623 0
0.83019 0.0573681 0
0.839819 0.0547999 0
0.849428 0.0521581 0
0.859017 0.0494427 0
0.868584 0.0466538 0
0.87813 0.0437917 0
0.887653 0.0408565 0
0.897154 0.0378484 0
0.906631 0.0347675 0
0.916085 0.0316141 0
0.925514 0.0283883 0
0.934918 0.0250903 0
0.944297 0.0217203 0
0.953649 0.0182786 0
0.962975 0.0147652 0
0.972273 0.0111804 0
0.981544 0.00752451 0
0.990786 0.00379763 0
-1 0.90583 0.1
-1 0.819642 0.1
-1 0.740758 0.1
-1 0.66856 0.1
-1 0.602481 0.1
-1 0.542002 0.1
-1 0.486649 0.1
-1 0.435987 0.1
-1 0.389619 0.1
-1 0.347181 0.1
-1 0.308339 0.1
-1 0.27279 0.1
-1 0.240253 0.1
-1 0.210474 0.1
-1 0.183219 0.1
-1 0.158274 0.1
-1 0.135442 0.1
-1 0.114546 0.1
-1 0.0954213 0.1
-1 0.0779171 0.1
-1 0.0618965 0.1
-1 0.0472336 0.1
-1 0.0338135 0.1
-1 0.0215307 0.1
-1 0.010289 0.1
-0.99 0 0.1
-0.98 0 0.1
-0.97 0 0.1
-0.96 0 0.1
-0.95 0 0.1
-0.94 0 0.1
-0.93 0 0.1
-0.92 0 0.1
-0.91 0 0.1
-0.9 0 0.1
-0.89 0 0.1
-0.88 0 0.1
-0.87 0 0.1
-0.86 0 0.1
-0.85 0 0.1
-0.84 0 0.1
-0.83 0 0.1
-0.82 0 0.1
-0.81 0 0.1
-0.8 0 0.1
-0.79 0 0.1
-0.78 0 0.1
-0.77 0 0.1
-0.76 0 0.1
-0.75 0 0.1
-0.74 0 0.1
-0.73 0 0.1
-0.72 0 0.1
-0.71 0 0.1
-0.7 0 0.1
-0.69 0 0.1
-0.68 0 0.1
-0.67 0 0.1
-0.66 0 0.1
-0.65 0 0.1
-0.64 0 0.1
-0.63 0 0.1
-0.62 0 0.1
-0.61 0 0.1
-0.6 0 0.1
-0.59 0 0.1
-0.58 0 0.1
-0.57 0 0.1
-0.56 0 0.1
-0.55 0 0.1
-0.54 0 0.1
-0.53 0 0.1
-0.52 0 0.1
-0.51 0 0.1
-0.5 0 0.1
-0.49 0 0.1
-0.48 0 0.1
-0.47 0 0.1
-0.46 0 0.1
-0.45 0 0.1
-0.44 0 0.1
-0.43 0 0.1
-0.42 0 0.1
-0.41 0 0.1
-0.4 0 0.1
-0.39 0 0.1
-0.38 0 0.1
-0.37 0 0.1
-0.36 0 0.1
-0.35 0 0.1
-0.34 0 0.1
-0.33 0 0.1
-0.32 0 0.1
-0.31 0 0.1
-0.3 0 0.1
-0.29 0 0.1
-0.28 0 0.1
-0.27 0 0.1
-0.26 0 0.1
-0.25 0 0.1
-0.24 0 0.1
-0.23 0 0.1
-0.22 0 0.1
-0.21 0 0.1
-0.2 0 0.1
-0.19 0 0.1
-0.18 0 0.1
-0.17 0 0.1
-0.16 0 0.1
-0.15 0 0.1
-0.14 0 0.1
-0.13 0 0.1
-0.12 0 0.1
-0.11 0 0.1
-0.1 0 0.1
-0.09 0 0.1
-0.08 0 0.1
-0.07 0 0.1
-0.06 0 0.1
-0.05 0 0.1
-0.04 0 0.1
-0.03 0 0.1
-0.02 0 0.1
-0.01 0 0.1
0.00921362 0.00379763 0.1
0.0184561 0.00752451 0.1
0.0277268 0.0111804 0.1
0.0370253 0.0147652 0.1
0.0463511 0.0182786 0.1
0.0557034 0.0217203 0.1
0.0650819 0.0250903 0.1
0.074486 0.0283883 0.1
0.083915 0.0316141 0.1
0.0933685 0.0347675 0.1
0.102846 0.0378484 0.1
0.112347 0.0408565 0.1
0.12187 0.0437917 0.1
0.131416 0.0466538 0.1
0.140983 0.0494427 0.1
0.150572 0.0521581 0.1
0.160181 0.0547999 0.1
0.16981 0.0573681 0.1
0.179458 0.0598623 0.1
0.189125 0.0622825 0.1
0.198811 0.0646285 0.1
0.208514 0.0669001 0.1
0.218234 0.0690974 0.1
0.227971 0.07122 0.1
0.237724 0.073268 0.1
0.247493 0.0752411 0.1
0.257276 0.0771393 0.1
0.267073 0.0789625 0.1
0.276884 0.0807105 0.1
0.286708 0.0823832 0.1
0.296545 0.0839806 0.1
0.306394 0.0855025 0.1
0.316254 0.0869488 0.1
0.326125 0.0883196 0.1
0.336006 0.0896146 0.1
0.345896 0.0908339 0.1
0.355796 0.0919773 0.1
0.365704 0.0930447 0.1
0.375621 0.0940362 0.1
0.385544 0.0949517 0.1
0.395474 0.095791 0.1
0.40541 0.0965542 0.1
0.415352 0.0972412 0.1
0.425299 0.097852 0.1
0.43525 0.0983865 0.1
0.445205 0.0988447 0.1
0.455164 0.0992266 0.1
0.465125 0.0995321 0.1
0.475088 0.0997613 0.1
0.485052 0.0999141 0.1
0.495017 0.0999904 0.1
0.504983 0.0999904 0.1
0.514948 0.0999141 0.1
0.524912 0.0997613 0.1
0.534875 0.0995321 0.1
0.544836 0.0992266 0.1
0.554795 0.0988447 0.1
0.56475 0.0983865 0.1
0.574701 0.097852 0.1
0.584648 0.0972412 0.1
0.59459 0.0965542 0.1
0.604526 0.095791 0.1
0.614456 0.0949517 0.1
0.624379 0.0940362 0.1
0.634296 0.0930447 0.1
0.644204 0.0919773 0.1
0.654104 0.0908339 0.1
0.663994 0.0896146 0.1
0.673875 0.0883196 0.1
0.683746 0.0869488 0.1
0.693606 0.0855025 0.1
0.703455 0.0839806 0.1
0.713292 0.0823832 0.1
0.723116 0.0807105 0.1
0.732927 0.0789625 0.1
0.742724 0.0771393 0.1
0.752508 0.0752411 0.1
0.762276 0.073268 0.1
0.772029 0.07122 0.1
0.781766 0.0690974 0.1
0.791486 0.0669001 0.1
0.801189 0.0646285 0.1
0.810875 0.0622825 0.1
0.820542 0.0598623 0.1
0.83019 0.0573681 0.1
0.839819 0.0547999 0.1
0.849428 0.0521581 0.1
0.859017 0.0494427 0.1
0.868584 0.0466538 0.1
0.87813 0.0437917 0.1
0.887653 0.0408565 0.1
0.897154 0.0378484 0.1
0.906631 0.0347675 0.1
0.916085 0.0316141 0.1
0.925514 0.0283883 0.1
0.934918 0.0250903 0.1
0.944297 0.0217203 0.1
0.953649 0.0182786 0.1
0.962975 0.0147652 0.1
0.972273 0.0111804 0.1
0.981544 0.00752451 0.1
0.990786 0.00379763 0.1
1.01 0 0.1
1.02 0 0.1
1.03 0 0.1
1.04 0 0.1
1.05 0 0.1
1.06 0 0.1
1.07 0 0.1
1.08 0 0.1
1.09 0 0.1
1.1 0 0.1
1.11 0 0.1
1.12 0 0.1
1.13 0 0.1
1.14 0 0.1
1.15 0 0.1
1.16 0 0.1
1.17 0 0.1
1.18 0 0.1
1.19 0 0.1
1.2 0 0.1
1.21 0 0.1
1.22 0 0.1
1.23 0 0.1
1.24 0 0.1
1.25 0 0.1
1.26 0 0.1
1.27 0 0.1
1.28 0 0.1
1.29 0 0.1
1.3 0 0.1
1.31 0 0.1
1.32 0 0.1
1.33 0 0.1
1.34 0 0.1
1.35 0 0.1
1.36 0 0.1
1.37 0 0.1
1.38 0 0.1
1.39 0 0.1
1.4 0 0.1
1.41 0 0.1
1.42 0 0.1
1.43 0 0.1
1.44 0 0.1
1.45 0 0.1
1.46 0 0.1
1.47 0 0.1
1.48 0 0.1
1.49 0 0.1
1.5 0 0.1
1.51 0 0.1
1.52 0 0.1
1.53 0 0.1
1.54 0 0.1
1.55 0 0.1
1.56 0 0.1
1.57 0 0.1
1.58 0 0.1
1.59 0 0.1
1.6 0 0.1
1.61 0 0.1
1.62 0 0.1
1.63 0 0.1
1.64 0 0.1
1.65 0 0.1
1.66 0 0.1
1.67 0 0.1
1.68 0 0.1
1.69 0 0.1
1.7 0 0.1
1.71 0 0.1
1.72 0 0.1
1.73 0 0.1
1.74 0 0.1
1.75 0 0.1
1.76 0 0.1
1.77 0 0.1
1.78 0 0.1
1.79 0 0.1
1.8 0 0.1
1.81 0 0.1
1.82 0 0.1
1.83 0 0.1
1.84 0 0.1
1.85 0 0.1
1.86 0 0.1
1.87 0 0.1
1.88 0 0.1
[...]
CELL_DATA 7425
SCALARS rho float
LOOKUP_TABLE default
0.586992
0.805024
0.819478
0.827457
0.799353
0.819078
0.820854
0.814039
0.81288
0.738559
0.863458
0.810006
0.8138
0.827313
0.80365
0.817069
0.79869
0.813165
0.803458
0.767205
0.831214
0.822022
0.724706
0.827985
0.803864
0.702841
0.831147
0.84817
0.80015
0.807899
0.819311
0.725553
0.803604
0.651949
0.518938
0.827951
0.803497
0.814016
0.811116
0.827949
0.715832
0.702944
0.78992
0.702458
0.586262
0.748154
0.799238
0.813734
0.660952
0.719329
0.746299
0.80514
0.812334
0.799013
0.709941
0.61979
0.822843
0.800045
0.738429
0.700813
0.709243
0.807643
0.813134
0.799321
0.798759
0.817528
0.584191
0.773216
0.704907
0.807814
0.804126
0.803197
0.883378
0.821095
0.810817
0.812939
0.805036
0.800426
0.813141
0.757719
0.815892
0.807223
0.810191
0.788616
0.835859
0.801032
0.574277
0.829901
0.542256
0.848435
0.70717
0.729664
0.845135
0.803167
0.817317
0.758102
0.835987
0.787986
0.82556
0.802409
0.808013
0.738664
0.803277
0.828181
0.597083
0.811044
0.824308
0.70733
0.814906
0.7991
0.816627
0.784498
0.789738
0.812414
0.789651
0.786282
0.831196
0.803099
0.700312
0.629106
0.805035
0.777202
0.812843
0.790374
0.858897
0.83875
0.807679
0.804213
0.661079
0.503747
0.814384
0.654903
0.51483
0.867566
0.661249
0.799447
0.81108
0.723453
0.581835
0.724646
0.723112
0.80955
0.809543
0.707442
0.803095
0.77957
0.565306
0.788428
0.782532
0.827703
0.816705
0.704158
0.802841
0.744296
0.705351
0.803265
0.810407
0.830348
0.797498
0.651787
0.802484
0.703736
0.801038
0.82968
0.820383
0.802364
0.812963
0.784751
0.806259
0.800583
0.819632
0.804408
0.791096
0.799063
0.799829
0.739978
0.80363
0.758608
0.593829
0.707132
0.799615
0.792635
0.87977
0.831788
0.61136
0.822855
0.798569
0.827244
0.79981
0.813308
0.812504
0.803183
0.806925
0.704735
0.814921
0.819181
0.770047
0.797072
0.860996
0.807747
0.811785
0.811065
0.612735
0.838801
0.572852
0.531486
0.595339
0.600142
0.828079
0.879303
0.807512
0.798637
0.841338
0.812866
0.8166
0.820692
0.815114
0.637908
0.548361
0.81363
0.54529
0.592292
0.703585
0.811612
0.813973
0.81294
0.833077
0.812805
0.86408
0.710153
0.835167
0.712406
0.805151
0.803911
0.801939
0.713808
0.720269
0.619406
0.705817
0.86358
0.875249
0.806152
0.80768
0.79879
0.811477
0.715621
0.821534
0.80012
0.825627
0.794598
0.809751
0.721442
0.812707
0.823666
0.739628
0.528289
0.799803
0.736447
0.843245
0.814253
0.726661
0.815491
0.814751
0.84991
0.809417
0.803794
0.803245
0.825584
0.86072
0.805365
0.619167
0.84884
0.811912
0.805588
0.827476
0.837288
0.812892
0.821361
0.793473
0.814983
0.866479
0.849905
0.827265
0.836681
0.802647
0.817078
0.803186
0.759667
0.70107
0.580731
0.70114
0.802269
0.81279
0.8159
0.854592
0.779615
0.645651
0.827014
0.520516
0.774217
0.800912
0.64631
0.494752
0.639007
0.815109
0.813137
0.812865
0.81263
0.826648
0.774395
0.81146
0.802655
0.812802
0.840657
0.866977
0.833498
0.802705
0.706555
0.795828
0.834237
0.691482
0.798678
0.80203
0.864748
0.817018
0.592917
0.813296
0.740351
0.852187
0.731879
0.810013
0.907639
0.799799
0.795569
0.658852
0.63547
0.711896
0.780498
0.826473
0.814845
0.813597
0.882272
0.858047
0.799468
0.799105
0.826002
0.739101
0.802501
0.879356
0.801372
0.804624
0.800633
0.802558
0.81287
0.815634
0.816288
0.636032
0.829915
0.645262
0.808411
0.639148
0.802548
0.802222
0.84021
0.728526
0.816325
0.808488
0.816898
0.799441
0.802486
0.811216
0.696487
0.824442
0.812959
0.812832
0.80067
0.736794
0.559797
0.806399
0.810923
0.803181
0.812791
0.794666
0.50258
0.84594
0.813219
0.803838
0.785662
0.813164
0.804621
0.802978
0.816153
0.807496
0.822437
0.768542
0.8126
0.807753
0.562519
0.803049
0.640017
0.838714
0.63613
0.814611
0.877869
0.592885
0.818038
0.748869
0.8044
0.873313
0.533439
0.82305
0.822186
0.803487
0.825669
0.811016
0.823386
0.830574
0.824767
0.739563
0.827454
0.761661
0.810157
0.794215
0.793564
0.758513
0.805583
0.80208
0.814388
0.752106
0.80466
0.604302
0.614096
0.688812
0.812714
0.844147
0.864799
0.829819
0.798513
0.81254
0.80484
0.818451
0.680409
0.80093
0.742864
0.824004
0.814714
0.805316
0.712011
0.727136
0.533461
0.605498
0.801232
0.611276
0.792511
0.765328
0.769983
0.727157
0.762382
0.767449
0.809343
0.814843
0.819474
0.811367
0.710319
0.601862
0.838978
0.806851
0.783109
0.809756
0.80253
0.8365
0.717952
0.855241
0.76366
0.728152
0.764426
0.811425
0.544798
0.798761
0.841563
0.813239
0.813692
0.809624
0.799097
0.780212
0.835653
0.8031
0.842921
0.721018
0.70759
0.800294
0.795089
0.821948
0.708597
0.847913
0.800353
0.815969
0.798665
0.779134
0.808187
0.594493
0.677337
0.632319
0.812842
0.803761
0.826289
0.749183
0.810581
0.81471
0.820319
0.79891
0.729175
0.796801
0.814218
0.803191
0.702945
0.813498
0.818835
0.839972
0.810681
0.825269
0.86226
0.857236
0.743825
0.603292
0.837988
0.805754
0.843341
0.814137
0.822859
0.813428
0.81371
0.632895
0.805113
0.809236
0.812722
0.791845
0.810538
0.8047
0.860404
0.798596
0.812635
0.814626
0.871889
0.597512
0.813366
0.842332
0.883294
0.530271
0.816322
0.829887
0.796122
0.81473
0.794893
0.867564
0.812141
0.831289
0.812636
0.619244
0.80238
0.804136
0.690645
0.853105
0.759773
0.801787
0.813888
0.812618
0.859592
0.795332
0.833563
0.834664
0.784215
0.82513
0.842265
0.799678
0.810421
0.806889
0.805303
0.81477
0.802624
0.845178
0.769209
0.809765
0.803146
0.81516
0.72304
0.812796
0.818277
0.752537
0.813494
0.816291
0.827491
0.825052
0.800662
0.800615
0.850464
0.767943
0.825059
0.84416
0.804546
0.505378
0.812803
0.828217
0.852352
0.812564
0.803145
0.808507
0.855011
0.780071
0.802575
0.801184
0.812839
0.726965
0.802678
0.829956
0.807945
0.794951
0.79344
0.84315
0.806595
0.845281
0.802015
0.824184
0.812676
0.804208
0.841814
0.812772
0.679292
0.818705
0.807087
0.812748
0.90613
0.800769
0.815828
0.800449
0.800357
0.816125
0.800463
0.803349
0.783727
0.747319
0.806426
0.8128
0.757954
0.791333
0.822957
0.813003
0.82219
0.80628
0.825709
0.875279
0.83059
0.574504
0.708732
0.840704
0.817213
0.844113
0.814681
0.850063
0.807271
0.81235
0.799294
0.83836
0.860895
0.85275
0.731431
0.814002
0.822113
0.744003
0.81703
0.775893
0.800186
0.732987
0.815987
0.830808
0.823443
0.86173
0.814132
0.813209
0.810104
0.814563
0.835747
0.812185
0.798606
0.810219
0.737458
0.811256
0.774184
0.832789
0.812696
0.638705
0.777605
0.811082
0.799127
0.819757
0.802417
0.814595
0.817225
0.804416
0.819329
0.804155
0.805784
0.59703
0.846999
0.825069
0.826642
0.814853
0.803214
0.701766
0.806418
0.907821
0.813507
0.80097
0.812799
0.782249
0.807189
0.813203
0.82122
0.814621
0.813138
0.816162
0.702288
0.777784
0.764509
0.812571
0.80528
0.800967
0.621222
0.805649
0.802579
0.708098
0.837132
0.817125
0.802155
0.807395
0.799356
0.817178
0.813881
0.8132
0.812783
0.709612
0.831646
0.800265
0.807343
0.842741
0.817553
0.816219
0.800128
0.753633
0.823776
0.787351
0.821369
0.789388
0.80557
0.820886
0.7375
0.817339
0.650228
0.871998
0.704249
0.844962
0.800736
0.875133
0.79365
0.801648
0.820604
0.836163
0.838374
0.825414
0.81976
0.814636
0.801068
0.804167
0.808216
0.725573
0.827202
0.800073
0.719724
0.830485
0.706751
0.799943
0.860291
0.805568
0.701204
0.797824
0.814005
0.705144
0.785653
0.819317
0.831812
0.806888
0.572406
0.728476
0.812368
0.801266
0.812833
0.800621
0.737155
0.813934
0.815641
0.8124
0.775308
0.803258
0.80448
0.80351
0.560292
0.81262
0.83407
0.57958
0.815088
0.816028
0.814618
0.81829
0.814342
0.824477
0.799021
0.795106
0.771035
0.822861
0.829631
0.825071
0.834802
0.76529
0.808922
0.724248
0.772349
0.808741
0.821007
0.813199
0.800963
0.85818
0.812837
0.800268
0.809512
0.816022
0.815111
0.836579
0.814414
0.812718
0.811967
0.813736
0.800081
0.82093
0.803755
0.822766
0.813382
0.575314
0.81343
0.834411
0.857966
0.838143
0.490407
0.816735
0.804475
0.496269
0.669197
0.642874
0.834251
0.807925
0.811637
0.812713
0.803201
0.816676
0.810922
0.534353
0.6863
0.818207
0.806614
0.815539
0.8035
0.810218
0.810822
0.820174
0.799472
0.692062
0.855818
0.803147
0.814699
0.813542
0.75772
0.485338
0.83284
0.813503
0.742022
0.802698
0.806142
0.590634
0.827476
0.814707
0.827662
0.818712
0.825911
0.80472
0.719234
0.643456
0.56191
0.825256
0.80845
0.782976
0.812882
0.77973
0.817819
0.873289
0.762311
0.821544
0.813447
0.825778
0.88354
0.814363
0.811751
0.803251
0.813851
0.691588
0.82815
0.799834
0.810098
0.802191
0.784223
0.854123
0.821977
0.840446
0.821458
0.757603
0.755854
0.803248
0.818034
0.803059
0.805233
0.802572
0.775581
0.814607
0.761507
0.821076
0.661964
0.813893
0.802947
0.735793
0.823211
0.817916
0.739925
0.80115
0.757149
0.880522
0.800714
0.812747
0.762616
0.800024
0.814192
0.80394
0.589714
0.82089
0.798609
0.80128
0.814446
0.825555
0.757055
0.805461
0.841537
0.826864
0.814063
0.835786
0.70125
0.700063
0.812833
0.744096
0.822153
0.771314
0.81274
0.802505
0.810347
0.751894
0.794178
0.764259
0.809813
0.803139
0.63109
0.778968
0.799225
0.848913
0.814288
0.828593
0.526201
0.825311
0.785093
0.8587
0.800931
0.817942
0.800222
0.785728
0.798688
0.825655
0.835725
0.821715
0.817048
0.707094
0.773767
0.815293
0.805369
0.809888
0.803898
0.707103
0.792775
0.803428
0.810585
0.827107
0.851177
0.831796
0.81338
0.79937
0.80418
0.801983
0.779596
0.611476
0.800259
0.731176
0.661794
0.822744
0.798789
0.777272
0.799921
0.754099
0.785269
0.811363
0.822118
0.803284
0.815934
0.817295
0.820616
0.813303
0.808422
0.712074
0.699305
0.640797
0.829221
0.869538
0.815318
0.841298
0.847796
0.863709
0.73553
0.816523
0.862981
0.81013
0.812777
0.816136
0.732691
0.812348
0.806586
0.806125
0.516968
0.812874
0.761116
0.81307
0.813766
0.803533
0.705703
0.813111
0.610476
0.824979
0.802227
0.822196
0.855125
0.80342
0.79535
0.820865
0.811495
0.805672
0.762193
0.509476
0.820829
0.803071
0.828849
0.8257
0.802029
0.80701
0.834419
0.72072
0.50003
0.88624
0.800523
0.815611
0.80431
0.710591
0.798569
0.799944
0.814984
0.735929
0.646392
0.883227
0.714059
0.836497
0.811899
0.832833
0.842616
0.792105
0.804733
0.813511
0.852746
0.738246
0.870677
0.813932
0.56263
0.802391
0.748955
0.852872
0.76021
0.804206
0.803943
0.799573
0.801563
0.808794
0.812812
0.85545
0.805919
0.802861
0.801302
0.799947
0.812145
0.816797
0.80261
0.812389
0.849163
0.803093
0.783391
0.802226
0.839501
0.724833
0.813542
0.813742
0.635908
0.713007
0.805526
0.82296
0.803483
0.511387
0.856217
0.81313
0.832911
0.805293
0.803306
0.801315
0.786177
0.587036
0.804277
0.816023
0.835951
0.820495
0.812855
0.79809
0.746829
0.801551
0.765686
0.787505
0.79927
0.790938
0.75106
0.800785
0.811383
0.810284
0.832154
0.848967
0.553013
0.841854
0.812747
0.820827
0.801948
0.822635
0.81098
0.894595
0.800183
0.866981
0.80567
0.759684
0.862092
0.802266
0.800232
0.824097
0.660284
0.645168
0.803386
0.803842
0.705475
0.654189
0.799889
0.823786
0.812937
0.82252
0.732833
0.81713
0.812749
0.826069
0.816881
0.811925
0.812767
0.754514
0.803828
0.8156
0.811234
0.67612
0.566252
0.812804
0.64989
0.721848
0.554905
0.841348
0.800061
0.52659
0.600616
0.827469
0.908053
0.818072
0.652197
0.814075
0.786372
0.801662
0.786325
0.820571
0.810033
0.788252
0.820987
0.800936
0.587477
0.81775
0.7666
0.815852
0.701129
0.822153
0.789575
0.813865
0.799981
0.662758
0.843474
0.806497
0.806541
0.493161
0.816755
0.800325
0.852057
0.711433
0.81701
0.583459
0.718699
0.801348
0.796605
0.732574
0.715415
0.716129
0.506591
0.58871
0.799918
0.517131
0.822531
0.519691
0.757124
0.671048
0.598598
0.540242
0.74536
0.803076
0.715377
0.821227
0.800895
0.802893
0.761127
0.889657
0.798978
0.824416
0.803416
0.812692
0.705869
0.807501
0.73662
0.821841
0.886015
0.833522
0.747634
0.822722
0.770424
0.879878
0.804184
0.758599
0.850641
0.776795
0.799915
0.805216
0.758165
0.744477
0.664794
0.804972
0.803016
0.817836
0.833435
0.611356
0.807837
0.537807
0.668482
0.615932
0.818434
0.820972
0.808912
0.803964
0.615547
0.872432
0.802671
0.80294
0.863481
0.812327
0.771967
0.812064
0.802357
0.817827
0.803141
0.716955
0.803316
0.65501
0.798942
0.804028
0.801525
0.639049
0.811469
0.810251
0.725609
0.817723
0.548881
0.576513
0.804132
0.696384
0.725864
0.571919
0.723484
0.813534
0.707846
0.772927
0.716785
0.812753
0.670086
0.762041
0.806412
0.810525
0.654324
0.80193
0.895136
0.796674
0.816718
0.584838
0.693699
0.800862
0.812848
0.813924
0.85162
0.812553
0.804237
0.803713
0.803328
0.71369
0.717617
0.615468
0.771393
0.532345
0.724024
0.809834
0.814326
0.806058
0.799197
0.53474
0.808981
0.803746
0.553722
0.542999
0.746522
0.803562
0.806108
0.549113
0.798171
0.569388
0.720275
0.607613
0.813483
0.802202
0.596869
0.608139
0.867863
0.809995
0.765343
0.717724
0.621371
0.655211
0.710022
0.815935
0.759709
0.765506
0.623867
0.75379
0.809227
0.815284
0.812357
0.81539
0.865475
0.754601
0.818858
0.803316
0.85124
0.81276
0.802765
0.812986
0.722699
0.812872
0.811914
0.815106
0.811073
0.815815
0.803263
0.81785
0.810306
0.809656
0.81719
0.800101
0.816517
0.818877
0.667357
0.818533
0.868382
0.818092
0.792903
0.645789
0.858541
0.818713
0.82482
0.799476
0.811113
0.757507
0.852502
0.558634
0.726462
0.809844
0.815584
0.803862
0.803352
0.831988
0.804951
0.805157
0.815179
0.780655
0.838498
0.841896
0.815142
0.664199
0.611756
0.815684
0.816542
0.788225
0.849583
0.847214
0.810767
0.81355
0.777688
0.814002
0.817756
0.814026
0.8187
0.813015
0.815741
0.850998
0.815887
0.814422
0.817475
0.817689
0.784857
0.814039
0.803982
0.804051
0.804552
0.818492
0.811385
0.788282
0.753994
0.812577
0.806262
0.808691
0.806361
0.857734
0.803289
0.81391
0.812596
0.805135
0.555726
0.803873
0.812639
0.814935
0.810293
0.812682
0.813205
0.812925
0.810159
0.864359
0.50114
0.812712
0.84161
0.81255
0.802943
0.808382
0.814912
0.839624
0.80038
0.801138
0.812555
0.70654
0.812729
0.808156
0.807275
0.812455
0.812782
0.812926
0.813262
0.511415
0.811839
0.715556
0.885818
0.820985
0.73348
0.670714
0.815275
0.803437
0.818648
0.646365
0.801624
0.813233
0.647855
0.799784
0.804074
0.815347
0.806218
0.856696
0.809832
0.606771
0.800776
0.775175
0.811193
0.889049
0.803221
0.815492
0.819261
0.832157
0.813299
0.822324
0.836284
0.634834
0.80256
0.655655
0.81365
0.81355
0.712647
0.813435
0.804743
0.713207
0.814848
0.701015
0.861033
0.784026
0.814203
0.812786
0.813329
0.667723
0.813556
0.633172
0.800144
0.792338
0.82222
0.81509
0.715875
0.766687
0.829983
0.812653
0.821245
0.821827
0.813337
0.825259
0.799436
0.551882
0.754917
0.759119
0.731513
0.837547
0.822265
0.834289
0.775939
0.80275
0.812922
0.812843
0.812846
0.774584
0.563617
0.803194
0.52814
0.808135
0.824186
0.799635
0.803747
0.812873
0.805994
0.782546
0.732128
0.813286
0.859105
0.81363
0.799226
0.736958
0.809519
0.788687
0.833669
0.503404
0.795956
0.805819
0.798806
0.688685
0.812736
0.810677
0.856943
0.568886
0.807314
0.80326
0.812722
0.612203
0.812982
0.803325
0.803392
0.803017
0.813094
0.813193
0.816017
0.812932
0.718026
0.804485
0.803192
0.812879
0.896141
0.813039
0.773911
0.841072
0.799165
0.803126
0.601175
0.812772
0.803348
0.825568
0.801944
0.866184
0.814753
0.853299
0.800272
0.820551
0.777833
0.558071
0.752598
0.794166
0.80385
0.813916
0.813703
0.555285
0.861745
0.85779
0.768379
0.757639
0.738493
0.811978
0.848315
0.812811
0.813651
0.812846
0.804259
0.726771
0.803488
0.799041
0.764227
0.824182
0.822914
0.861803
0.815555
0.812857
0.523559
0.808869
0.812816
0.800652
0.773901
0.818044
0.803104
0.812774
0.826806
0.798425
0.803534
0.801175
0.815093
0.839052
0.802304
0.799101
0.801419
0.766098
0.819775
0.566871
0.868341
0.803673
0.545516
0.8031
0.803062
0.819483
0.590947
0.605985
0.801496
0.803563
0.800785
0.86069
0.779867
0.814542
0.802924
0.865594
0.804698
0.804436
0.826253
0.815858
0.820007
0.821185
0.820233
0.867441
0.729176
0.8521
0.817101
0.653544
0.802489
0.803171
0.803623
0.821028
0.823417
0.803919
0.801026
0.799988
0.822585
0.803148
0.803589
0.799596
0.824294
0.803958
0.801963
0.806059
0.827781
0.800468
0.801466
0.824176
0.799524
0.815274
0.651139
0.826299
0.849787
0.804824
0.819474
0.803213
0.828661
0.837419
0.803386
0.821381
0.800483
0.806904
0.789526
0.802128
0.803107
0.806338
0.805853
0.804447
0.818444
0.814635
0.811209
0.831324
0.802111
0.8022
0.799839
0.788982
0.833708
0.803127
0.819202
0.815097
0.807065
0.804977
0.802941
0.838834
0.864606
0.799505
0.678834
0.80114
0.842077
0.816485
0.805051
0.804448
0.819644
0.844528
0.600935
0.828663
0.794415
0.850247
0.818627
0.811962
0.813228
0.808159
0.80394
0.812732
0.808722
0.591684
0.847916
0.794551
0.814063
0.854527
0.819175
0.763109
0.808588
0.814335
0.815355
0.802943
0.661565
0.809122
0.863099
0.802509
0.800658
0.775327
0.871175
0.800387
0.877029
0.806618
0.817056
0.820512
0.802147
0.803767
0.812477
0.815769
0.803396
0.813201
0.816628
0.881312
0.820649
0.809273
0.800064
0.82833
0.810455
0.838749
0.808753
0.806921
0.812035
0.816436
0.829835
0.813537
0.82244
0.832442
0.814079
0.699469
0.690412
0.812915
0.817635
0.803733
0.812997
0.513605
0.85482
0.799702
0.806206
0.813817
0.813359
0.803939
0.812352
0.800413
0.801156
0.80796
0.814648
0.756783
0.784573
0.822842
0.842567
0.834734
0.800192
0.804988
0.803343
0.812881
0.805651
0.799456
0.799729
0.800962
0.810833
0.797778
0.802676
0.835411
0.831224
0.729661
0.660262
0.807547
0.698312
0.799423
0.571615
0.804386
0.806885
0.803038
0.818054
0.833672
0.813799
0.812725
0.810237
0.803823
0.881481
0.816152
0.804722
0.772197
0.585384
0.810213
0.806546
0.769296
0.814293
0.813748
0.791434
0.800676
0.80401
0.623686
0.830373
0.803488
0.7814
0.779252
0.852652
0.809965
0.80281
0.802527
0.810122
0.811027
0.518292
0.801739
0.839413
0.813798
0.798539
0.588498
0.814464
0.813944
0.812811
0.833645
0.813791
0.803899
0.821789
0.805503
0.5756
0.808597
0.736391
0.798477
0.813505
0.722101
0.814804
0.845876
0.831553
0.664365
0.89087
0.785542
0.777323
0.796842
0.77949
0.808557
0.849844
0.807902
0.802837
0.813418
0.808741
0.782563
0.785881
0.813756
0.808237
0.834781
0.821171
0.835614
0.801195
0.799597
0.812909
0.856552
0.816362
0.818268
0.813213
0.607191
0.795489
0.823795
0.829273
0.865845
0.812464
0.818852
0.508319
0.80962
0.800531
0.812479
0.814638
0.847518
0.812915
0.81106
0.88146
0.764456
0.812505
0.813103
0.808903
0.805186
0.8141
0.655786
0.800472
0.849461
0.833448
0.810508
0.813447
0.813233
0.80954
0.698701
0.812381
0.800095
0.838488
0.818363
0.811505
0.831242
0.792626
0.811434
0.817701
0.808713
0.819177
0.744122
0.854617
0.818852
0.813681
0.812918
0.812565
0.815599
0.817042
0.81261
0.810669
0.840999
0.818481
0.800087
0.82522
0.826857
0.815939
0.81441
0.8003
0.801467
0.812907
0.818912
0.82934
0.812656
0.81634
0.799757
0.809841
0.812693
0.812661
0.802482
0.814537
0.813193
0.803212
0.812716
0.835572
0.799998
0.809311
0.821423
0.559724
0.814084
0.81805
0.815407
0.814889
0.82186
0.828735
0.8155
0.818722
0.701333
0.812918
0.801286
0.815493
0.818896
0.834997
0.821456
0.815462
0.829275
0.824838
0.810536
0.819148
0.819424
0.804112
0.813017
0.81548
0.819387
0.832021
0.81249
0.815574
0.802702
0.812789
0.812911
0.522169
0.627404
0.814313
0.82133
0.801674
0.822366
0.815783
0.841789
0.708019
0.813611
0.730325
0.817302
0.810192
0.813022
0.829263
0.813521
0.804787
0.812775
0.829999
0.83918
0.812658
0.7191
0.819205
0.815909
0.799861
0.803019
0.815184
0.855864
0.812506
0.813234
0.849629
0.828919
0.843201
0.573048
0.829014
0.813811
0.810774
0.817281
0.850385
0.817646
0.718307
0.799477
0.831686
0.799702
0.799668
0.805351
0.747753
0.813259
0.814217
0.725296
0.814229
0.827265
0.81318
0.813903
0.799155
0.81826
0.81284
0.823439
0.808674
0.808095
0.814852
0.70528
0.818959
0.813951
0.812825
0.639693
0.71885
0.599212
0.823199
0.529094
0.853691
0.727239
0.842721
0.812388
0.722516
0.821332
0.815761
0.742472
0.807618
0.818236
0.794386
0.816403
0.815738
0.815668
0.812841
0.807762
0.803647
0.737212
0.836025
0.820057
0.816488
0.799166
0.815362
0.801926
0.815882
0.813324
0.854488
0.817654
0.496575
0.813182
0.818672
0.818544
0.778009
0.815674
0.8067
0.818507
0.845235
0.596247
0.809026
0.799236
0.815193
0.8175
0.817571
0.81231
0.818481
0.813734
0.814457
0.803058
0.814154
0.846033
0.813805
0.791978
0.811358
0.622379
0.71876
0.81292
0.816872
0.802902
0.822191
0.735426
0.803143
0.803179
0.82009
0.616989
0.817474
0.799284
0.815287
0.864524
0.785449
0.821836
0.817856
0.822671
0.813885
0.769539
0.802406
0.813429
0.902272
0.827092
0.816302
0.832138
0.809468
0.868056
0.719432
0.685057
0.852224
0.802691
0.657674
0.850189
0.786008
0.831921
0.726291