# vtk DataFile Version 1.0
unstructured grid
ascii
DATASET UNSTRUCTURED_GRID
points 3920 float
-1 0 0
-1 1 0
2 0 0
2 1 0
0 0 0
1 0 0
-1 1 0.1
-1 0 0.1
0 0 0.1
1 0 0.1
2 0 0.1
2 1 0.1
-0.98 0 0
-0.96 0 0
-0.94 0 0
-0.92 0 0
-0.9 0 0
-0.88 0 0
-0.86 0 0
-0.84 0 0
-0.82 0 0
-0.8 0 0
-0.78 0 0
-0.76 0 0
-0.74 0 0
-0.72 0 0
-0.7 0 0
-0.68 0 0
-0.66 0 0
-0.64 0 0
-0.62 0 0
-0.6 0 0
-0.58 0 0
-0.56 0 0
-0.54 0 0
-0.52 0 0
-0.5 0 0
-0.48 0 0
-0.46 0 0
-0.44 0 0
-0.42 0 0
-0.4 0 0
-0.38 0 0
-0.36 0 0
-0.34 0 0
-0.32 0 0
-0.3 0 0
-0.28 0 0
-0.26 0 0
-0.24 0 0
-0.22 0 0
-0.2 0 0
-0.18 0 0
-0.16 0 0
-0.14 0 0
-0.12 0 0
-0.1 0 0
-0.08 0 0
-0.06 0 0
-0.04 0 0
-0.02 0 0
1.02 0 0
1.04 0 0
1.06 0 0
1.08 0 0
1.1 0 0
1.12 0 0
1.14 0 0
1.16 0 0
1.18 0 0
1.2 0 0
1.22 0 0
1.24 0 0
1.26 0 0
1.28 0 0
1.3 0 0
1.32 0 0
1.34 0 0
1.36 0 0
1.38 0 0
1.4 0 0
1.42 0 0
1.44 0 0
1.46 0 0
1.48 0 0
1.5 0 0
1.52 0 0
1.54 0 0
1.56 0 0
1.58 0 0
1.6 0 0
1.62 0 0
1.64 0 0
1.66 0 0
1.68 0 0
1.7 0 0
1.72 0 0
1.74 0 0
1.76 0 0
1.78 0 0
1.8 0 0
1.82 0 0
1.84 0 0
1.86 0 0
1.88 0 0
1.9 0 0
1.92 0 0
1.94 0 0
1.96 0 0
1.98 0 0
2 0.0199133 0
2 0.0414128 0
2 0.0646247 0
2 0.0896856 0
2 0.116743 0
2 0.145955 0
2 0.177494 0
2 0.211545 0
2 0.248309 0
2 0.288001 0
2 0.330854 0
2 0.377121 0
2 0.427073 0
2 0.481004 0
2 0.539231 0
2 0.602096 0
2 0.669968 0
2 0.743247 0
2 0.822362 0
2 0.907779 0
1.9 1 0
1.8 1 0
1.7 1 0
1.6 1 0
1.5 1 0
1.4 1 0
1.3 1 0
1.2 1 0
1.1 1 0
1 1 0
0.9 1 0
0.8 1 0
0.7 1 0
0.6 1 0
0.5 1 0
0.4 1 0
0.3 1 0
0.2 1 0
0.1 1 0
3.69793e-12 1 0
-0.1 1 0
-0.2 1 0
-0.3 1 0
-0.4 1 0
-0.5 1 0
-0.6 1 0
-0.7 1 0
-0.8 1 0
-0.9 1 0
-1 0.907779 0
-1 0.822362 0
-1 0.743247 0
-1 0.669968 0
-1 0.602096 0
-1 0.539231 0
-1 0.481004 0
-1 0.427073 0
-1 0.377121 0
-1 0.330854 0
-1 0.288001 0
-1 0.248309 0
-1 0.211545 0
-1 0.177494 0
-1 0.145955 0
-1 0.116743 0
-1 0.0896856 0
-1 0.0646247 0
-1 0.0414128 0
-1 0.0199133 0
0.0182781 0.00745351 0
0.0366672 0.0146286 0
0.0551632 0.0215237 0
0.0737617 0.0281372 0
0.0924585 0.0344675 0
0.111249 0.0405131 0
0.13013 0.0462728 0
0.149095 0.0517451 0
0.168142 0.0569289 0
0.187265 0.0618228 0
0.20646 0.0664258 0
0.225723 0.0707368 0
0.245049 0.0747549 0
0.264434 0.078479 0
0.283873 0.0819084 0
0.303362 0.0850422 0
0.322896 0.0878798 0
0.342472 0.0904204 0
0.362083 0.0926635 0
0.381726 0.0946086 0
0.401397 0.0962552 0
0.42109 0.0976029 0
0.440802 0.0986514 0
0.460527 0.0994006 0
0.480261 0.0998501 0
0.5 0.1 0
0.519739 0.0998501 0
0.539473 0.0994006 0
0.559198 0.0986514 0
0.57891 0.0976029 0
0.598603 0.0962552 0
0.618274 0.0946086 0
0.637917 0.0926635 0
0.657528 0.0904204 0
0.677104 0.0878798 0
0.696638 0.0850422 0
0.716127 0.0819084 0
0.735566 0.078479 0
0.754951 0.0747549 0
0.774277 0.0707368 0
0.79354 0.0664258 0
0.812735 0.0618228 0
0.831858 0.0569289 0
0.850905 0.0517451 0
0.86987 0.0462728 0
0.888751 0.0405131 0
0.907542 0.0344675 0
0.926238 0.0281372 0
0.944837 0.0215237 0
0.963333 0.0146286 0
0.981722 0.00745351 0
-1 0.907779 0.1
-1 0.822362 0.1
-1 0.743247 0.1
-1 0.669968 0.1
-1 0.602096 0.1
-1 0.539231 0.1
-1 0.481004 0.1
-1 0.427073 0.1
-1 0.377121 0.1
-1 0.330854 0.1
-1 0.288001 0.1
-1 0.248309 0.1
-1 0.211545 0.1
-1 0.177494 0.1
-1 0.145955 0.1
-1 0.116743 0.1
-1 0.0896856 0.1
-1 0.0646247 0.1
-1 0.0414128 0.1
-1 0.0199133 0.1
-0.98 0 0.1
-0.96 0 0.1
-0.94 0 0.1
-0.92 0 0.1
-0.9 0 0.1
-0.88 0 0.1
-0.86 0 0.1
-0.84 0 0.1
-0.82 0 0.1
-0.8 0 0.1
-0.78 0 0.1
-0.76 0 0.1
-0.74 0 0.1
-0.72 0 0.1
-0.7 0 0.1
-0.68 0 0.1
-0.66 0 0.1
-0.64 0 0.1
-0.62 0 0.1
-0.6 0 0.1
-0.58 0 0.1
-0.56 0 0.1
-0.54 0 0.1
-0.52 0 0.1
-0.5 0 0.1
-0.48 0 0.1
-0.46 0 0.1
-0.44 0 0.1
-0.42 0 0.1
-0.4 0 0.1
-0.38 0 0.1
-0.36 0 0.1
-0.34 0 0.1
-0.32 0 0.1
-0.3 0 0.1
-0.28 0 0.1
-0.26 0 0.1
-0.24 0 0.1
-0.22 0 0.1
-0.2 0 0.1
-0.18 0 0.1
-0.16 0 0.1
-0.14 0 0.1
-0.12 0 0.1
-0.1 0 0.1
-0.08 0 0.1
-0.06 0 0.1
-0.04 0 0.1
-0.02 0 0.1
0.0182781 0.00745351 0.1
0.0366672 0.0146286 0.1
0.0551632 0.0215237 0.1
0.0737617 0.0281372 0.1
0.0924585 0.0344675 0.1
0.111249 0.0405131 0.1
0.13013 0.0462728 0.1
0.149095 0.0517451 0.1
0.168142 0.0569289 0.1
0.187265 0.0618228 0.1
0.20646 0.0664258 0.1
0.225723 0.0707368 0.1
0.245049 0.0747549 0.1
0.264434 0.078479 0.1
0.283873 0.0819084 0.1
0.303362 0.0850422 0.1
0.322896 0.0878798 0.1
0.342472 0.0904204 0.1
0.362083 0.0926635 0.1
0.381726 0.0946086 0.1
0.401397 0.0962552 0.1
0.42109 0.0976029 0.1
0.440802 0.0986514 0.1
0.460527 0.0994006 0.1
0.480261 0.0998501 0.1
0.5 0.1 0.1
0.519739 0.0998501 0.1
0.539473 0.0994006 0.1
0.559198 0.0986514 0.1
0.57891 0.0976029 0.1
0.598603 0.0962552 0.1
0.618274 0.0946086 0.1
0.637917 0.0926635 0.1
0.657528 0.0904204 0.1
0.677104 0.0878798 0.1
0.696638 0.0850422 0.1
0.716127 0.0819084 0.1
0.735566 0.078479 0.1
0.754951 0.0747549 0.1
0.774277 0.0707368 0.1
0.79354 0.0664258 0.1
0.812735 0.0618228 0.1
0.831858 0.0569289 0.1
0.850905 0.0517451 0.1
0.86987 0.0462728 0.1
0.888751 0.0405131 0.1
0.907542 0.0344675 0.1
0.926238 0.0281372 0.1
0.944837 0.0215237 0.1
0.963333 0.0146286 0.1
0.981722 0.00745351 0.1
1.02 0 0.1
1.04 0 0.1
1.06 0 0.1
1.08 0 0.1
1.1 0 0.1
1.12 0 0.1
1.14 0 0.1
1.16 0 0.1
1.18 0 0.1
1.2 0 0.1
1.22 0 0.1
1.24 0 0.1
1.26 0 0.1
1.28 0 0.1
1.3 0 0.1
1.32 0 0.1
1.34 0 0.1
1.36 0 0.1
1.38 0 0.1
1.4 0 0.1
1.42 0 0.1
1.44 0 0.1
1.46 0 0.1
1.48 0 0.1
1.5 0 0.1
1.52 0 0.1
1.54 0 0.1
1.56 0 0.1
1.58 0 0.1
1.6 0 0.1
1.62 0 0.1
1.64 0 0.1
1.66 0 0.1
1.68 0 0.1
1.7 0 0.1
1.72 0 0.1
1.74 0 0.1
1.76 0 0.1
1.78 0 0.1
1.8 0 0.1
1.82 0 0.1
1.84 0 0.1
1.86 0 0.1
1.88 0 0.1
1.9 0 0.1
1.92 0 0.1
1.94 0 0.1
1.96 0 0.1
1.98 0 0.1
2 0.0199133 0.1
2 0.0414128 0.1
2 0.0646247 0.1
2 0.0896856 0.1
2 0.116743 0.1
2 0.145955 0.1
2 0.177494 0.1
2 0.211545 0.1
2 0.248309 0.1
2 0.288001 0.1
2 0.330854 0.1
2 0.377121 0.1
2 0.427073 0.1
2 0.481004 0.1
2 0.539231 0.1
2 0.602096 0.1
2 0.669968 0.1
2 0.743247 0.1
2 0.822362 0.1
2 0.907779 0.1
1.9 1 0.1
1.8 1 0.1
1.7 1 0.1
1.6 1 0.1
1.5 1 0.1
1.4 1 0.1
1.3 1 0.1
1.2 1 0.1
1.1 1 0.1
1 1 0.1
0.9 1 0.1
0.8 1 0.1
0.7 1 0.1
0.6 1 0.1
0.5 1 0.1
0.4 1 0.1
0.3 1 0.1
0.2 1 0.1
0.1 1 0.1
3.69793e-12 1 0.1
-0.1 1 0.1
-0.2 1 0.1
-0.3 1 0.1
-0.4 1 0.1
-0.5 1 0.1
-0.6 1 0.1
-0.7 1 0.1
-0.8 1 0.1
-0.9 1 0.1
1.08758 0.0158154 0
-0.0898513 0.0203294 0
0.0966181 0.0537636 0
0.90205 0.0548881 0
1.21055 0.0202058 0
-0.209811 0.0159577 0
1.3305 0.0176902 0
-0.33 0.0173205 0
1.45324 0.0148141 0
-0.448654 0.0159854 0
1.56842 0.0191785 0
-0.569936 0.0166364 0
0.193292 0.0805369 0
0.805051 0.0813623 0
0.709096 0.100353 0
0.288591 0.0996656 0
0.390184 0.111848 0
0.61033 0.111742 0
0.488809 0.116278 0
1.67175 0.0169692 0
-0.67 0.0169809 0
-0.955017 0.454039 0
1.95131 0.44569 0
1.74981 0.0168753 0
-0.75 0.0173205 0
-0.968032 0.266538 0
1.96871 0.266267 0
0.978232 0.0305687 0
0.0208675 0.026451 0
-0.150454 0.91842 0
1.13854 0.907437 0
1.45012 0.904365 0
-0.445923 0.908903 0
-0.853423 0.0157019 0
1.84881 0.016319 0
0.853689 0.915652 0
0.153944 0.912184 0
0.545151 0.914125 0
0.549913 0.115152 0
1.51 0.0173205 0
-0.506989 0.01651 0
1.27 0.0173205 0
1.14976 0.0173333 0
-0.268171 0.0206442 0
-0.150501 0.0153244 0
-0.391384 0.0153993 0
1.38886 0.0171544 0
-0.973694 0.161724 0
1.97441 0.162392 0
-0.945221 0.633523 0
1.94544 0.63312 0
1.91008 0.0186068 0
-0.91 0.0169616 0
-0.030664 0.0194327 0
1.03074 0.0165456 0
-0.966065 0.353575 0
1.96128 0.359765 0
1.93879 0.781254 0
-0.937057 0.781882 0
-0.980746 0.080709 0
1.9772 0.0760699 0
0.058735 0.0409372 0
0.355202 0.913001 0
0.86356 0.0661005 0
0.134223 0.0651111 0
0.941972 0.0397386 0
-0.653034 0.915003 0
1.65328 0.904589 0
0.770126 0.0881325 0
0.232946 0.0902008 0
0.330582 0.105648 0
0.670612 0.108365 0
0.428707 0.116145 0
1.80993 0.016629 0
-0.810168 0.0172178 0
-0.71 0.0173205 0
1.63047 0.0175504 0
1.70842 0.0169661 0
-0.628824 0.0181787 0
-0.949815 0.0133898 0
1.95 0.0173205 0
1.85542 0.907891 0
-0.85 0.913397 0
1.9833 0.0307692 0
-0.983315 0.0309709 0
-0.750025 0.916468 0
-0.701107 0.836904 0
-0.607741 0.836428 0
-0.656448 0.759827 0
-0.572936 0.758144 0
-0.61411 0.691195 0
-0.539534 0.689068 0
-0.578542 0.626111 0
-0.507461 0.624216 0
-0.544001 0.566638 0
-0.477696 0.564279 0
-0.511582 0.51001 0
-0.451689 0.507147 0
-0.481834 0.457732 0
-0.426137 0.454624 0
-0.453236 0.407539 0
-0.398845 0.406233 0
-0.507958 0.409496 0
-0.368427 0.460177 0
-0.344602 0.405209 0
-0.315696 0.447824 0
-0.294128 0.402169 0
-0.262844 0.444518 0
-0.241968 0.388746 0
-0.209878 0.439557 0
-0.185184 0.391135 0
-0.156687 0.437338 0
-0.133719 0.390776 0
-0.104405 0.434306 0
-0.0818745 0.388334 0
-0.0528785 0.431165 0
-0.0305984 0.385639 0
-0.00180552 0.427863 0
0.0194564 0.382608 0
0.0485809 0.42449 0
0.0701962 0.37973 0
0.0985483 0.421145 0
0.119893 0.377339 0
0.147837 0.417911 0
0.172552 0.36751 0
0.197018 0.412597 0
0.221203 0.37141 0
0.24512 0.409646 0
-0.48178 0.364657 0
-0.531053 0.364782 0
-0.0599102 0.344151 0
-0.324909 0.359566 0
0.266181 0.368462 0
0.292132 0.407649 0
0.311992 0.365779 0
0.338918 0.404821 0
0.357567 0.355909 0
0.384723 0.40053 0
0.404675 0.359681 0
0.430617 0.398558 0
0.450457 0.35827 0
0.474237 0.395182 0
0.496746 0.34898 0
0.520548 0.397931 0
0.542071 0.353121 0
0.566011 0.389914 0
0.585061 0.350856 0
0.609352 0.38696 0
0.629069 0.348168 0
0.655979 0.391217 0
0.67472 0.346182 0
0.699346 0.381414 0
0.719333 0.341965 0
0.743718 0.377547 0
0.764028 0.339036 0
0.788201 0.373582 0
0.807659 0.336101 0
0.832821 0.372249 0
0.852309 0.334017 0
0.877785 0.370339 0
0.897875 0.331141 0
0.922904 0.366281 0
0.943173 0.327335 0
0.968282 0.363358 0
0.989029 0.324222 0
1.01391 0.361511 0
1.03465 0.321428 0
1.05949 0.358447 0
1.08389 0.312052 0
1.10575 0.355104 0
1.12889 0.31562 0
1.15067 0.353235 0
1.17157 0.312819 0
1.19626 0.349369 0
1.21618 0.309863 0
1.2416 0.346914 0
1.26131 0.30715 0
1.28691 0.344312 0
1.30571 0.303752 0
1.33144 0.341222 0
1.35018 0.300911 0
1.3758 0.338308 0
1.39501 0.298931 0
1.42015 0.335235 0
1.43904 0.296349 0
1.46355 0.330194 0
1.48256 0.293347 0
1.50685 0.326967 0
1.52589 0.29055 0
1.54996 0.325305 0
1.56909 0.287929 0
[...]
CELL_DATA 3694
SCALARS rho float
LOOKUP_TABLE default
0.914192
0.905761
0.829888
0.944094
0.940722
0.830313
0.862438
0.818898
0.939977
0.815102
0.945219
0.945205
0.903888
0.867661
0.818964
0.923142
0.812855
0.817132
0.924277
0.944868
0.939091
0.944053
0.913354
0.831989
0.912733
0.903785
0.896218
0.847967
0.891356
0.805517
0.805414
0.895457
0.817056
0.879828
0.822249
0.932886
0.940211
0.943552
0.940567
0.892414
0.82678
0.86937
0.889239
0.880812
0.886904
0.94405
0.828515
0.895023
0.90322
0.915913
0.83603
0.809317
0.943903
0.861985
0.901198
0.94082
0.821492
0.940425
0.89121
0.91866
0.871121
0.946075
0.944679
0.81677
0.946165
0.943465
0.848317
0.94482
0.886215
0.949325
0.80687
0.852739
0.944069
0.813622
0.94339
0.809753
0.886653
0.808534
0.943379
0.833426
0.903694
0.872331
0.806183
0.891774
0.939105
0.80917
0.940235
0.902508
0.888992
0.938639
0.932099
0.814526
0.875586
0.938301
0.900548
0.840358
0.909452
0.944989
0.942781
0.944195
0.945296
0.92483
0.88801
0.939572
0.938668
0.946073
0.94506
0.841892
0.897521
0.94305
0.859424
0.916012
0.887303
0.937903
0.951856
0.813378
0.932594
0.942598
0.806548
0.812726
0.894371
0.89797
0.942066
0.923971
0.8836
0.897288
0.944265
0.927444
0.942558
0.914511
0.893857
0.887721
0.85274
0.884518
0.829207
0.930079
0.83177
0.806519
0.805091
0.945165
0.943064
0.915589
0.94469
0.944773
0.898373
0.895997
0.901176
0.806798
0.945896
0.863345
0.907115
0.808968
0.890494
0.925675
0.898738
0.92511
0.907571
0.927215
0.892537
0.874195
0.895337
0.897399
0.879507
0.914955
0.946436
0.889156
0.868058
0.816935
0.836019
0.901421
0.820099
0.905189
0.949282
0.886169
0.860266
0.902182
0.913227
0.94463
0.942095
0.886681
0.942751
0.894176
0.944073
0.894568
0.897627
0.813682
0.886208
0.943595
0.835874
0.947603
0.890319
0.887499
0.945781
0.807079
0.902221
0.902127
0.867248
0.943916
0.914525
0.908401
0.892461
0.929496
0.944427
0.895029
0.879586
0.945003
0.907435
0.825444
0.918549
0.810223
0.908311
0.929477
0.850468
0.861979
0.944005
0.925002
0.944318
0.917043
0.944042
0.940913
0.945938
0.901981
0.886991
0.912887
0.944053
0.885678
0.880825
0.937603
0.947693
0.943199
0.938546
0.893251
0.907583
0.945115
0.94394
0.945159
0.91645
0.933018
0.897366
0.930434
0.850645
0.938711
0.903374
0.843909
0.923204
0.889577
0.806418
0.922242
0.946243
0.91107
0.892988
0.882112
0.883577
0.828746
0.898411
0.931257
0.884365
0.813566
0.941051
0.945919
0.893664
0.946169
0.895778
0.932656
0.946171
0.808457
0.87962
0.936173
0.893161
0.921112
0.805475
0.944799
0.857965
0.806954
0.866332
0.945986
0.884676
0.887746
0.944554
0.896314
0.943827
0.895293
0.908576
0.946167
0.946138
0.939386
0.906506
0.929406
0.946116
0.887939
0.806597
0.950118
0.887829
0.923935
0.944307
0.939311
0.945844
0.888939
0.864023
0.946098
0.819824
0.81556
0.884682
0.940013
0.870729
0.894311
0.855169
0.809619
0.896546
0.944251
0.944079
0.908373
0.930179
0.944689
0.897386
0.907436
0.88209
0.944185
0.943253
0.851012
0.888487
0.912941
0.91449
0.911068
0.94395
0.927322
0.823174
0.912801
0.885431
0.943389
0.939116
0.874045
0.924159
0.94624
0.944892
0.945092
0.9443
0.818934
0.843345
0.83629
0.882899
0.805957
0.860095
0.905402
0.850733
0.832752
0.944552
0.873758
0.881413
0.87775
0.94601
0.944258
0.944377
0.808286
0.907406
0.909013
0.856082
0.866966
0.901496
0.821306
0.851645
0.868893
0.902625
0.853721
0.943905
0.942207
0.944882
0.830363
0.862155
0.924174
0.84181
0.946194
0.874258
0.886726
0.827328
0.915147
0.882804
0.815832
0.890855
0.892969
0.886311
0.894961
0.944882
0.941091
0.944156
0.935575
0.944386
0.943426
0.812163
0.924163
0.880716
0.905819
0.943954
0.921237
0.91898
0.899754
0.94504
0.94558
0.943963
0.854782
0.898289
0.946216
0.880834
0.923422
0.939688
0.903273
0.862078
0.943555
0.894962
0.839379
0.950949
0.865356
0.941597
0.945111
0.890528
0.902916
0.932773
0.912886
0.805383
0.894595
0.938357
0.863645
0.927961
0.883714
0.945968
0.885866
0.942719
0.813708
0.834516
0.943552
0.819816
0.905855
0.889894
0.806542
0.945943
0.942038
0.942009
0.952083
0.944057
0.852603
0.944437
0.908753
0.943997
0.945135
0.945288
0.894685
0.946232
0.850086
0.946553
0.944166
0.814977
0.888957
0.852203
0.914227
0.842303
0.809917
0.861272
0.944969
0.881852
0.832846
0.881773
0.944477
0.912583
0.950449
0.806027
0.947495
0.944167
0.891906
0.821252
0.871091
0.942039
0.945003
0.899661
0.812482
0.852705
0.86
0.84508
0.855775
0.946062
0.944433
0.932308
0.840688
0.943661
0.940456
0.914605
0.842442
0.856475
0.942591
0.904144
0.833313
0.941348
0.808232
0.827375
0.884628
0.944567
0.925155
0.945787
0.944852
0.943657
0.944502
0.943757
0.942542
0.904199
0.808353
0.944722
0.938757
0.90693
0.808286
0.811201
0.95227
0.946472
0.944585
0.805344
0.874092
0.919047
0.945667
0.862029
0.888944
0.816355
0.918735
0.895312
0.822068
0.94206
0.892323
0.899182
0.945991
0.892076
0.942268
0.849549
0.937213
0.89013
0.917896
0.823034
0.938008
0.941162
0.819715
0.895915
0.912766
0.944955
0.863862
0.881544
0.89063
0.944929
0.937472
0.943979
0.814626
0.936164
0.942418
0.876871
0.945553
0.817162
0.866151
0.941034
0.946049
0.93673
0.93793
0.912975
0.888157
0.929525
0.813681
0.947086
0.816396
0.932008
0.895147
0.93462
0.943464
0.854463
0.944631
0.836023
0.944522
0.911212
0.946208
0.884799
0.811351
0.945178
0.845263
0.900761
0.883
0.869096
0.837703
0.830524
0.928947
0.82034
0.94359
0.94175
0.828471
0.815652
0.94176
0.892599
0.943083
0.823603
0.906251
0.941989
0.899599
0.929062
0.944687
0.940729
0.936915
0.943802
0.931404
0.930352
0.829624
0.821964
0.942893
0.856062
0.939276
0.812613
0.887745
0.83907
0.943993
0.943355
0.938006
0.942488
0.945527
0.946096
0.939404
0.910443
0.840626
0.945482
0.820334
0.885789
0.910682
0.859543
0.944715
0.945951
0.892269
0.853598
0.862481
0.824639
0.849807
0.819741
0.937999
0.938966
0.946129
0.928833
0.936418
0.936843
0.885224
0.888856
0.901083
0.931567
0.912883
0.908517
0.804738
0.893807
0.943168
0.946039
0.94592
0.873657
0.884342
0.86874
0.887838
0.908577
0.943967
0.950323
0.921578
0.944276
0.947905
0.911732
0.944559
0.878308
0.864414
0.895795
0.900488
0.948715
0.894683
0.918746
0.855488
0.82854
0.805564
0.88977
0.946241
0.90997
0.935951
0.828762
0.907583
0.945568
0.807484
0.895734
0.890461
0.945522
0.938147
0.945972
0.892451
0.91288
0.926197
0.902441
0.904327
0.945832
0.940366
0.944066
0.921057
0.94413
0.912903
0.828584
0.900194
0.90659
0.930514
0.877704
0.930185
0.945713
0.945825
0.946131
0.945317
0.890214
0.804894
0.946057
0.915176
0.861848
0.945711
0.942964
0.890022
0.887085
0.914615
0.900171
0.895754
0.908788
0.946033
0.804797
0.946146
0.901698
0.889287
0.932541
0.941345
0.939014
0.920808
0.927651
0.888371
0.922763
0.939597
0.888953
0.885498
0.946183
0.833903
0.939236
0.826658
0.916573
0.924962
0.905631
0.890118
0.813658
0.944378
0.858159
0.902919
0.944006
0.937281
0.941472
0.911151
0.884677
0.909978
0.952979
0.945631
0.94223
0.894058
0.909613
0.898064
0.825932
0.805476
0.903077
0.858228
0.936971
0.922849
0.81818
0.903157
0.944828
0.904435
0.945913
0.887475
0.933604
0.807315
0.937211
0.916915
0.945991
0.946146
0.886967
0.889176
0.870564
0.941066
0.901186
0.945221
0.889677
0.825944
0.939854
0.898358
0.944815
0.804693
0.894581
0.89265
0.888901
0.917347
0.838249
0.941968
0.941181
0.943799
0.867404
0.945327
0.906553
0.804623
0.941995
0.94337
0.907509
0.917518
0.943284
0.935874
0.911961
0.897068
0.923044
0.889643
0.865283
0.906363
0.934896
0.901095
0.808586
0.890418
0.908113
0.941031
0.883832
0.91948
0.895938
0.943059
0.896417
0.942139
0.922753
0.945464
0.80624
0.926754
0.80953
0.846021
0.941473
0.919633
0.869272
0.80871
0.944678
0.892287
0.818681
0.941189
0.941296
0.941054
0.941085
0.900283
0.932524
0.895199
0.900945
0.944016
0.905102
0.943674
0.943585
0.808301
0.942824
0.943498
0.908232
0.891769
0.943672
0.92788
0.841631
0.943418
0.952216
0.941792
0.933307
0.945392
0.946149
0.855909
0.944743
0.940958
0.888498
0.911122
0.945806
0.891105
0.80817
0.876576
0.925085
0.944723
0.893114
0.944647
0.94528
0.952296
0.808681
0.833412
0.944693
0.808927
0.945536
0.847495
0.904973
0.945284
0.94445
0.889087
0.910784
0.944989
0.895727
0.877815
0.902306
0.944161
0.890614
0.938625
0.81864
0.916949
0.807562
0.806847
0.865646
0.941967
0.896361
0.914852
0.814942
0.89147
0.824731
0.937023
0.889542
0.946158
0.818483
0.817789
0.93627
0.946134
0.916679
0.945311
0.896122
0.839839
0.898992
0.817039
0.925182
0.893932
0.8939
0.945967
0.887723
0.946031
0.888519
0.901206
0.818243
0.944501
0.946159
0.811939
0.946067
0.934356
0.918454
0.892296
0.948888
0.808478
0.939609
0.865913
0.888087
0.890906
0.928136
0.90578
0.920416
0.891741
0.935293
0.944777
0.937134
0.806461
0.894036
0.910153
0.924612
0.886831
0.884331
0.946003
0.90239
0.944533
0.844537
0.894431
0.936352
0.820719
0.849638
0.899899
0.81948
0.918411
0.854414
0.806402
0.922472
0.938923
0.877392
0.818329
0.930586
0.942635
0.898513
0.809238
0.812469
0.83489
0.891463
0.946082
0.946091
0.877319
0.902303
0.946087
0.945864
0.807159
0.822845
0.869809
0.926745
0.848811
0.931646
0.945841
0.890521
0.935075
0.952399
0.89734
0.921282
0.936364
0.892327
0.945916
0.933466
0.928059
0.939966
0.853858
0.878195
0.858243
0.943998
0.944815
0.84662
0.889206
0.943542
0.942981
0.893344
0.944259
0.943195
0.943189
0.943004
0.860547
0.943022
0.943975
0.891068
0.85299
0.941812
0.936785
0.943991
0.817914
0.890935
0.888264
0.838992
0.87563
0.918659
0.871089
0.888766
0.944516
0.943943
0.944075
0.843369
0.870631
0.943942
0.871947
0.944203
0.945245
0.944499
0.929748
0.805084
0.944084
0.94429
0.94513
0.810647
0.849721
0.950595
0.944344
0.946832
0.944638
0.809945
0.883455
0.884864
0.900133
0.942771
0.940724
0.839522
0.906217
0.812688
0.83048
0.945833
0.837159
0.930729
0.879142
0.895529
0.826438
0.889484
0.87496
0.898536
0.864238
0.928313
0.89809
0.819596
0.861826
0.895527
0.917116
0.944484
0.866225
0.887392
0.943932
0.92711
0.94561
0.90406
0.888247
0.936888
0.857589
0.809769
0.921141
0.910936
0.946221
0.898663
0.925713
0.94248
0.845446
0.94164
0.834849
0.807723
0.89059
0.806325
0.807695
0.943758
0.94493
0.856466
0.88469
0.891772
0.903637
0.845971
0.928307
0.828624
0.943861
0.838224
0.945759
0.887247
0.946238
0.83164
0.940971
0.825787
0.944172
0.805317
0.945881
0.940702
0.944643
0.941711
0.917118
0.941841
0.945995
0.890597
0.946072
0.86697
0.824853
0.94913
0.942172
0.94077
0.95213
0.945189
0.945447
0.945374
0.944454
0.942586
0.895485
0.893115
0.817955
0.814704
0.9411
0.945702
0.945476
0.946029
0.940986
0.876476
0.829472
0.94084
0.849233
0.865873
0.873609
0.946113
0.940767
0.943629
0.868966
0.886281
0.906523
0.811215
0.851641
0.815858
0.940748
0.943526
0.942868
0.811879
0.837523
0.811885
0.808736
0.943797
0.943152
0.944742
0.858191
0.943895
0.944804
0.897982
0.943415
0.874532
0.883892
0.943217
0.847367
0.827582
0.873879
0.938952
0.944206
0.94598
0.944875
0.897212
0.935973
0.943861
0.943315
0.874501
0.816982
0.818452
0.83738
0.94136
0.945917
0.809229
0.934437
0.94525
0.876331
0.813202
0.885194
0.824685
0.928992
0.869015
0.88704
0.829757
0.916878
0.945639
0.849147
0.807255
0.944738
0.944212
0.853551
0.944001
0.8094
0.944672
0.941452
0.944625
0.818184
0.944653
0.916247
0.944062
0.872133
0.81021
0.860065
0.944298
0.864226
0.82076
0.927998
0.864449
0.946137
0.946126
0.944514
0.840225
0.945326
0.94562
0.940176
0.87737
0.945156
0.836678
0.904407
0.943965
0.941506
0.94443
0.830288
0.805931
0.823173
0.940583
0.862068
0.945249
0.897066
0.92083
0.812581
0.843055
0.945222
0.94295
0.933505
0.906267
0.907773
0.850071
0.89071
0.945951
0.895173
0.809218
0.913196
0.805588
0.872737
0.807106
0.945054
0.943067
0.838796
0.847034
0.93105
0.897643
0.946066
0.814721
0.82073
0.944197
0.943361
0.921505
0.939783
0.818286
0.892192
0.946069
0.819496
0.856385
0.945703
0.945922
0.943371
0.930875
0.804421
0.946057
0.919106
0.840013
0.94586
0.842933
0.944967
0.900607
0.817546
0.944415
0.933896
0.927212
0.942952
0.810731
0.903804
0.891539
0.813892
0.945896
0.944388
0.848289
0.944645
0.945682
0.812774
0.818893
0.882121
0.924893
0.945107
0.945812
0.903651
0.945829
0.907932
0.870698
0.943549
0.943044
0.894967
0.945674
0.94617
0.915049
0.945836
0.820858
0.805159
0.810612
0.945032
0.950336
0.809915
0.813821
0.874397
0.9459
0.886138
0.943768
0.942884
0.917519
0.933654
0.80568
0.914001
0.817132
0.910525
0.940695
0.824656
0.904549
0.954034
0.904556
0.889654
0.831108
0.920972
0.850293
0.807614
0.809093
0.90187
0.84641
0.886386
0.810145
0.917575
0.944289
0.944094
0.95499
0.854189
0.886413
0.899459
0.814199
0.926806
0.921909
0.904716
0.92596
0.915206
0.828257
0.811266
0.828739
0.897572
0.897392
0.855823
0.895581
0.940552
0.936171
0.860976
0.897158
0.934462
0.932253
0.94173
0.878641
0.937721
0.844389
0.940074
0.910028
0.81115
0.915412
0.810488
0.806341
0.912108
0.82456
0.946139
0.946199
0.811628
0.920852
0.945928
0.891401
0.906259
0.807841
0.946191
0.953136
0.946094
0.94503
0.953586
0.948849
0.9386
0.891083
0.811205
0.861292
0.875969
0.93216
0.911802
0.911016
0.90928
0.813465
0.890768
0.893537
0.805896
0.900865
0.890524
0.940475
0.925185
0.91984
0.942947
0.922387
0.892078
0.890347
0.91746
0.927772
0.939285
0.95034
0.941508
0.945969
0.930074
0.806397
0.91512
0.946217
0.907375
0.893644
0.946156
0.892831
0.921101
0.93209
0.926975
0.839626
0.8077
0.94169
0.884109
0.950168
0.890402
0.886353
0.809775
0.933882
0.912807
0.854915
0.80988
0.94212
0.821242
0.804822
0.891135
0.890581
0.893948
0.942442
0.94623
0.914814
0.80699
0.935393
0.910895
0.941914
0.807302
0.945059
0.804837
0.930314
0.804615
0.945367
0.804782
0.893506
0.814646
0.949278
0.945616
0.804648
0.884461
0.909086
0.945632
0.894143
0.936658
0.853036
0.942303
0.942525
0.812604
0.862528
0.944703
0.943278
0.945834
0.804551
0.907487
0.948219
0.822761
0.907482
0.937366
0.892099
0.833734
0.810622
0.940179
0.91988
0.804956
0.93936
0.939848
0.943684
0.94577
0.92056
0.891147
0.819436
0.942483
0.829974
0.937886
0.835049
0.832409
0.837733
0.945153
0.849797
0.809787
0.860258
0.840603
0.878464
0.854934
0.849582
0.944889
0.843519
0.805015
0.944508
0.809997
0.804981
0.844422
0.846594
0.944571
0.889057
0.839431
0.814113
0.945939
0.804412
0.819556
0.865618
0.942535
0.834837
0.90619
0.806226
0.944101
0.830426
0.875313
0.896562
0.944482
0.901396
0.817837
0.804831
0.822831
0.870654
0.947158
0.826428
0.805387
0.891933
0.942569
0.946071
0.94338
0.889777
0.940339
0.905447
0.944444
0.908752
0.852805
0.94263
0.807128
0.904284
0.942716
0.938785
0.945796
0.94282
0.946189
0.890974
0.945093
0.904829
0.911343
0.946166
0.942959
0.906161
0.94459
0.899856
0.943162
0.846449
0.945525
0.806701
0.842101
0.939599
0.886517
0.886692
0.882925
0.94446
0.945631
0.884598
0.946348
0.828918
0.913597
0.945079
0.944462
0.944685
0.910214
0.905117
0.944361
0.903544
0.944138
0.946188
0.943983
0.87074
0.943916
0.877498
0.943899
0.943906
0.915499
0.951068
0.943952
0.944042
0.882905
0.92222
0.808849
0.885254
0.934813
0.94417
0.944498
0.87538
0.94349
0.945962
0.804171
0.944308
0.811209
0.902038
0.869713
0.888391
0.945594
0.917347
0.933215
0.878821
0.893588
0.945796
0.946106
0.879866
0.858021
0.919007
0.938531
0.808775
0.816112
0.861628
0.931448
0.884221
0.893769
0.805133
0.944157
0.874631
0.944681
0.887843
0.95828
0.90066
0.85418
0.920916
0.887885
0.945978
0.945972
0.946111
0.894713
0.942464
0.870329
0.823176
0.940884
0.890722
0.892777
0.890944
0.838356
0.846797
0.917409
0.922824
0.946238
0.920824
0.865996
0.944238
0.945862
0.861684
0.816876
0.926775
0.857494
0.945742
0.899144
0.853303
0.945865
0.944903
0.843684
0.849349
0.924754
0.945769
0.845475
0.812787
0.841795
0.898414
0.838225
0.825812
0.834856
0.943541
0.897444
0.828642
0.926974
0.831638
0.893407
0.943736
0.936549
0.944346
0.945959
0.901209
0.81622
0.89758
0.873284
0.946245
0.91566
0.820564
0.945709
0.895662
0.944321
0.88721
0.840048
0.903486
0.822707
0.9329
0.942668
0.94529
0.824699
0.939313
0.943836
0.811871
0.839063
0.896314
0.945472
0.860754
0.942701
0.831088
0.82976
0.806749
0.81321
0.935955
0.945808
0.81476
0.92622
0.944449
0.933692
0.858882
0.94599
0.890282
0.879661
0.870629
0.946196
0.929673
0.921698
0.885993
0.94414
0.945892
0.943166
0.930468
0.893666
0.923015
0.9048
0.945484
0.888497
0.944027
0.886423
0.910303
0.806754
0.943704
0.92286
0.839516
0.810922
0.944918
0.930281
0.907346
0.808114
0.888568
0.817658
0.810394
0.829059
0.885908
0.807255
0.816632
0.823734
0.91147
0.915831
0.821279
0.924562
0.94608
0.912577
0.90937
0.946031
0.842869
0.919208
0.945639
0.945169
0.943959
0.903898
0.833943
0.805725
0.807124
0.805673
0.904864
0.815672
0.946152
0.901435
0.906516
0.887341
0.928081
0.94622
0.936655
0.945144
0.945496
0.945134
0.825125
0.946219
0.944942
0.933933
0.883886
0.823691
0.810484
0.854553
0.916293
0.857269
0.944811
0.948413
0.933809
0.899264
0.927125
0.809058
0.891231
0.945314
0.941944
0.938796
0.863427
0.949277
0.82577
0.944891
0.893186
0.867009
0.940286
0.805777
0.945499
0.897428
0.943336
0.812104
0.945298
0.805451
0.944743
0.945469
0.891235
0.837181
0.804927
0.941235
0.948994
0.872341
0.945846
0.891909
0.921451
0.806943
0.813485
0.859845
0.94427
0.805176
0.811606
0.9434
0.936502
0.846225
0.892214
0.807951
0.94311
0.940505
0.89363
0.891856
0.940156
0.891059
0.948111
0.91084
0.941689
0.940085
0.891613
0.867767
0.944755
0.892977
0.804483
0.893381
0.94566
0.926307
0.89245
0.944548
0.891564
0.804273
0.923848
0.945783
0.945253
0.811878
0.928656
0.918923
0.921247
0.922246
0.945777
0.944508
0.936219
0.891387
0.932652
0.93074
0.893044
0.893187
0.943948
0.864724
0.831078
0.90342
0.83364
0.836282
0.948003
0.821061
0.851204
0.94198
0.838979
0.939945
0.947266
0.899588
0.824517
0.945788
0.84673
0.841744
0.851944
0.832535
0.836876
0.828232
0.857274
0.841966
0.916653
0.862609
0.844854
0.934309
0.943786
0.848084
0.939502
0.805573
0.825427
0.944564
0.944195
0.940224
0.805119
0.892027
0.861543
0.93568
0.945066
0.914496
0.94474
0.942153
0.945865
0.948625
0.916518
0.937661
0.946083
0.825567
0.891411
0.814577
0.921813
0.94416
0.892173
0.946007
0.94225
0.94582
0.936918
0.80856
0.900693
0.936628
0.821871
0.920209
0.944963
0.895318
0.88675
0.945498
0.884023
0.912508
0.89014
0.942361
0.943498
0.945166
0.946434
0.891597
0.916928
0.867876
0.942474
0.942589
0.942847
0.910631
0.946016
0.94273
0.945471
0.82653
0.890333
0.887503
0.889622
0.938026
0.9457
0.823687
0.945156
0.942925
0.805242
0.90906
0.896228
0.943155
0.944705
0.811161
0.938976
0.80499
0.944414
0.810871
0.939679
0.944157
0.94396
0.884147
0.944016
0.885776
0.887382
0.907917
0.891824
0.943861
0.943851
0.894182
0.899432
0.93706
0.943851
0.900932
0.894962
0.943872
0.943946
0.944063
0.944356
0.87287
0.880296
0.906285
0.903901
0.94421
0.807883
0.911637
0.958034
0.888147
0.935419
0.900438
0.890056
0.907615
0.910559
0.87636
0.877439
0.881377
0.904955
0.805629
0.946107
0.873966
0.912983
0.933884
0.872155
0.881928
0.903622
0.935906
0.885948
0.945907
0.943818
0.867794
0.932149
0.94566
0.945789
0.88941
0.824412
0.915074
0.894345
0.866067
0.939787
0.879513
0.827168
0.902034
0.804614
0.863536
0.859341
0.855246
0.851142
0.847151
0.843529
0.836439
0.830066
0.839958
0.914712
0.833132
0.804701
0.858329
0.815597
0.897988
0.916841
0.81144
0.892301
0.954545
0.908981
0.850713
0.918535
0.826987
0.892009
0.900565
0.816718
0.816999
0.920211
0.859085
0.930444
0.807454
0.812462
0.898862
0.927796
0.934537
0.922075
0.894764
0.92574
0.813883
0.945087
0.848733
0.923868
0.896966
0.843162
0.945066
0.813397
0.927047
0.805244
0.969396
0.947106
0.942254
0.945879
0.885644
0.944892
0.915619
0.880366
0.93402
0.959778
0.946139
0.805352
0.890647
0.946191
0.806004
0.946226
0.806759
0.942713
0.883413
0.943266
0.832415
0.836669
0.889464
0.828107
0.903856
0.808108
0.944681
0.903988
0.879296
0.896717
0.946244
0.87964
0.806009
0.917245
0.94128
0.897237
0.882787
0.930515
0.94571
0.945475
0.909693
0.816054
0.880713
0.80886
0.94624
0.809709
0.810334
0.81067
0.946173
0.939447
0.805235
0.813818
0.945981
0.815042
0.945892
0.867335
0.816319
0.945794
0.944583
0.94569
0.818971
0.94558
0.900517
0.820387
0.945468
0.808066
0.821919
0.945345
0.913677
0.946191
0.804784
0.946041
0.893361
0.939611
0.892992
0.950341
0.806586
0.827202
0.944971
0.86528
0.82536
0.823603
0.91194
0.934213
0.945105
0.940043
0.945165
0.944123
0.944481
0.881859
0.947024
0.946145
0.833254
0.94458
0.932973
0.835326
0.946
0.815323
0.931187
0.890218
0.852244