# vtk DataFile Version 1.0
unstructured grid
ascii
DATASET UNSTRUCTURED_GRID
points 3920 float
-1 0 0
-1 1 0
2 0 0
2 1 0
0 0 0
1 0 0
-1 1 0.1
-1 0 0.1
0 0 0.1
1 0 0.1
2 0 0.1
2 1 0.1
-0.98 0 0
-0.96 0 0
-0.94 0 0
-0.92 0 0
-0.9 0 0
-0.88 0 0
-0.86 0 0
-0.84 0 0
-0.82 0 0
-0.8 0 0
-0.78 0 0
-0.76 0 0
-0.74 0 0
-0.72 0 0
-0.7 0 0
-0.68 0 0
-0.66 0 0
-0.64 0 0
-0.62 0 0
-0.6 0 0
-0.58 0 0
-0.56 0 0
-0.54 0 0
-0.52 0 0
-0.5 0 0
-0.48 0 0
-0.46 0 0
-0.44 0 0
-0.42 0 0
-0.4 0 0
-0.38 0 0
-0.36 0 0
-0.34 0 0
-0.32 0 0
-0.3 0 0
-0.28 0 0
-0.26 0 0
-0.24 0 0
-0.22 0 0
-0.2 0 0
-0.18 0 0
-0.16 0 0
-0.14 0 0
-0.12 0 0
-0.1 0 0
-0.08 0 0
-0.06 0 0
-0.04 0 0
-0.02 0 0
1.02 0 0
1.04 0 0
1.06 0 0
1.08 0 0
1.1 0 0
1.12 0 0
1.14 0 0
1.16 0 0
1.18 0 0
1.2 0 0
1.22 0 0
1.24 0 0
1.26 0 0
1.28 0 0
1.3 0 0
1.32 0 0
1.34 0 0
1.36 0 0
1.38 0 0
1.4 0 0
1.42 0 0
1.44 0 0
1.46 0 0
1.48 0 0
1.5 0 0
1.52 0 0
1.54 0 0
1.56 0 0
1.58 0 0
1.6 0 0
1.62 0 0
1.64 0 0
1.66 0 0
1.68 0 0
1.7 0 0
1.72 0 0
1.74 0 0
1.76 0 0
1.78 0 0
1.8 0 0
1.82 0 0
1.84 0 0
1.86 0 0
1.88 0 0
1.9 0 0
1.92 0 0
1.94 0 0
1.96 0 0
1.98 0 0
2 0.0199133 0
2 0.0414128 0
2 0.0646247 0
2 0.0896856 0
2 0.116743 0
2 0.145955 0
2 0.177494 0
2 0.211545 0
2 0.248309 0
2 0.288001 0
2 0.330854 0
2 0.377121 0
2 0.427073 0
2 0.481004 0
2 0.539231 0
2 0.602096 0
2 0.669968 0
2 0.743247 0
2 0.822362 0
2 0.907779 0
1.9 1 0
1.8 1 0
1.7 1 0
1.6 1 0
1.5 1 0
1.4 1 0
1.3 1 0
1.2 1 0
1.1 1 0
1 1 0
0.9 1 0
0.8 1 0
0.7 1 0
0.6 1 0
0.5 1 0
0.4 1 0
0.3 1 0
0.2 1 0
0.1 1 0
3.69793e-12 1 0
-0.1 1 0
-0.2 1 0
-0.3 1 0
-0.4 1 0
-0.5 1 0
-0.6 1 0
-0.7 1 0
-0.8 1 0
-0.9 1 0
-1 0.907779 0
-1 0.822362 0
-1 0.743247 0
-1 0.669968 0
-1 0.602096 0
-1 0.539231 0
-1 0.481004 0
-1 0.427073 0
-1 0.377121 0
-1 0.330854 0
-1 0.288001 0
-1 0.248309 0
-1 0.211545 0
-1 0.177494 0
-1 0.145955 0
-1 0.116743 0
-1 0.0896856 0
-1 0.0646247 0
-1 0.0414128 0
-1 0.0199133 0
0.0182781 0.00745351 0
0.0366672 0.0146286 0
0.0551632 0.0215237 0
0.0737617 0.0281372 0
0.0924585 0.0344675 0
0.111249 0.0405131 0
0.13013 0.0462728 0
0.149095 0.0517451 0
0.168142 0.0569289 0
0.187265 0.0618228 0
0.20646 0.0664258 0
0.225723 0.0707368 0
0.245049 0.0747549 0
0.264434 0.078479 0
0.283873 0.0819084 0
0.303362 0.0850422 0
0.322896 0.0878798 0
0.342472 0.0904204 0
0.362083 0.0926635 0
0.381726 0.0946086 0
0.401397 0.0962552 0
0.42109 0.0976029 0
0.440802 0.0986514 0
0.460527 0.0994006 0
0.480261 0.0998501 0
0.5 0.1 0
0.519739 0.0998501 0
0.539473 0.0994006 0
0.559198 0.0986514 0
0.57891 0.0976029 0
0.598603 0.0962552 0
0.618274 0.0946086 0
0.637917 0.0926635 0
0.657528 0.0904204 0
0.677104 0.0878798 0
0.696638 0.0850422 0
0.716127 0.0819084 0
0.735566 0.078479 0
0.754951 0.0747549 0
0.774277 0.0707368 0
0.79354 0.0664258 0
0.812735 0.0618228 0
0.831858 0.0569289 0
0.850905 0.0517451 0
0.86987 0.0462728 0
0.888751 0.0405131 0
0.907542 0.0344675 0
0.926238 0.0281372 0
0.944837 0.0215237 0
0.963333 0.0146286 0
0.981722 0.00745351 0
-1 0.907779 0.1
-1 0.822362 0.1
-1 0.743247 0.1
-1 0.669968 0.1
-1 0.602096 0.1
-1 0.539231 0.1
-1 0.481004 0.1
-1 0.427073 0.1
-1 0.377121 0.1
-1 0.330854 0.1
-1 0.288001 0.1
-1 0.248309 0.1
-1 0.211545 0.1
-1 0.177494 0.1
-1 0.145955 0.1
-1 0.116743 0.1
-1 0.0896856 0.1
-1 0.0646247 0.1
-1 0.0414128 0.1
-1 0.0199133 0.1
-0.98 0 0.1
-0.96 0 0.1
-0.94 0 0.1
-0.92 0 0.1
-0.9 0 0.1
-0.88 0 0.1
-0.86 0 0.1
-0.84 0 0.1
-0.82 0 0.1
-0.8 0 0.1
-0.78 0 0.1
-0.76 0 0.1
-0.74 0 0.1
-0.72 0 0.1
-0.7 0 0.1
-0.68 0 0.1
-0.66 0 0.1
-0.64 0 0.1
-0.62 0 0.1
-0.6 0 0.1
-0.58 0 0.1
-0.56 0 0.1
-0.54 0 0.1
-0.52 0 0.1
-0.5 0 0.1
-0.48 0 0.1
-0.46 0 0.1
-0.44 0 0.1
-0.42 0 0.1
-0.4 0 0.1
-0.38 0 0.1
-0.36 0 0.1
-0.34 0 0.1
-0.32 0 0.1
-0.3 0 0.1
-0.28 0 0.1
-0.26 0 0.1
-0.24 0 0.1
-0.22 0 0.1
-0.2 0 0.1
-0.18 0 0.1
-0.16 0 0.1
-0.14 0 0.1
-0.12 0 0.1
-0.1 0 0.1
-0.08 0 0.1
-0.06 0 0.1
-0.04 0 0.1
-0.02 0 0.1
0.0182781 0.00745351 0.1
0.0366672 0.0146286 0.1
0.0551632 0.0215237 0.1
0.0737617 0.0281372 0.1
0.0924585 0.0344675 0.1
0.111249 0.0405131 0.1
0.13013 0.0462728 0.1
0.149095 0.0517451 0.1
0.168142 0.0569289 0.1
0.187265 0.0618228 0.1
0.20646 0.0664258 0.1
0.225723 0.0707368 0.1
0.245049 0.0747549 0.1
0.264434 0.078479 0.1
0.283873 0.0819084 0.1
0.303362 0.0850422 0.1
0.322896 0.0878798 0.1
0.342472 0.0904204 0.1
0.362083 0.0926635 0.1
0.381726 0.0946086 0.1
0.401397 0.0962552 0.1
0.42109 0.0976029 0.1
0.440802 0.0986514 0.1
0.460527 0.0994006 0.1
0.480261 0.0998501 0.1
0.5 0.1 0.1
0.519739 0.0998501 0.1
0.539473 0.0994006 0.1
0.559198 0.0986514 0.1
0.57891 0.0976029 0.1
0.598603 0.0962552 0.1
0.618274 0.0946086 0.1
0.637917 0.0926635 0.1
0.657528 0.0904204 0.1
0.677104 0.0878798 0.1
0.696638 0.0850422 0.1
0.716127 0.0819084 0.1
0.735566 0.078479 0.1
0.754951 0.0747549 0.1
0.774277 0.0707368 0.1
0.79354 0.0664258 0.1
0.812735 0.0618228 0.1
0.831858 0.0569289 0.1
0.850905 0.0517451 0.1
0.86987 0.0462728 0.1
0.888751 0.0405131 0.1
0.907542 0.0344675 0.1
0.926238 0.0281372 0.1
0.944837 0.0215237 0.1
0.963333 0.0146286 0.1
0.981722 0.00745351 0.1
1.02 0 0.1
1.04 0 0.1
1.06 0 0.1
1.08 0 0.1
1.1 0 0.1
1.12 0 0.1
1.14 0 0.1
1.16 0 0.1
1.18 0 0.1
1.2 0 0.1
1.22 0 0.1
1.24 0 0.1
1.26 0 0.1
1.28 0 0.1
1.3 0 0.1
1.32 0 0.1
1.34 0 0.1
1.36 0 0.1
1.38 0 0.1
1.4 0 0.1
1.42 0 0.1
1.44 0 0.1
1.46 0 0.1
1.48 0 0.1
1.5 0 0.1
1.52 0 0.1
1.54 0 0.1
1.56 0 0.1
1.58 0 0.1
1.6 0 0.1
1.62 0 0.1
1.64 0 0.1
1.66 0 0.1
1.68 0 0.1
1.7 0 0.1
1.72 0 0.1
1.74 0 0.1
1.76 0 0.1
1.78 0 0.1
1.8 0 0.1
1.82 0 0.1
1.84 0 0.1
1.86 0 0.1
1.88 0 0.1
1.9 0 0.1
1.92 0 0.1
1.94 0 0.1
1.96 0 0.1
1.98 0 0.1
2 0.0199133 0.1
2 0.0414128 0.1
2 0.0646247 0.1
2 0.0896856 0.1
2 0.116743 0.1
2 0.145955 0.1
2 0.177494 0.1
2 0.211545 0.1
2 0.248309 0.1
2 0.288001 0.1
2 0.330854 0.1
2 0.377121 0.1
2 0.427073 0.1
2 0.481004 0.1
2 0.539231 0.1
2 0.602096 0.1
2 0.669968 0.1
2 0.743247 0.1
2 0.822362 0.1
2 0.907779 0.1
1.9 1 0.1
1.8 1 0.1
1.7 1 0.1
1.6 1 0.1
1.5 1 0.1
1.4 1 0.1
1.3 1 0.1
1.2 1 0.1
1.1 1 0.1
1 1 0.1
0.9 1 0.1
0.8 1 0.1
0.7 1 0.1
0.6 1 0.1
0.5 1 0.1
0.4 1 0.1
0.3 1 0.1
0.2 1 0.1
0.1 1 0.1
3.69793e-12 1 0.1
-0.1 1 0.1
-0.2 1 0.1
-0.3 1 0.1
-0.4 1 0.1
-0.5 1 0.1
-0.6 1 0.1
-0.7 1 0.1
-0.8 1 0.1
-0.9 1 0.1
1.08758 0.0158154 0
-0.0898513 0.0203294 0
0.0966181 0.0537636 0
0.90205 0.0548881 0
1.21055 0.0202058 0
-0.209811 0.0159577 0
1.3305 0.0176902 0
-0.33 0.0173205 0
1.45324 0.0148141 0
-0.448654 0.0159854 0
1.56842 0.0191785 0
-0.569936 0.0166364 0
0.193292 0.0805369 0
0.805051 0.0813623 0
0.709096 0.100353 0
0.288591 0.0996656 0
0.390184 0.111848 0
0.61033 0.111742 0
0.488809 0.116278 0
1.67175 0.0169692 0
-0.67 0.0169809 0
-0.955017 0.454039 0
1.95131 0.44569 0
1.74981 0.0168753 0
-0.75 0.0173205 0
-0.968032 0.266538 0
1.96871 0.266267 0
0.978232 0.0305687 0
0.0208675 0.026451 0
-0.150454 0.91842 0
1.13854 0.907437 0
1.45012 0.904365 0
-0.445923 0.908903 0
-0.853423 0.0157019 0
1.84881 0.016319 0
0.853689 0.915652 0
0.153944 0.912184 0
0.545151 0.914125 0
0.549913 0.115152 0
1.51 0.0173205 0
-0.506989 0.01651 0
1.27 0.0173205 0
1.14976 0.0173333 0
-0.268171 0.0206442 0
-0.150501 0.0153244 0
-0.391384 0.0153993 0
1.38886 0.0171544 0
-0.973694 0.161724 0
1.97441 0.162392 0
-0.945221 0.633523 0
1.94544 0.63312 0
1.91008 0.0186068 0
-0.91 0.0169616 0
-0.030664 0.0194327 0
1.03074 0.0165456 0
-0.966065 0.353575 0
1.96128 0.359765 0
1.93879 0.781254 0
-0.937057 0.781882 0
-0.980746 0.080709 0
1.9772 0.0760699 0
0.058735 0.0409372 0
0.355202 0.913001 0
0.86356 0.0661005 0
0.134223 0.0651111 0
0.941972 0.0397386 0
-0.653034 0.915003 0
1.65328 0.904589 0
0.770126 0.0881325 0
0.232946 0.0902008 0
0.330582 0.105648 0
0.670612 0.108365 0
0.428707 0.116145 0
1.80993 0.016629 0
-0.810168 0.0172178 0
-0.71 0.0173205 0
1.63047 0.0175504 0
1.70842 0.0169661 0
-0.628824 0.0181787 0
-0.949815 0.0133898 0
1.95 0.0173205 0
1.85542 0.907891 0
-0.85 0.913397 0
1.9833 0.0307692 0
-0.983315 0.0309709 0
-0.750025 0.916468 0
-0.701107 0.836904 0
-0.607741 0.836428 0
-0.656448 0.759827 0
-0.572936 0.758144 0
-0.61411 0.691195 0
-0.539534 0.689068 0
-0.578542 0.626111 0
-0.507461 0.624216 0
-0.544001 0.566638 0
-0.477696 0.564279 0
-0.511582 0.51001 0
-0.451689 0.507147 0
-0.481834 0.457732 0
-0.426137 0.454624 0
-0.453236 0.407539 0
-0.398845 0.406233 0
-0.507958 0.409496 0
-0.368427 0.460177 0
-0.344602 0.405209 0
-0.315696 0.447824 0
-0.294128 0.402169 0
-0.262844 0.444518 0
-0.241968 0.388746 0
-0.209878 0.439557 0
-0.185184 0.391135 0
-0.156687 0.437338 0
-0.133719 0.390776 0
-0.104405 0.434306 0
-0.0818745 0.388334 0
-0.0528785 0.431165 0
-0.0305984 0.385639 0
-0.00180552 0.427863 0
0.0194564 0.382608 0
0.0485809 0.42449 0
0.0701962 0.37973 0
0.0985483 0.421145 0
0.119893 0.377339 0
0.147837 0.417911 0
0.172552 0.36751 0
0.197018 0.412597 0
0.221203 0.37141 0
0.24512 0.409646 0
-0.48178 0.364657 0
-0.531053 0.364782 0
-0.0599102 0.344151 0
-0.324909 0.359566 0
0.266181 0.368462 0
0.292132 0.407649 0
0.311992 0.365779 0
0.338918 0.404821 0
0.357567 0.355909 0
0.384723 0.40053 0
0.404675 0.359681 0
0.430617 0.398558 0
0.450457 0.35827 0
0.474237 0.395182 0
0.496746 0.34898 0
0.520548 0.397931 0
0.542071 0.353121 0
0.566011 0.389914 0
0.585061 0.350856 0
0.609352 0.38696 0
0.629069 0.348168 0
0.655979 0.391217 0
0.67472 0.346182 0
0.699346 0.381414 0
0.719333 0.341965 0
0.743718 0.377547 0
0.764028 0.339036 0
0.788201 0.373582 0
0.807659 0.336101 0
0.832821 0.372249 0
0.852309 0.334017 0
0.877785 0.370339 0
0.897875 0.331141 0
0.922904 0.366281 0
0.943173 0.327335 0
0.968282 0.363358 0
0.989029 0.324222 0
1.01391 0.361511 0
1.03465 0.321428 0
1.05949 0.358447 0
1.08389 0.312052 0
1.10575 0.355104 0
1.12889 0.31562 0
1.15067 0.353235 0
1.17157 0.312819 0
1.19626 0.349369 0
1.21618 0.309863 0
1.2416 0.346914 0
1.26131 0.30715 0
1.28691 0.344312 0
1.30571 0.303752 0
1.33144 0.341222 0
1.35018 0.300911 0
1.3758 0.338308 0
1.39501 0.298931 0
1.42015 0.335235 0
1.43904 0.296349 0
1.46355 0.330194 0
1.48256 0.293347 0
1.50685 0.326967 0
1.52589 0.29055 0
1.54996 0.325305 0
1.56909 0.287929 0
[...]
CELL_DATA 3694
SCALARS rho float
LOOKUP_TABLE default
0.736033
0.672154
0.803806
0.813904
0.826958
0.805125
0.791681
0.800045
0.810751
0.802747
0.818052
0.818045
0.840546
0.789442
0.800831
0.751672
0.80328
0.802988
0.761166
0.850253
0.817765
0.823624
0.699795
0.803395
0.696409
0.839472
0.720374
0.806343
0.837123
0.798636
0.798823
0.718657
0.803517
0.824756
0.802861
0.798063
0.837458
0.823405
0.825262
0.778146
0.804673
0.817395
0.834459
0.825335
0.805162
0.813797
0.800899
0.672115
0.680442
0.722732
0.802067
0.802932
0.847034
0.802082
0.634416
0.83836
0.802685
0.819565
0.832684
0.75477
0.796311
0.816034
0.842424
0.79966
0.842982
0.831292
0.807648
0.81448
0.73643
0.858562
0.803154
0.807601
0.823647
0.803243
0.825001
0.80291
0.814193
0.799682
0.814678
0.80275
0.715714
0.818433
0.802315
0.776759
0.810532
0.799638
0.818914
0.716722
0.735849
0.825475
0.799762
0.802436
0.820562
0.815976
0.675989
0.806541
0.7239
0.818515
0.813165
0.840296
0.815493
0.763497
0.717981
0.810532
0.809971
0.816029
0.818496
0.807039
0.716528
0.815092
0.799286
0.724405
0.720384
0.823878
0.868115
0.802254
0.800336
0.812969
0.803141
0.802153
0.765791
0.822521
0.820296
0.770548
0.703801
0.758959
0.818138
0.777739
0.843812
0.702604
0.767301
0.800407
0.80795
0.777844
0.801011
0.796136
0.805477
0.80242
0.798034
0.815418
0.814541
0.711909
0.817694
0.814541
0.758067
0.674115
0.678168
0.79817
0.816856
0.813125
0.745498
0.802719
0.559755
0.779201
0.689126
0.764395
0.714437
0.784345
0.608513
0.793135
0.837552
0.646158
0.78225
0.737876
0.844497
0.557829
0.817291
0.800459
0.802959
0.674467
0.801551
0.664277
0.858092
0.545707
0.799912
0.638887
0.872712
0.833801
0.821252
0.745081
0.814855
0.721413
0.827491
0.73729
0.649879
0.803115
0.678599
0.824003
0.801696
0.851289
0.791831
0.702807
0.815766
0.798438
0.743029
0.853081
0.811421
0.849085
0.737393
0.744106
0.771246
0.794371
0.832218
0.834269
0.816889
0.815046
0.670963
0.80464
0.7283
0.803212
0.711209
0.797868
0.795679
0.801533
0.826304
0.764641
0.830941
0.750218
0.826247
0.82045
0.816815
0.853303
0.829494
0.705855
0.827637
0.683969
0.787919
0.810664
0.851457
0.830683
0.80907
0.794544
0.746435
0.818399
0.837132
0.81822
0.716566
0.800455
0.697782
0.792915
0.795536
0.810718
0.640814
0.807648
0.75866
0.797903
0.803112
0.760017
0.816141
0.866006
0.784177
0.690835
0.80446
0.801737
0.648549
0.79307
0.778173
0.802349
0.839287
0.815782
0.61028
0.816142
0.810156
0.797608
0.816386
0.802684
0.815393
0.815068
0.835663
0.757009
0.801894
0.835348
0.810571
0.803151
0.796177
0.815961
0.728228
0.589765
0.817656
0.829657
0.82112
0.80444
0.684898
0.816384
0.816137
0.817405
0.715598
0.79776
0.816054
0.55014
0.802845
0.86934
0.681279
0.75753
0.839116
0.827444
0.81581
0.705945
0.809453
0.816051
0.803846
0.801783
0.812166
0.836978
0.817455
0.76755
0.807057
0.803078
0.647922
0.821722
0.828458
0.673521
0.791737
0.819633
0.820892
0.680486
0.675196
0.822131
0.824719
0.809587
0.733142
0.7082
0.714904
0.734398
0.821033
0.777564
0.804195
0.734266
0.742007
0.823179
0.81098
0.819299
0.770638
0.816139
0.814791
0.818175
0.816805
0.802773
0.807645
0.803989
0.6903
0.802742
0.812881
0.69813
0.807297
0.805144
0.820198
0.785977
0.805976
0.791939
0.815941
0.821713
0.820924
0.798327
0.685304
0.713443
0.799461
0.810914
0.626268
0.803911
0.807626
0.817308
0.744242
0.804287
0.817184
0.812503
0.81863
0.80507
0.797373
0.765323
0.804457
0.843975
0.8202
0.705732
0.803758
0.704723
0.704042
0.803113
0.616396
0.77094
0.78495
0.808059
0.814479
0.825842
0.817929
0.813256
0.820934
0.82884
0.802846
0.765461
0.809792
0.661041
0.819999
0.758059
0.729309
0.691391
0.81493
0.854295
0.820025
0.808913
0.822249
0.816289
0.787036
0.759314
0.81046
0.694308
0.7913
0.843935
0.826628
0.800844
0.864353
0.813422
0.817263
0.818387
0.831075
0.632949
0.799404
0.733183
0.798082
0.734915
0.819595
0.808699
0.78794
0.680918
0.815823
0.830094
0.812858
0.802995
0.803804
0.825024
0.803888
0.71344
0.790401
0.803118
0.815767
0.814803
0.813481
0.871901
0.828431
0.809425
0.832673
0.68384
0.824106
0.838135
0.8171
0.6294
0.81627
0.809274
0.845943
0.8221
0.802962
0.59471
0.810187
0.698451
0.806145
0.802905
0.812373
0.814604
0.825258
0.805106
0.81126
0.816898
0.726378
0.863264
0.802014
0.850598
0.817251
0.578095
0.803931
0.796787
0.812535
0.818503
0.656154
0.80285
0.809686
0.813074
0.807157
0.793961
0.81656
0.818145
0.796965
0.804082
0.822166
0.83729
0.732331
0.806326
0.809853
0.814008
0.683773
0.805328
0.816765
0.799416
0.804191
0.532684
0.833507
0.764819
0.815721
0.818574
0.831451
0.846638
0.81697
0.812602
0.71824
0.799111
0.8527
0.809324
0.711045
0.800328
0.80263
0.87249
0.845757
0.819864
0.802101
0.80972
0.756297
0.816359
0.813994
0.587611
0.802749
0.731643
0.750402
0.80322
0.812357
0.781128
0.821553
0.816232
0.838319
0.816763
0.800536
0.809695
0.738384
0.737967
0.804213
0.808887
0.821759
0.802367
0.751984
0.69129
0.814611
0.815312
0.814054
0.597272
0.814691
0.817292
0.825414
0.80312
0.809395
0.820385
0.811881
0.839963
0.803029
0.812727
0.824337
0.816558
0.818335
0.822072
0.691927
0.784371
0.7955
0.803206
0.848074
0.802093
0.803362
0.636965
0.811466
0.814462
0.810885
0.819863
0.805837
0.814167
0.728068
0.84411
0.70654
0.800577
0.818209
0.807301
0.659867
0.679088
0.815599
0.805736
0.804388
0.786269
0.801569
0.829884
0.814361
0.805049
0.802282
0.813182
0.621432
0.813357
0.803197
0.701865
0.816351
0.624234
0.784923
0.816426
0.838195
0.806773
0.813534
0.793314
0.796231
0.804196
0.801477
0.81302
0.811246
0.809896
0.803284
0.757326
0.804131
0.813593
0.813034
0.816874
0.81254
0.816855
0.815956
0.83468
0.7399
0.806798
0.816593
0.802597
0.546104
0.685695
0.811462
0.814335
0.8162
0.780494
0.808553
0.812993
0.80334
0.799995
0.802878
0.820518
0.821372
0.816026
0.785714
0.808893
0.806532
0.575129
0.774334
0.758239
0.807041
0.736532
0.679836
0.79785
0.767963
0.828363
0.816001
0.815747
0.808435
0.543797
0.815815
0.586146
0.69948
0.825377
0.869989
0.743198
0.817449
0.853301
0.696658
0.816302
0.809096
0.815019
0.807397
0.657916
0.854983
0.7373
0.732177
0.803398
0.804663
0.79974
0.833521
0.816209
0.692685
0.816081
0.800336
0.695352
0.840063
0.798405
0.624228
0.773313
0.816633
0.808768
0.815856
0.784503
0.727376
0.771207
0.837239
0.689839
0.816903
0.81804
0.827612
0.766058
0.822827
0.694131
0.804671
0.66218
0.701879
0.801091
0.82298
0.789386
0.815666
0.816362
0.816221
0.815074
0.580517
0.802614
0.816048
0.744228
0.810153
0.81639
0.812836
0.714491
0.68998
0.742205
0.624075
0.807397
0.683405
0.816624
0.802
0.816036
0.837179
0.687557
0.805125
0.820505
0.8329
0.739693
0.782666
0.764903
0.773792
0.813137
0.578824
0.674922
0.816306
0.805422
0.813094
0.804651
0.714862
0.780999
0.726448
0.760565
0.79989
0.832546
0.812395
0.692454
0.824137
0.818449
0.811912
0.689104
0.690444
0.683601
0.872454
0.81683
0.817422
0.611505
0.712507
0.643099
0.803624
0.800546
0.673298
0.812142
0.824954
0.750692
0.799787
0.73133
0.815143
0.693646
0.815818
0.810587
0.802261
0.803148
0.826023
0.745216
0.816717
0.816043
0.78064
0.560205
0.816578
0.811872
0.758763
0.814963
0.747319
0.80314
0.827
0.665498
0.819004
0.802774
0.81007
0.58709
0.647823
0.736369
0.806487
0.813026
0.811791
0.821843
0.815036
0.816907
0.705568
0.802031
0.814037
0.826924
0.704653
0.728489
0.813281
0.812529
0.697993
0.814497
0.775184
0.70047
0.811999
0.697178
0.805021
0.664024
0.802918
0.729819
0.669282
0.812094
0.786404
0.74531
0.632892
0.840575
0.821186
0.815756
0.771144
0.815281
0.800304
0.786815
0.800173
0.801783
0.815966
0.733757
0.809807
0.800265
0.819627
0.600936
0.801623
0.813791
0.814728
0.812495
0.81303
0.747151
0.803681
0.764499
0.75166
0.819445
0.65045
0.819372
0.81851
0.803144
0.816442
0.817668
0.722888
0.768487
0.822869
0.786135
0.803831
0.816892
0.875346
0.818779
0.799173
0.817736
0.816334
0.79411
0.819348
0.817656
0.7737
0.701424
0.841751
0.797119
0.803237
0.82277
0.781853
0.818722
0.8249
0.819514
0.817801
0.870869
0.803167
0.805081
0.819127
0.803158
0.81639
0.80706
0.737287
0.816303
0.820538
0.753795
0.711307
0.816177
0.843545
0.8225
0.659012
0.822543
0.774084
0.809226
0.802147
0.730961
0.80316
0.798959
0.81565
0.817703
0.696245
0.707323
0.802396
0.787715
0.801878
0.825328
0.721452
0.816034
0.802619
0.800474
0.823891
0.816425
0.715206
0.816611
0.763747
0.802537
0.832755
0.80348
0.774246
0.797979
0.794688
0.816087
0.611687
0.816015
0.692812
0.682811
0.803578
0.820372
0.816049
0.802695
0.816122
0.809101
0.725963
0.787852
0.857552
0.803081
0.833965
0.807528
0.5483
0.762182
0.780849
0.650665
0.739207
0.581842
0.820621
0.81435
0.814639
0.802536
0.766966
0.68655
0.765523
0.752307
0.782353
0.815988
0.845124
0.820214
0.805928
0.819387
0.824226
0.802852
0.807847
0.70727
0.803302
0.75713
0.808777
0.798148
0.752877
0.822951
0.788653
0.803676
0.790711
0.841357
0.728711
0.801088
0.799737
0.80499
0.619144
0.816458
0.816346
0.822064
0.635342
0.816235
0.816218
0.798806
0.803947
0.793392
0.776249
0.80655
0.795443
0.816908
0.75305
0.80463
0.875561
0.763424
0.749143
0.807803
0.784085
0.843114
0.80073
0.780572
0.816188
0.798312
0.792722
0.808157
0.826269
0.836309
0.799827
0.576756
0.821208
0.828874
0.772328
0.831376
0.838713
0.82358
0.826933
0.80737
0.833489
0.827511
0.783913
0.809196
0.812324
0.807165
0.823439
0.80346
0.827439
0.793052
0.803474
0.805848
0.728171
0.807197
0.564177
0.818802
0.826006
0.829264
0.806017
0.818333
0.824619
0.819526
0.821582
0.83933
0.833701
0.788775
0.800528
0.822456
0.816266
0.817831
0.800462
0.806473
0.865906
0.820825
0.847836
0.816008
0.800838
0.82469
0.799855
0.833569
0.814329
0.816092
0.805363
0.728081
0.803005
0.804601
0.816037
0.803389
0.802658
0.822164
0.804706
0.804251
0.778217
0.819815
0.718497
0.814346
0.781257
0.759444
0.803637
0.813382
0.81902
0.717032
0.820123
0.815301
0.82662
0.817908
0.790337
0.817196
0.847499
0.83331
0.815544
0.81182
0.80171
0.744998
0.680652
0.816103
0.820727
0.771827
0.815216
0.807879
0.812682
0.805539
0.798746
0.776408
0.802471
0.800226
0.841897
0.818237
0.811554
0.806369
0.605229
0.732494
0.802224
0.784197
0.80422
0.816541
0.806033
0.816985
0.780078
0.816159
0.804905
0.811596
0.803837
0.818647
0.803195
0.816787
0.811753
0.816708
0.813659
0.718932
0.815263
0.816614
0.599173
0.815934
0.796854
0.802967
0.859146
0.819052
0.811586
0.872776
0.816203
0.816296
0.817706
0.819619
0.816064
0.764611
0.830347
0.8015
0.803217
0.815293
0.816188
0.817594
0.816086
0.814201
0.823012
0.803973
0.8133
0.809149
0.815357
0.820056
0.816114
0.8126
0.820012
0.808953
0.69338
0.661509
0.802688
0.808756
0.803377
0.812125
0.81913
0.817865
0.802937
0.804036
0.800727
0.800944
0.817693
0.844756
0.819338
0.811669
0.819249
0.81897
0.84627
0.818243
0.821226
0.785803
0.816606
0.806818
0.801481
0.79213
0.811527
0.819272
0.815948
0.816056
0.836048
0.80683
0.813677
0.817397
0.821642
0.803537
0.803271
0.805536
0.811808
0.816041
0.801643
0.803761
0.817749
0.822574
0.80095
0.638052
0.804271
0.797432
0.817407
0.798657
0.802755
0.749052
0.841324
0.802754
0.799889
0.835338
0.830327
0.81029
0.826849
0.800599
0.818649
0.818117
0.819477
0.80362
0.819071
0.730085
0.823002
0.811533
0.80025
0.813157
0.821247
0.799167
0.804017
0.783155
0.815202
0.81632
0.816418
0.819267
0.806443
0.817894
0.816655
0.826531
0.82203
0.838179
0.806003
0.69622
0.818693
0.840976
0.820503
0.804677
0.800154
0.803425
0.816916
0.814187
0.816831
0.744065
0.739802
0.800873
0.802961
0.816516
0.817304
0.799499
0.655728
0.709254
0.808036
0.768915
0.816722
0.704036
0.803049
0.728963
0.80319
0.820105
0.803122
0.818106
0.813646
0.798567
0.808642
0.794197
0.829884
0.816441
0.801325
0.803539
0.816651
0.822308
0.750399
0.823196
0.803747
0.783137
0.816325
0.803859
0.810634
0.815608
0.815928
0.835785
0.793453
0.799112
0.816211
0.759631
0.806687
0.815731
0.800999
0.81676
0.841313
0.802331
0.843642
0.809228
0.790913
0.81275
0.802614
0.852135
0.788476
0.803151
0.816851
0.83216
0.808381
0.8146
0.816551
0.802869
0.802687
0.825991
0.783261
0.81515
0.816172
0.648546
0.816362
0.71352
0.817644
0.838684
0.825077
0.804032
0.815461
0.816085
0.726677
0.815674
0.800979
0.801606
0.800953
0.816523
0.864177
0.801309
0.801089
0.78554
0.84112
0.827984
0.820251
0.814011
0.74753
0.804092
0.803313
0.731593
0.799602
0.715279
0.811259
0.800913
0.677617
0.880497
0.703294
0.772184
0.801467
0.744465
0.808373
0.799056
0.803022
0.66173
0.796747
0.78423
0.799126
0.730752
0.81938
0.823074
0.884796
0.809447
0.831494
0.646591
0.80009
0.787421
0.74588
0.752291
0.769997
0.707798
0.803104
0.799448
0.803179
0.764229
0.628961
0.811463
0.615057
0.821635
0.823189
0.811495
0.736888
0.812518
0.796146
0.819691
0.782938
0.807903
0.797135
0.810741
0.717548
0.801538
0.723474
0.801385
0.798896
0.688738
0.803687
0.816019
0.816071
0.803084
0.761894
0.815815
0.731648
0.691808
0.802332
0.816074
0.874727
0.815988
0.815268
0.880829
0.865739
0.831257
0.716776
0.802027
0.81189
0.821481
0.798612
0.683692
0.72351
0.679322
0.802351
0.70276
0.768919
0.799503
0.621396
0.689535
0.83646
0.774308
0.746304
0.830962
0.760038
0.769124
0.650163
0.732496
0.785756
0.820166
0.869797
0.838172
0.816329
0.79519
0.799764
0.717125
0.816222
0.695157
0.796995
0.816065
0.783452
0.763223
0.802205
0.783439
0.802216
0.800813
0.812435
0.811077
0.86745
0.585717
0.544318
0.802433
0.807504
0.6999
0.810143
0.802824
0.837921
0.803482
0.802384
0.570823
0.562889
0.808385
0.81311
0.816152
0.72857
0.803145
0.811019
0.686383
0.812176
0.802709
0.81473
0.803162
0.801012
0.802262
0.815178
0.802937
0.817003
0.803269
0.862413
0.815535
0.802509
0.720821
0.672459
0.816119
0.588985
0.813224
0.810147
0.836293
0.814516
0.80308
0.810744
0.814224
0.813833
0.815849
0.801653
0.854148
0.856836
0.802427
0.658464
0.809052
0.822389
0.799425
0.80316
0.820488
0.73595
0.803228
0.825637
0.82179
0.816301
0.815979
0.767304
0.745213
0.800978
0.834432
0.803006
0.814809
0.804653
0.803868
0.805182
0.814849
0.808973
0.798895
0.806871
0.80617
0.824632
0.80668
0.806274
0.818172
0.806995
0.803353
0.813951
0.802935
0.80283
0.805803
0.807967
0.814083
0.773984
0.805327
0.802688
0.816012
0.799817
0.803754
0.806861
0.832281
0.805029
0.653922
0.800866
0.81603
0.804656
0.814763
0.763558
0.81583
0.751521
0.803662
0.802221
0.804058
0.819022
0.851416
0.804362
0.803241
0.746715
0.830043
0.815973
0.820933
0.824929
0.815338
0.738066
0.818692
0.724301
0.801085
0.828057
0.802426
0.703005
0.82632
0.815255
0.817026
0.824607
0.816312
0.773647
0.817778
0.653282
0.713233
0.816062
0.823117
0.68007
0.819873
0.660179
0.82195
0.806985
0.81731
0.80316
0.805777
0.815423
0.831847
0.825111
0.67202
0.814044
0.842462
0.781697
0.846694
0.800258
0.70865
0.838958
0.820088
0.836017
0.691717
0.687548
0.833366
0.662766
0.831096
0.816063
0.82909
0.806315
0.827395
0.787849
0.825912
0.824542
0.710149
0.865982
0.823369
0.822379
0.823633
0.760139
0.802855
0.530246
0.803849
0.821521
0.814472
0.804789
0.826445
0.81605
0.798205
0.820767
0.802988
0.684844
0.79252
0.834353
0.815387
0.718054
0.799978
0.821591
0.580024
0.815714
0.816494
0.802691
0.809963
0.727995
0.818426
0.803018
0.803486
0.796041
0.794726
0.797986
0.794713
0.803265
0.813447
0.819364
0.815005
0.575555
0.893191
0.708466
0.797933
0.74112
0.791542
0.816023
0.81659
0.816491
0.607155
0.819643
0.817255
0.803987
0.818597
0.836848
0.839668
0.783007
0.79846
0.79952
0.727456
0.753987
0.816206
0.764781
0.815228
0.819775
0.815774
0.813548
0.801941
0.776278
0.812109
0.816974
0.729364
0.810656
0.816771
0.81888
0.807891
0.809536
0.765805
0.815616
0.808264
0.803181
0.807503
0.619287
0.806574
0.804409
0.805992
0.821981
0.845736
0.804784
0.775312
0.805355
0.77175
0.820962
0.806597
0.8138
0.816035
0.850363
0.803418
0.744809
0.819839
0.816206
0.728328
0.801127
0.817108
0.758732
0.813683
0.572355
0.806678
0.686998
0.801433
0.811594
0.813365
0.818043
0.804248
0.816374
0.818477
0.801188
0.804584
0.844635
0.817016
0.796299
0.816943
0.802222
0.801788
0.800435
0.801409
0.807816
0.815618
0.801767
0.771098
0.819184
0.813405
0.808918
0.816043
0.589581
0.80343
0.813725
0.81624
0.788355
0.749552
0.718251
0.813536
0.815886
0.826535
0.790242
0.605658
0.772288
0.643853
0.81758
0.744883
0.813265
0.83046
0.698563
0.79987
0.834358
0.751052
0.800625
0.803168
0.816413
0.802839
0.700108
0.800846
0.553396
0.801942
0.802526
0.802225
0.602642
0.802942
0.803467
0.803199
0.729534
0.738456
0.803444
0.777179
0.816548
0.723278
0.707925
0.815995
0.801373
0.753509
0.854445
0.814861
0.813316
0.671014
0.802825
0.800691
0.800617
0.802507
0.658872
0.803307
0.816241
0.656183
0.6869
0.805898
0.791087
0.81611
0.823602
0.815901
0.816115
0.817272
0.803677
0.816167
0.815829
0.813881
0.829433
0.802673
0.801922
0.810524
0.729247
0.809622
0.815685
0.863062
0.8115
0.640048
0.775705
0.802276
0.776409
0.817527
0.812689
0.830421
0.814249
0.864865
0.802182
0.815477
0.596647
0.815828
0.834244
0.80293
0.815284
0.627267
0.816173
0.802707
0.817485
0.802283
0.818305
0.816815
0.754506
0.803595
0.803135
0.83552
0.862206
0.819743
0.816965
0.724414
0.743281
0.802565
0.803094
0.812223
0.818818
0.799738
0.802922
0.820189
0.807252
0.807596
0.739057
0.802751
0.818229
0.814647
0.768837
0.760392
0.812492
0.796493
0.857343
0.719822
0.835008
0.811774
0.710367
0.799772
0.815333
0.787487
0.800827
0.799765
0.815966
0.778179
0.774457
0.814351
0.696418
0.798875
0.766484
0.815851
0.818079
0.802116
0.788335
0.739705
0.753379
0.774669
0.815604
0.819692
0.806512
0.669036
0.802783
0.796454
0.777912
0.809786
0.813899
0.799622
0.803389
0.638361
0.804225
0.804839
0.851715
0.80374
0.809237
0.833771
0.805514
0.810944
0.852603
0.616581
0.80407
0.817021
0.805444
0.805055
0.80575
0.804613
0.80472
0.804231
0.805839
0.806526
0.725978
0.805735
0.807212
0.807388
0.815926
0.808331
0.819117
0.803117
0.803536
0.815577
0.815723
0.810889
0.803343
0.816275
0.81336
0.810415
0.816873
0.710043
0.814856
0.832007
0.815875
0.854669
0.750554
0.808831
0.816004
0.801095
0.618949
0.803281
0.773052
0.82258
0.628985
0.816486
0.830052
0.815649
0.81249
0.802177
0.827309
0.819685
0.803694
0.765528
0.817887
0.758737
0.551101
0.81537
0.692868
0.696978
0.820446
0.828204
0.828059
0.817508
0.847957
0.582475
0.877114
0.805294
0.826531
0.824889
0.813841
0.684121
0.815859
0.823378
0.817242
0.801299
0.773702
0.822322
0.569298
0.813775
0.843641
0.803161
0.840112
0.822166
0.803264
0.672091
0.843591
0.821133
0.836953
0.80104
0.814508
0.803067
0.834345
0.802883
0.814464
0.831943
0.829821
0.822082
0.824958
0.831009
0.738679
0.665056
0.570681
0.827997
0.826493
0.767823
0.757272
0.807182
0.825083
0.847011
0.595173
0.82382
0.822748
0.821855
0.82036
0.804005
0.820842
0.662253
0.745474
0.82107
0.79767
0.870426
0.890329
0.776741
0.804704
0.670931
0.835697
0.732367
0.721144
0.819197
0.801725
0.783676
0.666063
0.802233
0.816041
0.789025
0.714532
0.801272
0.81722
0.798077
0.681527
0.823917
0.792905
0.816651
0.833817
0.815223
0.7965
0.817063
0.81684
0.785963
0.804091
0.713431
0.840799
0.793167
0.811898
0.782171
0.804486
0.699771
0.800923
0.81356
0.812192
0.811026
0.809512
0.808419
0.807662
0.806039
0.804924
0.806844
0.727458
0.805475
0.801518
0.79598
0.803351
0.844643
0.71759
0.803229
0.776289
0.884171
0.85469
0.798058
0.725542
0.80349
0.797739
0.72076
0.803364
0.801868
0.735969
0.803705
0.790781
0.797578
0.801252
0.738078
0.780618
0.805191
0.748658
0.764597
0.770458
0.801569
0.8156
0.808661
0.759835
0.751647
0.799563
0.814739
0.803336
0.793532
0.801205
0.928672
0.860849
0.818458
0.815917
0.7231
0.844772
0.748432
0.826249
0.816987
0.898302
0.816062
0.79742
0.591293
0.816082
0.797536
0.816106
0.797955
0.845911
0.52773
0.833369
0.801578
0.805747
0.804927
0.803921
0.856181
0.801391
0.81821
0.702671
0.666847
0.667987
0.816139
0.5093
0.797938
0.723426
0.842172
0.814971
0.561197
0.802623
0.815548
0.815246
0.720031
0.801864
0.527887
0.797478
0.816252
0.797599
0.802782
0.797839
0.816398
0.83433
0.803254
0.798543
0.816754
0.798809
0.816893
0.814276
0.799095
0.817052
0.814714
0.817239
0.799208
0.817449
0.680795
0.799404
0.817687
0.803089
0.799596
0.817927
0.699971
0.81606
0.798465
0.816044
0.798581
0.810859
0.838604
0.861664
0.801064
0.800681
0.818828
0.815499
0.800324
0.799948
0.863833
0.812784
0.818513
0.811313
0.850271
0.829152
0.817487
0.825941
0.846686
0.816008
0.801813
0.820024
0.812138
0.802241
0.815878
0.80024
0.808039
0.783258
0.807041
0.816013
0.8111