# vtk DataFile Version 1.0
unstructured grid
ascii
DATASET UNSTRUCTURED_GRID
points 7812 float
-1 0 0
-1 1 0
2 0 0
2 1 0
0 0 0
1 0 0
-1 1 0.1
-1 0 0.1
0 0 0.1
1 0 0.1
2 0 0.1
2 1 0.1
-0.99 0 0
-0.98 0 0
-0.97 0 0
-0.96 0 0
-0.95 0 0
-0.94 0 0
-0.93 0 0
-0.92 0 0
-0.91 0 0
-0.9 0 0
-0.89 0 0
-0.88 0 0
-0.87 0 0
-0.86 0 0
-0.85 0 0
-0.84 0 0
-0.83 0 0
-0.82 0 0
-0.81 0 0
-0.8 0 0
-0.79 0 0
-0.78 0 0
-0.77 0 0
-0.76 0 0
-0.75 0 0
-0.74 0 0
-0.73 0 0
-0.72 0 0
-0.71 0 0
-0.7 0 0
-0.69 0 0
-0.68 0 0
-0.67 0 0
-0.66 0 0
-0.65 0 0
-0.64 0 0
-0.63 0 0
-0.62 0 0
-0.61 0 0
-0.6 0 0
-0.59 0 0
-0.58 0 0
-0.57 0 0
-0.56 0 0
-0.55 0 0
-0.54 0 0
-0.53 0 0
-0.52 0 0
-0.51 0 0
-0.5 0 0
-0.49 0 0
-0.48 0 0
-0.47 0 0
-0.46 0 0
-0.45 0 0
-0.44 0 0
-0.43 0 0
-0.42 0 0
-0.41 0 0
-0.4 0 0
-0.39 0 0
-0.38 0 0
-0.37 0 0
-0.36 0 0
-0.35 0 0
-0.34 0 0
-0.33 0 0
-0.32 0 0
-0.31 0 0
-0.3 0 0
-0.29 0 0
-0.28 0 0
-0.27 0 0
-0.26 0 0
-0.25 0 0
-0.24 0 0
-0.23 0 0
-0.22 0 0
-0.21 0 0
-0.2 0 0
-0.19 0 0
-0.18 0 0
-0.17 0 0
-0.16 0 0
-0.15 0 0
-0.14 0 0
-0.13 0 0
-0.12 0 0
-0.11 0 0
-0.1 0 0
-0.09 0 0
-0.08 0 0
-0.07 0 0
-0.06 0 0
-0.05 0 0
-0.04 0 0
-0.03 0 0
-0.02 0 0
-0.01 0 0
1.01 0 0
1.02 0 0
1.03 0 0
1.04 0 0
1.05 0 0
1.06 0 0
1.07 0 0
1.08 0 0
1.09 0 0
1.1 0 0
1.11 0 0
1.12 0 0
1.13 0 0
1.14 0 0
1.15 0 0
1.16 0 0
1.17 0 0
1.18 0 0
1.19 0 0
1.2 0 0
1.21 0 0
1.22 0 0
1.23 0 0
1.24 0 0
1.25 0 0
1.26 0 0
1.27 0 0
1.28 0 0
1.29 0 0
1.3 0 0
1.31 0 0
1.32 0 0
1.33 0 0
1.34 0 0
1.35 0 0
1.36 0 0
1.37 0 0
1.38 0 0
1.39 0 0
1.4 0 0
1.41 0 0
1.42 0 0
1.43 0 0
1.44 0 0
1.45 0 0
1.46 0 0
1.47 0 0
1.48 0 0
1.49 0 0
1.5 0 0
1.51 0 0
1.52 0 0
1.53 0 0
1.54 0 0
1.55 0 0
1.56 0 0
1.57 0 0
1.58 0 0
1.59 0 0
1.6 0 0
1.61 0 0
1.62 0 0
1.63 0 0
1.64 0 0
1.65 0 0
1.66 0 0
1.67 0 0
1.68 0 0
1.69 0 0
1.7 0 0
1.71 0 0
1.72 0 0
1.73 0 0
1.74 0 0
1.75 0 0
1.76 0 0
1.77 0 0
1.78 0 0
1.79 0 0
1.8 0 0
1.81 0 0
1.82 0 0
1.83 0 0
1.84 0 0
1.85 0 0
1.86 0 0
1.87 0 0
1.88 0 0
1.89 0 0
1.9 0 0
1.91 0 0
1.92 0 0
1.93 0 0
1.94 0 0
1.95 0 0
1.96 0 0
1.97 0 0
1.98 0 0
1.99 0 0
2 0.010289 0
2 0.0215307 0
2 0.0338135 0
2 0.0472336 0
2 0.0618965 0
2 0.0779171 0
2 0.0954213 0
2 0.114546 0
2 0.135442 0
2 0.158274 0
2 0.183219 0
2 0.210474 0
2 0.240253 0
2 0.27279 0
2 0.308339 0
2 0.347181 0
2 0.389619 0
2 0.435987 0
2 0.486649 0
2 0.542002 0
2 0.602481 0
2 0.66856 0
2 0.740758 0
2 0.819642 0
2 0.90583 0
1.9 1 0
1.8 1 0
1.7 1 0
1.6 1 0
1.5 1 0
1.4 1 0
1.3 1 0
1.2 1 0
1.1 1 0
1 1 0
0.9 1 0
0.8 1 0
0.7 1 0
0.6 1 0
0.5 1 0
0.4 1 0
0.3 1 0
0.2 1 0
0.1 1 0
3.69793e-12 1 0
-0.1 1 0
-0.2 1 0
-0.3 1 0
-0.4 1 0
-0.5 1 0
-0.6 1 0
-0.7 1 0
-0.8 1 0
-0.9 1 0
-1 0.90583 0
-1 0.819642 0
-1 0.740758 0
-1 0.66856 0
-1 0.602481 0
-1 0.542002 0
-1 0.486649 0
-1 0.435987 0
-1 0.389619 0
-1 0.347181 0
-1 0.308339 0
-1 0.27279 0
-1 0.240253 0
-1 0.210474 0
-1 0.183219 0
-1 0.158274 0
-1 0.135442 0
-1 0.114546 0
-1 0.0954213 0
-1 0.0779171 0
-1 0.0618965 0
-1 0.0472336 0
-1 0.0338135 0
-1 0.0215307 0
-1 0.010289 0
0.00921362 0.00379763 0
0.0184561 0.00752451 0
0.0277268 0.0111804 0
0.0370253 0.0147652 0
0.0463511 0.0182786 0
0.0557034 0.0217203 0
0.0650819 0.0250903 0
0.074486 0.0283883 0
0.083915 0.0316141 0
0.0933685 0.0347675 0
0.102846 0.0378484 0
0.112347 0.0408565 0
0.12187 0.0437917 0
0.131416 0.0466538 0
0.140983 0.0494427 0
0.150572 0.0521581 0
0.160181 0.0547999 0
0.16981 0.0573681 0
0.179458 0.0598623 0
0.189125 0.0622825 0
0.198811 0.0646285 0
0.208514 0.0669001 0
0.218234 0.0690974 0
0.227971 0.07122 0
0.237724 0.073268 0
0.247493 0.0752411 0
0.257276 0.0771393 0
0.267073 0.0789625 0
0.276884 0.0807105 0
0.286708 0.0823832 0
0.296545 0.0839806 0
0.306394 0.0855025 0
0.316254 0.0869488 0
0.326125 0.0883196 0
0.336006 0.0896146 0
0.345896 0.0908339 0
0.355796 0.0919773 0
0.365704 0.0930447 0
0.375621 0.0940362 0
0.385544 0.0949517 0
0.395474 0.095791 0
0.40541 0.0965542 0
0.415352 0.0972412 0
0.425299 0.097852 0
0.43525 0.0983865 0
0.445205 0.0988447 0
0.455164 0.0992266 0
0.465125 0.0995321 0
0.475088 0.0997613 0
0.485052 0.0999141 0
0.495017 0.0999904 0
0.504983 0.0999904 0
0.514948 0.0999141 0
0.524912 0.0997613 0
0.534875 0.0995321 0
0.544836 0.0992266 0
0.554795 0.0988447 0
0.56475 0.0983865 0
0.574701 0.097852 0
0.584648 0.0972412 0
0.59459 0.0965542 0
0.604526 0.095791 0
0.614456 0.0949517 0
0.624379 0.0940362 0
0.634296 0.0930447 0
0.644204 0.0919773 0
0.654104 0.0908339 0
0.663994 0.0896146 0
0.673875 0.0883196 0
0.683746 0.0869488 0
0.693606 0.0855025 0
0.703455 0.0839806 0
0.713292 0.0823832 0
0.723116 0.0807105 0
0.732927 0.0789625 0
0.742724 0.0771393 0
0.752508 0.0752411 0
0.762276 0.073268 0
0.772029 0.07122 0
0.781766 0.0690974 0
0.791486 0.0669001 0
0.801189 0.0646285 0
0.810875 0.0622825 0
0.820542 0.0598623 0
0.83019 0.0573681 0
0.839819 0.0547999 0
0.849428 0.0521581 0
0.859017 0.0494427 0
0.868584 0.0466538 0
0.87813 0.0437917 0
0.887653 0.0408565 0
0.897154 0.0378484 0
0.906631 0.0347675 0
0.916085 0.0316141 0
0.925514 0.0283883 0
0.934918 0.0250903 0
0.944297 0.0217203 0
0.953649 0.0182786 0
0.962975 0.0147652 0
0.972273 0.0111804 0
0.981544 0.00752451 0
0.990786 0.00379763 0
-1 0.90583 0.1
-1 0.819642 0.1
-1 0.740758 0.1
-1 0.66856 0.1
-1 0.602481 0.1
-1 0.542002 0.1
-1 0.486649 0.1
-1 0.435987 0.1
-1 0.389619 0.1
-1 0.347181 0.1
-1 0.308339 0.1
-1 0.27279 0.1
-1 0.240253 0.1
-1 0.210474 0.1
-1 0.183219 0.1
-1 0.158274 0.1
-1 0.135442 0.1
-1 0.114546 0.1
-1 0.0954213 0.1
-1 0.0779171 0.1
-1 0.0618965 0.1
-1 0.0472336 0.1
-1 0.0338135 0.1
-1 0.0215307 0.1
-1 0.010289 0.1
-0.99 0 0.1
-0.98 0 0.1
-0.97 0 0.1
-0.96 0 0.1
-0.95 0 0.1
-0.94 0 0.1
-0.93 0 0.1
-0.92 0 0.1
-0.91 0 0.1
-0.9 0 0.1
-0.89 0 0.1
-0.88 0 0.1
-0.87 0 0.1
-0.86 0 0.1
-0.85 0 0.1
-0.84 0 0.1
-0.83 0 0.1
-0.82 0 0.1
-0.81 0 0.1
-0.8 0 0.1
-0.79 0 0.1
-0.78 0 0.1
-0.77 0 0.1
-0.76 0 0.1
-0.75 0 0.1
-0.74 0 0.1
-0.73 0 0.1
-0.72 0 0.1
-0.71 0 0.1
-0.7 0 0.1
-0.69 0 0.1
-0.68 0 0.1
-0.67 0 0.1
-0.66 0 0.1
-0.65 0 0.1
-0.64 0 0.1
-0.63 0 0.1
-0.62 0 0.1
-0.61 0 0.1
-0.6 0 0.1
-0.59 0 0.1
-0.58 0 0.1
-0.57 0 0.1
-0.56 0 0.1
-0.55 0 0.1
-0.54 0 0.1
-0.53 0 0.1
-0.52 0 0.1
-0.51 0 0.1
-0.5 0 0.1
-0.49 0 0.1
-0.48 0 0.1
-0.47 0 0.1
-0.46 0 0.1
-0.45 0 0.1
-0.44 0 0.1
-0.43 0 0.1
-0.42 0 0.1
-0.41 0 0.1
-0.4 0 0.1
-0.39 0 0.1
-0.38 0 0.1
-0.37 0 0.1
-0.36 0 0.1
-0.35 0 0.1
-0.34 0 0.1
-0.33 0 0.1
-0.32 0 0.1
-0.31 0 0.1
-0.3 0 0.1
-0.29 0 0.1
-0.28 0 0.1
-0.27 0 0.1
-0.26 0 0.1
-0.25 0 0.1
-0.24 0 0.1
-0.23 0 0.1
-0.22 0 0.1
-0.21 0 0.1
-0.2 0 0.1
-0.19 0 0.1
-0.18 0 0.1
-0.17 0 0.1
-0.16 0 0.1
-0.15 0 0.1
-0.14 0 0.1
-0.13 0 0.1
-0.12 0 0.1
-0.11 0 0.1
-0.1 0 0.1
-0.09 0 0.1
-0.08 0 0.1
-0.07 0 0.1
-0.06 0 0.1
-0.05 0 0.1
-0.04 0 0.1
-0.03 0 0.1
-0.02 0 0.1
-0.01 0 0.1
0.00921362 0.00379763 0.1
0.0184561 0.00752451 0.1
0.0277268 0.0111804 0.1
0.0370253 0.0147652 0.1
0.0463511 0.0182786 0.1
0.0557034 0.0217203 0.1
0.0650819 0.0250903 0.1
0.074486 0.0283883 0.1
0.083915 0.0316141 0.1
0.0933685 0.0347675 0.1
0.102846 0.0378484 0.1
0.112347 0.0408565 0.1
0.12187 0.0437917 0.1
0.131416 0.0466538 0.1
0.140983 0.0494427 0.1
0.150572 0.0521581 0.1
0.160181 0.0547999 0.1
0.16981 0.0573681 0.1
0.179458 0.0598623 0.1
0.189125 0.0622825 0.1
0.198811 0.0646285 0.1
0.208514 0.0669001 0.1
0.218234 0.0690974 0.1
0.227971 0.07122 0.1
0.237724 0.073268 0.1
0.247493 0.0752411 0.1
0.257276 0.0771393 0.1
0.267073 0.0789625 0.1
0.276884 0.0807105 0.1
0.286708 0.0823832 0.1
0.296545 0.0839806 0.1
0.306394 0.0855025 0.1
0.316254 0.0869488 0.1
0.326125 0.0883196 0.1
0.336006 0.0896146 0.1
0.345896 0.0908339 0.1
0.355796 0.0919773 0.1
0.365704 0.0930447 0.1
0.375621 0.0940362 0.1
0.385544 0.0949517 0.1
0.395474 0.095791 0.1
0.40541 0.0965542 0.1
0.415352 0.0972412 0.1
0.425299 0.097852 0.1
0.43525 0.0983865 0.1
0.445205 0.0988447 0.1
0.455164 0.0992266 0.1
0.465125 0.0995321 0.1
0.475088 0.0997613 0.1
0.485052 0.0999141 0.1
0.495017 0.0999904 0.1
0.504983 0.0999904 0.1
0.514948 0.0999141 0.1
0.524912 0.0997613 0.1
0.534875 0.0995321 0.1
0.544836 0.0992266 0.1
0.554795 0.0988447 0.1
0.56475 0.0983865 0.1
0.574701 0.097852 0.1
0.584648 0.0972412 0.1
0.59459 0.0965542 0.1
0.604526 0.095791 0.1
0.614456 0.0949517 0.1
0.624379 0.0940362 0.1
0.634296 0.0930447 0.1
0.644204 0.0919773 0.1
0.654104 0.0908339 0.1
0.663994 0.0896146 0.1
0.673875 0.0883196 0.1
0.683746 0.0869488 0.1
0.693606 0.0855025 0.1
0.703455 0.0839806 0.1
0.713292 0.0823832 0.1
0.723116 0.0807105 0.1
0.732927 0.0789625 0.1
0.742724 0.0771393 0.1
0.752508 0.0752411 0.1
0.762276 0.073268 0.1
0.772029 0.07122 0.1
0.781766 0.0690974 0.1
0.791486 0.0669001 0.1
0.801189 0.0646285 0.1
0.810875 0.0622825 0.1
0.820542 0.0598623 0.1
0.83019 0.0573681 0.1
0.839819 0.0547999 0.1
0.849428 0.0521581 0.1
0.859017 0.0494427 0.1
0.868584 0.0466538 0.1
0.87813 0.0437917 0.1
0.887653 0.0408565 0.1
0.897154 0.0378484 0.1
0.906631 0.0347675 0.1
0.916085 0.0316141 0.1
0.925514 0.0283883 0.1
0.934918 0.0250903 0.1
0.944297 0.0217203 0.1
0.953649 0.0182786 0.1
0.962975 0.0147652 0.1
0.972273 0.0111804 0.1
0.981544 0.00752451 0.1
0.990786 0.00379763 0.1
1.01 0 0.1
1.02 0 0.1
1.03 0 0.1
1.04 0 0.1
1.05 0 0.1
1.06 0 0.1
1.07 0 0.1
1.08 0 0.1
1.09 0 0.1
1.1 0 0.1
1.11 0 0.1
1.12 0 0.1
1.13 0 0.1
1.14 0 0.1
1.15 0 0.1
1.16 0 0.1
1.17 0 0.1
1.18 0 0.1
1.19 0 0.1
1.2 0 0.1
1.21 0 0.1
1.22 0 0.1
1.23 0 0.1
1.24 0 0.1
1.25 0 0.1
1.26 0 0.1
1.27 0 0.1
1.28 0 0.1
1.29 0 0.1
1.3 0 0.1
1.31 0 0.1
1.32 0 0.1
1.33 0 0.1
1.34 0 0.1
1.35 0 0.1
1.36 0 0.1
1.37 0 0.1
1.38 0 0.1
1.39 0 0.1
1.4 0 0.1
1.41 0 0.1
1.42 0 0.1
1.43 0 0.1
1.44 0 0.1
1.45 0 0.1
1.46 0 0.1
1.47 0 0.1
1.48 0 0.1
1.49 0 0.1
1.5 0 0.1
1.51 0 0.1
1.52 0 0.1
1.53 0 0.1
1.54 0 0.1
1.55 0 0.1
1.56 0 0.1
1.57 0 0.1
1.58 0 0.1
1.59 0 0.1
1.6 0 0.1
1.61 0 0.1
1.62 0 0.1
1.63 0 0.1
1.64 0 0.1
1.65 0 0.1
1.66 0 0.1
1.67 0 0.1
1.68 0 0.1
1.69 0 0.1
1.7 0 0.1
1.71 0 0.1
1.72 0 0.1
1.73 0 0.1
1.74 0 0.1
1.75 0 0.1
1.76 0 0.1
1.77 0 0.1
1.78 0 0.1
1.79 0 0.1
1.8 0 0.1
1.81 0 0.1
1.82 0 0.1
1.83 0 0.1
1.84 0 0.1
1.85 0 0.1
1.86 0 0.1
1.87 0 0.1
1.88 0 0.1
[...]
CELL_DATA 7425
SCALARS rho float
LOOKUP_TABLE default
0.587025
0.805025
0.819488
0.827465
0.799364
0.819087
0.820862
0.814052
0.812893
0.738571
0.863462
0.81001
0.813813
0.827321
0.80366
0.81708
0.7987
0.813178
0.80346
0.767212
0.831222
0.822025
0.724719
0.827993
0.803865
0.702872
0.831155
0.848185
0.800152
0.807904
0.819318
0.725542
0.803606
0.651976
0.518999
0.82796
0.803498
0.814028
0.81112
0.827957
0.715857
0.702988
0.789928
0.702403
0.586301
0.748163
0.799248
0.813746
0.661052
0.719318
0.746301
0.805141
0.812337
0.799023
0.709917
0.621258
0.822852
0.800053
0.738441
0.700829
0.709282
0.807645
0.813147
0.79933
0.798761
0.817538
0.584222
0.773226
0.704874
0.80782
0.804133
0.803198
0.883381
0.821098
0.810821
0.812953
0.805037
0.800428
0.813154
0.757726
0.815904
0.807225
0.810203
0.788625
0.835865
0.801042
0.574308
0.829908
0.542302
0.848441
0.707085
0.729676
0.845149
0.803169
0.817328
0.758119
0.835995
0.787991
0.825569
0.802419
0.808024
0.738662
0.803278
0.828188
0.59711
0.811048
0.824316
0.707351
0.814918
0.79911
0.816637
0.784504
0.789747
0.812416
0.78966
0.786286
0.831204
0.8031
0.700272
0.629331
0.805037
0.777212
0.812856
0.790378
0.858902
0.838764
0.807681
0.804221
0.6611
0.503808
0.814396
0.65493
0.514888
0.867584
0.661357
0.799458
0.811083
0.723468
0.581866
0.724672
0.723137
0.809557
0.809556
0.707418
0.803103
0.779575
0.565336
0.78844
0.782533
0.827711
0.816713
0.704165
0.802851
0.744296
0.705325
0.803267
0.810411
0.830356
0.797507
0.65184
0.802488
0.703681
0.801047
0.829689
0.820393
0.802365
0.812976
0.78476
0.806261
0.800593
0.819642
0.804418
0.791108
0.799073
0.799836
0.74
0.80364
0.758625
0.593873
0.707016
0.799625
0.792645
0.879773
0.831795
0.612173
0.822865
0.798579
0.827256
0.799819
0.813321
0.812518
0.803184
0.806928
0.704708
0.814933
0.819191
0.770053
0.797082
0.861015
0.807749
0.811791
0.811079
0.61276
0.838815
0.572884
0.531542
0.595366
0.600212
0.828089
0.879306
0.807513
0.798639
0.841343
0.81288
0.81661
0.820701
0.815126
0.637928
0.548526
0.813643
0.545337
0.592335
0.703557
0.811623
0.813985
0.812953
0.833084
0.81282
0.864097
0.71012
0.835174
0.712444
0.805153
0.803913
0.801942
0.713825
0.720297
0.619426
0.705765
0.863585
0.875268
0.806164
0.807682
0.7988
0.811484
0.715656
0.821543
0.800131
0.825636
0.794601
0.809764
0.721437
0.812721
0.823675
0.739651
0.52833
0.799812
0.736442
0.843252
0.814265
0.726649
0.815502
0.814762
0.849915
0.80943
0.803805
0.803246
0.825593
0.860725
0.805375
0.619186
0.848846
0.811923
0.80559
0.827485
0.837294
0.812905
0.82137
0.793477
0.814995
0.866497
0.849909
0.827274
0.836688
0.802651
0.817088
0.803186
0.759673
0.701101
0.580762
0.701098
0.802279
0.812803
0.815911
0.854608
0.77962
0.64567
0.827023
0.520576
0.774226
0.800922
0.646329
0.494865
0.639026
0.81512
0.81315
0.812878
0.812642
0.826657
0.774399
0.811462
0.802657
0.812816
0.840664
0.866994
0.833506
0.80271
0.706475
0.795837
0.834243
0.691499
0.798688
0.802033
0.864752
0.817028
0.592943
0.813309
0.740373
0.852202
0.731897
0.810026
0.907641
0.799809
0.795579
0.658873
0.635491
0.711864
0.780511
0.826482
0.814857
0.813609
0.882292
0.858064
0.799478
0.799113
0.826006
0.739118
0.802504
0.879359
0.801373
0.804635
0.800643
0.802559
0.812883
0.815645
0.816299
0.636063
0.829924
0.645316
0.808418
0.63918
0.802558
0.802224
0.840217
0.728552
0.816328
0.808499
0.816909
0.79945
0.802487
0.81122
0.696535
0.824446
0.812972
0.812845
0.800671
0.736797
0.559827
0.806401
0.810936
0.803182
0.812805
0.794675
0.502695
0.84595
0.813232
0.80384
0.785671
0.813177
0.804629
0.802986
0.816164
0.807498
0.822446
0.768551
0.812607
0.807755
0.56255
0.803059
0.640037
0.838719
0.636151
0.814622
0.877872
0.592948
0.818044
0.748882
0.804402
0.873316
0.533495
0.823059
0.822195
0.803488
0.825678
0.811022
0.823396
0.830582
0.824776
0.739585
0.827463
0.761661
0.810165
0.794218
0.793573
0.758524
0.805586
0.802081
0.814398
0.752125
0.804666
0.604328
0.614122
0.68885
0.812727
0.844154
0.864804
0.829826
0.798523
0.812554
0.804847
0.81846
0.680428
0.800938
0.742876
0.82401
0.814725
0.805327
0.711972
0.727151
0.533505
0.605521
0.801241
0.611298
0.792521
0.765334
0.769992
0.727144
0.762394
0.767461
0.809356
0.814854
0.819484
0.811381
0.710348
0.601935
0.838985
0.806862
0.783114
0.809767
0.802535
0.836508
0.717988
0.855247
0.763663
0.728182
0.764439
0.811436
0.544841
0.798771
0.84157
0.813247
0.813704
0.809637
0.799108
0.780225
0.835659
0.803101
0.842928
0.721029
0.707567
0.800301
0.795098
0.821958
0.708619
0.847919
0.800364
0.81598
0.798675
0.77914
0.808198
0.594519
0.677355
0.632338
0.812855
0.803769
0.826298
0.749194
0.810583
0.814722
0.820329
0.79892
0.729202
0.796812
0.814229
0.803193
0.702989
0.813511
0.818845
0.839979
0.810695
0.825278
0.862265
0.857241
0.743842
0.603317
0.837994
0.805761
0.843347
0.814149
0.822866
0.813441
0.813723
0.633098
0.805124
0.809245
0.812736
0.791853
0.810545
0.80471
0.860422
0.798607
0.81265
0.814638
0.871893
0.597538
0.813379
0.842346
0.883297
0.530314
0.816333
0.829896
0.796125
0.814732
0.794902
0.867568
0.812149
0.831297
0.812648
0.619267
0.802383
0.804138
0.690683
0.853109
0.759772
0.80179
0.8139
0.812631
0.85961
0.795334
0.83357
0.834672
0.784227
0.825137
0.842279
0.799688
0.810432
0.8069
0.805305
0.814781
0.802626
0.845184
0.769215
0.809767
0.803149
0.815167
0.723058
0.81281
0.818288
0.752547
0.813506
0.816299
0.827503
0.82506
0.800671
0.800623
0.850469
0.767941
0.82507
0.844166
0.804548
0.505439
0.812817
0.828225
0.852357
0.812576
0.803146
0.808511
0.855016
0.780072
0.802577
0.801193
0.812852
0.726996
0.802685
0.829963
0.807956
0.794955
0.793452
0.843157
0.806597
0.845286
0.802016
0.824193
0.812688
0.804209
0.84182
0.812786
0.679322
0.818715
0.807089
0.81276
0.906132
0.800775
0.815838
0.800455
0.800364
0.816136
0.80047
0.803351
0.783727
0.747323
0.806438
0.812814
0.757965
0.791344
0.822966
0.813005
0.822199
0.806286
0.825718
0.875282
0.830598
0.574572
0.708746
0.840711
0.817223
0.844119
0.814693
0.850069
0.807281
0.812357
0.799304
0.838367
0.8609
0.852756
0.731449
0.814015
0.822122
0.743996
0.817042
0.7759
0.800193
0.733003
0.815998
0.830816
0.823447
0.861749
0.814144
0.813222
0.810116
0.814574
0.835753
0.812188
0.798616
0.810221
0.737476
0.811269
0.774183
0.832796
0.812707
0.638725
0.77761
0.811092
0.799136
0.819767
0.802428
0.814607
0.817235
0.804423
0.819338
0.804156
0.805795
0.597078
0.847005
0.825078
0.826651
0.814864
0.803215
0.701781
0.806428
0.907823
0.813519
0.800981
0.812812
0.782254
0.8072
0.813215
0.821229
0.814624
0.813151
0.816174
0.702209
0.777795
0.764523
0.812585
0.805286
0.800977
0.621246
0.80566
0.802588
0.708118
0.837142
0.817136
0.802162
0.807404
0.799365
0.817188
0.813889
0.813213
0.812797
0.709625
0.831653
0.800268
0.807354
0.842752
0.817564
0.81623
0.800137
0.753637
0.823785
0.787362
0.821378
0.789392
0.805581
0.820896
0.737503
0.817348
0.650296
0.872003
0.704266
0.844968
0.800747
0.875137
0.793659
0.801654
0.820614
0.836173
0.838379
0.825422
0.81977
0.814647
0.801078
0.804169
0.80822
0.725605
0.827207
0.800075
0.719713
0.830492
0.706627
0.799953
0.860308
0.80557
0.70125
0.797827
0.814017
0.705116
0.785653
0.819326
0.831819
0.8069
0.572635
0.728506
0.812371
0.801276
0.812847
0.80063
0.737167
0.813946
0.815652
0.812414
0.775317
0.803259
0.804483
0.80352
0.560322
0.812634
0.834075
0.579627
0.815099
0.816039
0.81463
0.818301
0.814354
0.824486
0.799032
0.795108
0.771034
0.822866
0.829636
0.825076
0.834815
0.7653
0.808934
0.724279
0.772353
0.808751
0.821017
0.813212
0.800965
0.858199
0.812851
0.800279
0.809525
0.816033
0.815123
0.836587
0.814426
0.812732
0.811969
0.813749
0.800091
0.820939
0.803757
0.822775
0.813395
0.57536
0.813443
0.834419
0.857984
0.838149
0.490479
0.816746
0.804483
0.496331
0.669232
0.642943
0.834257
0.807933
0.811639
0.812726
0.803202
0.816687
0.810928
0.534397
0.686337
0.818211
0.806616
0.815551
0.803501
0.810221
0.810836
0.820183
0.79948
0.692104
0.855835
0.803148
0.814702
0.813554
0.75773
0.485412
0.832848
0.813509
0.742015
0.802699
0.806153
0.590694
0.827484
0.814718
0.827671
0.818722
0.825922
0.804721
0.719269
0.643476
0.561941
0.825265
0.808461
0.782975
0.812896
0.779741
0.817829
0.873292
0.762321
0.821554
0.813459
0.825787
0.883544
0.814375
0.811764
0.803253
0.813853
0.691614
0.828159
0.799843
0.810109
0.802194
0.784227
0.854128
0.821987
0.840451
0.821468
0.757601
0.755862
0.803259
0.818044
0.80306
0.805235
0.802574
0.775593
0.814618
0.761519
0.821088
0.661983
0.813905
0.802949
0.735779
0.823218
0.817925
0.739937
0.801152
0.757161
0.880543
0.800715
0.812762
0.762627
0.800035
0.814204
0.803941
0.589743
0.820898
0.798617
0.801291
0.814458
0.825563
0.757069
0.805472
0.841552
0.826876
0.814068
0.835794
0.701171
0.700078
0.812847
0.744107
0.822163
0.771324
0.812754
0.802508
0.810355
0.751905
0.794181
0.764271
0.809825
0.80314
0.631109
0.778976
0.799227
0.848928
0.8143
0.828601
0.526252
0.825315
0.7851
0.858705
0.800932
0.817948
0.800232
0.785737
0.798698
0.825663
0.835731
0.821722
0.817058
0.707073
0.773778
0.815303
0.80537
0.809901
0.803899
0.70706
0.792784
0.803434
0.810596
0.827118
0.851182
0.831804
0.813393
0.79938
0.804188
0.80199
0.779602
0.611501
0.80027
0.731197
0.661815
0.822753
0.798798
0.777271
0.79993
0.75411
0.785273
0.811377
0.822129
0.803293
0.815945
0.817303
0.820623
0.813316
0.80843
0.712087
0.69932
0.640816
0.829229
0.869542
0.815325
0.841306
0.847802
0.863713
0.735556
0.816532
0.862985
0.810139
0.812791
0.816145
0.732708
0.81236
0.806597
0.806136
0.51702
0.812887
0.761126
0.813083
0.813768
0.803534
0.705678
0.813124
0.610501
0.824986
0.802236
0.822202
0.855131
0.803422
0.795353
0.820875
0.811508
0.805677
0.762202
0.50954
0.820839
0.803073
0.828861
0.825709
0.80204
0.807012
0.834426
0.720738
0.500098
0.886243
0.800532
0.815622
0.804312
0.710572
0.798579
0.799954
0.814995
0.735953
0.646412
0.88323
0.714075
0.836504
0.811911
0.832841
0.842622
0.792117
0.804735
0.813523
0.852751
0.738258
0.870681
0.813944
0.562661
0.802401
0.748949
0.852878
0.760224
0.804207
0.803945
0.799582
0.801568
0.808806
0.812826
0.855467
0.80593
0.802862
0.801304
0.799956
0.812159
0.816808
0.802612
0.812403
0.84917
0.803094
0.7834
0.802228
0.839515
0.724864
0.813554
0.813754
0.6362
0.713023
0.805529
0.822968
0.803494
0.511445
0.856234
0.813142
0.832924
0.805294
0.803307
0.801319
0.786187
0.58706
0.804279
0.816034
0.835956
0.820505
0.812869
0.798101
0.746847
0.801553
0.765701
0.787509
0.79928
0.790941
0.751065
0.800793
0.811394
0.810296
0.83216
0.848983
0.553055
0.841861
0.812761
0.82083
0.801956
0.822638
0.810994
0.894597
0.800191
0.866999
0.805672
0.759698
0.862096
0.802268
0.800233
0.824106
0.660303
0.645189
0.803387
0.803844
0.705392
0.654208
0.799891
0.823795
0.81295
0.82253
0.732852
0.817138
0.812763
0.826077
0.81689
0.811927
0.812781
0.754525
0.803839
0.815611
0.811248
0.676137
0.566284
0.812818
0.649909
0.72186
0.55494
0.841354
0.80007
0.526654
0.600642
0.827475
0.908055
0.818082
0.652217
0.814087
0.786382
0.80167
0.786334
0.820583
0.810043
0.788256
0.820996
0.800947
0.58751
0.81776
0.766612
0.815863
0.701094
0.822162
0.789585
0.813877
0.799992
0.662777
0.843479
0.806505
0.806552
0.493231
0.816766
0.800333
0.852073
0.711418
0.81702
0.583541
0.718733
0.801356
0.796614
0.732601
0.715436
0.716104
0.506658
0.588853
0.799929
0.517197
0.822541
0.51978
0.757134
0.671084
0.598712
0.540302
0.745371
0.803077
0.715344
0.821236
0.800902
0.8029
0.761137
0.88966
0.798989
0.824425
0.803418
0.812706
0.705884
0.807511
0.736632
0.821851
0.886018
0.833529
0.747647
0.822731
0.770434
0.879881
0.804186
0.758609
0.850647
0.776805
0.799917
0.805227
0.758176
0.744499
0.664887
0.804974
0.803017
0.817846
0.833442
0.611378
0.807848
0.537857
0.6685
0.615994
0.818446
0.820982
0.808925
0.803966
0.615569
0.872436
0.802672
0.802941
0.863486
0.812342
0.771976
0.812078
0.802359
0.817837
0.803141
0.716969
0.803323
0.655063
0.798952
0.804038
0.801529
0.639068
0.811477
0.810259
0.725613
0.817734
0.548923
0.576544
0.804134
0.6964
0.725877
0.571949
0.723504
0.813547
0.707794
0.772934
0.716771
0.81276
0.670105
0.762051
0.806418
0.810537
0.654354
0.801933
0.895139
0.796677
0.816729
0.584893
0.693717
0.800872
0.812862
0.813936
0.851625
0.812566
0.804239
0.803715
0.80333
0.713707
0.717607
0.615494
0.771405
0.532416
0.724007
0.809846
0.814338
0.806068
0.799207
0.534973
0.808993
0.803748
0.553765
0.543052
0.746534
0.803563
0.806118
0.549149
0.798178
0.569422
0.720309
0.607641
0.813491
0.80221
0.596898
0.608164
0.867868
0.810002
0.765353
0.717745
0.621422
0.65523
0.709979
0.815946
0.75972
0.765505
0.623891
0.753802
0.809239
0.815296
0.812371
0.815402
0.865495
0.754614
0.818868
0.803318
0.851245
0.812774
0.802766
0.812999
0.722675
0.812883
0.811925
0.815117
0.811084
0.815826
0.803264
0.817861
0.810317
0.809668
0.817201
0.800102
0.816528
0.818887
0.667375
0.818543
0.868386
0.818102
0.792906
0.645808
0.858547
0.818723
0.824829
0.799486
0.811127
0.757506
0.852507
0.558748
0.726491
0.809846
0.815596
0.803864
0.803353
0.831996
0.804962
0.805163
0.815191
0.780664
0.838505
0.841903
0.815151
0.664218
0.611849
0.815695
0.816553
0.788237
0.849589
0.84722
0.810779
0.813561
0.777698
0.814014
0.817766
0.814038
0.81871
0.813026
0.815752
0.851004
0.815898
0.814433
0.817485
0.8177
0.784862
0.81405
0.803992
0.804062
0.804561
0.818502
0.811399
0.788292
0.753989
0.81259
0.806264
0.808703
0.806363
0.857739
0.803297
0.813922
0.81261
0.805142
0.55726
0.803875
0.812653
0.814946
0.810295
0.812696
0.813218
0.812938
0.810161
0.864363
0.501205
0.812726
0.841617
0.812563
0.802946
0.808386
0.814924
0.83963
0.80039
0.801149
0.812562
0.706448
0.812743
0.808164
0.807286
0.812469
0.812796
0.81294
0.813274
0.511478
0.811843
0.715591
0.885821
0.820994
0.733468
0.670819
0.815287
0.803447
0.818658
0.646386
0.80163
0.813246
0.647875
0.799794
0.804077
0.815359
0.806225
0.856701
0.809834
0.606796
0.800784
0.775174
0.811196
0.889052
0.80323
0.815494
0.819268
0.832163
0.813312
0.822334
0.836292
0.634855
0.80257
0.655675
0.813662
0.813562
0.712627
0.813447
0.804753
0.713193
0.814857
0.701055
0.861038
0.784035
0.814215
0.812799
0.813342
0.667749
0.813568
0.633191
0.800152
0.792342
0.822229
0.815102
0.715897
0.766688
0.829991
0.812666
0.821251
0.821837
0.81335
0.825268
0.799445
0.551915
0.754913
0.759132
0.731496
0.837554
0.822277
0.834295
0.775953
0.802752
0.812935
0.812856
0.81286
0.774592
0.563648
0.803195
0.528203
0.808144
0.824198
0.799644
0.803748
0.812885
0.805996
0.782556
0.732137
0.813298
0.85911
0.813639
0.799236
0.73695
0.809531
0.788691
0.833674
0.503481
0.795958
0.80583
0.798816
0.688751
0.81275
0.810686
0.85696
0.568916
0.807316
0.803262
0.812734
0.612255
0.812995
0.803326
0.803393
0.803018
0.813107
0.813206
0.816028
0.812945
0.717997
0.804487
0.803193
0.812893
0.896143
0.813053
0.773922
0.841082
0.799167
0.803127
0.601201
0.812786
0.803349
0.82558
0.801947
0.866188
0.814762
0.853315
0.800282
0.820561
0.777839
0.558107
0.752614
0.794176
0.803861
0.813918
0.813716
0.55532
0.861749
0.857808
0.768392
0.757642
0.738496
0.811989
0.848328
0.812825
0.813658
0.812859
0.804261
0.726769
0.80349
0.799051
0.764223
0.824191
0.822923
0.861807
0.815566
0.812871
0.523719
0.808871
0.81283
0.80066
0.773911
0.818047
0.803105
0.812786
0.826814
0.798427
0.803541
0.801181
0.815102
0.839059
0.802313
0.79911
0.80143
0.766096
0.819785
0.566903
0.868345
0.803675
0.545552
0.803109
0.80307
0.819494
0.591096
0.606012
0.801504
0.803573
0.800794
0.860694
0.779876
0.814552
0.802926
0.865613
0.8047
0.804438
0.826259
0.815868
0.820019
0.821195
0.820243
0.867445
0.729189
0.852105
0.817111
0.653564
0.802496
0.803172
0.803624
0.821037
0.823426
0.803926
0.801035
0.799997
0.822594
0.803154
0.803591
0.799605
0.824303
0.803959
0.801967
0.80606
0.827789
0.800478
0.801474
0.824188
0.799533
0.815285
0.65116
0.826308
0.849792
0.80483
0.819484
0.803215
0.828669
0.837426
0.803387
0.82139
0.80049
0.806914
0.789529
0.802132
0.803114
0.80634
0.805859
0.804456
0.818454
0.814647
0.811212
0.831332
0.80212
0.802202
0.799848
0.788983
0.833715
0.803129
0.819212
0.815109
0.80707
0.804985
0.802942
0.83884
0.864625
0.799515
0.678851
0.801146
0.842084
0.816496
0.805061
0.80445
0.819649
0.844534
0.601052
0.828675
0.794425
0.850263
0.818638
0.811966
0.813233
0.808169
0.803941
0.812736
0.808725
0.591708
0.847922
0.794557
0.814075
0.854532
0.819185
0.763119
0.808593
0.814347
0.815366
0.802945
0.661584
0.809133
0.863104
0.802517
0.800664
0.775339
0.871178
0.800393
0.877032
0.806626
0.817067
0.820521
0.802158
0.803774
0.81249
0.815781
0.803406
0.813214
0.816639
0.881316
0.820653
0.809275
0.800074
0.828337
0.810457
0.838763
0.808759
0.806923
0.812046
0.816447
0.829841
0.81355
0.822449
0.832449
0.81409
0.699504
0.690474
0.812929
0.817646
0.803743
0.81301
0.513679
0.854824
0.79971
0.806207
0.813828
0.813372
0.803941
0.812365
0.800422
0.801163
0.807968
0.814657
0.756798
0.784582
0.822852
0.842583
0.834741
0.800201
0.804997
0.803344
0.812884
0.805657
0.799465
0.799738
0.800968
0.81084
0.797781
0.802686
0.835418
0.831237
0.729686
0.6613
0.80755
0.698356
0.799433
0.571715
0.804388
0.80689
0.803047
0.818065
0.833685
0.813812
0.812738
0.810239
0.803825
0.881485
0.816163
0.804733
0.772204
0.585469
0.810215
0.806557
0.769304
0.814305
0.81376
0.791437
0.800679
0.804013
0.623841
0.830379
0.80349
0.781412
0.779258
0.852657
0.809966
0.80282
0.802537
0.810132
0.81103
0.518357
0.801745
0.83942
0.813811
0.798542
0.588537
0.814471
0.813956
0.812825
0.833653
0.813803
0.803902
0.821798
0.805514
0.575629
0.808601
0.736411
0.798479
0.813518
0.722114
0.814816
0.845891
0.831558
0.664384
0.890873
0.785546
0.777335
0.796844
0.779493
0.808564
0.849861
0.807912
0.802841
0.813431
0.808753
0.782569
0.785886
0.813768
0.808248
0.834786
0.82118
0.83562
0.801205
0.799605
0.812923
0.856557
0.816371
0.818278
0.813226
0.607214
0.795493
0.823803
0.829279
0.86585
0.812478
0.81886
0.508384
0.809632
0.800539
0.812491
0.81465
0.847524
0.812928
0.811062
0.881463
0.764467
0.812509
0.813116
0.808915
0.805188
0.814112
0.655805
0.800474
0.849467
0.833453
0.810518
0.813457
0.813246
0.809542
0.698743
0.812392
0.800105
0.838495
0.818373
0.811517
0.831249
0.792636
0.811445
0.817712
0.808724
0.819187
0.744142
0.854633
0.818862
0.813692
0.812931
0.812578
0.81561
0.817052
0.812624
0.81068
0.841005
0.818492
0.800097
0.825225
0.826865
0.815951
0.814415
0.800309
0.801473
0.81292
0.818922
0.829345
0.81267
0.816351
0.799768
0.809852
0.812707
0.812674
0.802483
0.814549
0.813206
0.803215
0.81273
0.835579
0.8
0.809323
0.821435
0.559764
0.814096
0.818061
0.815416
0.814899
0.82187
0.828743
0.815511
0.818732
0.701349
0.812932
0.801293
0.815504
0.818907
0.835003
0.821466
0.815469
0.829283
0.824847
0.810549
0.819151
0.819436
0.804123
0.81303
0.815491
0.819392
0.832029
0.812504
0.815585
0.802704
0.812803
0.812924
0.522243
0.627445
0.814315
0.82134
0.801682
0.822375
0.815794
0.841796
0.708034
0.813623
0.730345
0.81731
0.810204
0.813035
0.82927
0.813534
0.804798
0.812789
0.830006
0.839195
0.812671
0.719114
0.819209
0.81592
0.79987
0.80302
0.815196
0.855869
0.81252
0.813247
0.849635
0.828925
0.843206
0.573113
0.829022
0.813823
0.810785
0.817291
0.850402
0.817656
0.71832
0.799487
0.83169
0.799712
0.799677
0.805356
0.747765
0.813272
0.814229
0.725317
0.81424
0.82727
0.813192
0.813915
0.799165
0.81827
0.812854
0.823451
0.808676
0.808105
0.814862
0.705286
0.81897
0.813963
0.812839
0.639725
0.718827
0.599236
0.823204
0.529181
0.853708
0.727251
0.842728
0.812401
0.72255
0.821338
0.815772
0.742483
0.807622
0.818246
0.794388
0.816413
0.815749
0.815679
0.812855
0.807774
0.803649
0.737224
0.836038
0.820066
0.816499
0.799175
0.815367
0.801937
0.815893
0.813337
0.854505
0.817665
0.496654
0.813192
0.818682
0.818555
0.778014
0.815679
0.806701
0.818511
0.84525
0.596276
0.809037
0.799246
0.815204
0.817511
0.817581
0.812323
0.818492
0.813745
0.814468
0.80306
0.814165
0.84604
0.813817
0.79198
0.811371
0.622403
0.718752
0.812933
0.816883
0.802906
0.8222
0.735428
0.803144
0.803179
0.8201
0.618501
0.817484
0.799294
0.815299
0.864543
0.785453
0.821845
0.817867
0.822683
0.813897
0.769546
0.802408
0.813442
0.902274
0.827097
0.816313
0.832143
0.809481
0.868076
0.719419
0.685548
0.852237
0.802692
0.658675
0.850202