# vtk DataFile Version 1.0
unstructured grid
ascii
DATASET UNSTRUCTURED_GRID
points 3920 float
-1 0 0
-1 1 0
2 0 0
2 1 0
0 0 0
1 0 0
-1 1 0.1
-1 0 0.1
0 0 0.1
1 0 0.1
2 0 0.1
2 1 0.1
-0.98 0 0
-0.96 0 0
-0.94 0 0
-0.92 0 0
-0.9 0 0
-0.88 0 0
-0.86 0 0
-0.84 0 0
-0.82 0 0
-0.8 0 0
-0.78 0 0
-0.76 0 0
-0.74 0 0
-0.72 0 0
-0.7 0 0
-0.68 0 0
-0.66 0 0
-0.64 0 0
-0.62 0 0
-0.6 0 0
-0.58 0 0
-0.56 0 0
-0.54 0 0
-0.52 0 0
-0.5 0 0
-0.48 0 0
-0.46 0 0
-0.44 0 0
-0.42 0 0
-0.4 0 0
-0.38 0 0
-0.36 0 0
-0.34 0 0
-0.32 0 0
-0.3 0 0
-0.28 0 0
-0.26 0 0
-0.24 0 0
-0.22 0 0
-0.2 0 0
-0.18 0 0
-0.16 0 0
-0.14 0 0
-0.12 0 0
-0.1 0 0
-0.08 0 0
-0.06 0 0
-0.04 0 0
-0.02 0 0
1.02 0 0
1.04 0 0
1.06 0 0
1.08 0 0
1.1 0 0
1.12 0 0
1.14 0 0
1.16 0 0
1.18 0 0
1.2 0 0
1.22 0 0
1.24 0 0
1.26 0 0
1.28 0 0
1.3 0 0
1.32 0 0
1.34 0 0
1.36 0 0
1.38 0 0
1.4 0 0
1.42 0 0
1.44 0 0
1.46 0 0
1.48 0 0
1.5 0 0
1.52 0 0
1.54 0 0
1.56 0 0
1.58 0 0
1.6 0 0
1.62 0 0
1.64 0 0
1.66 0 0
1.68 0 0
1.7 0 0
1.72 0 0
1.74 0 0
1.76 0 0
1.78 0 0
1.8 0 0
1.82 0 0
1.84 0 0
1.86 0 0
1.88 0 0
1.9 0 0
1.92 0 0
1.94 0 0
1.96 0 0
1.98 0 0
2 0.0199133 0
2 0.0414128 0
2 0.0646247 0
2 0.0896856 0
2 0.116743 0
2 0.145955 0
2 0.177494 0
2 0.211545 0
2 0.248309 0
2 0.288001 0
2 0.330854 0
2 0.377121 0
2 0.427073 0
2 0.481004 0
2 0.539231 0
2 0.602096 0
2 0.669968 0
2 0.743247 0
2 0.822362 0
2 0.907779 0
1.9 1 0
1.8 1 0
1.7 1 0
1.6 1 0
1.5 1 0
1.4 1 0
1.3 1 0
1.2 1 0
1.1 1 0
1 1 0
0.9 1 0
0.8 1 0
0.7 1 0
0.6 1 0
0.5 1 0
0.4 1 0
0.3 1 0
0.2 1 0
0.1 1 0
3.69793e-12 1 0
-0.1 1 0
-0.2 1 0
-0.3 1 0
-0.4 1 0
-0.5 1 0
-0.6 1 0
-0.7 1 0
-0.8 1 0
-0.9 1 0
-1 0.907779 0
-1 0.822362 0
-1 0.743247 0
-1 0.669968 0
-1 0.602096 0
-1 0.539231 0
-1 0.481004 0
-1 0.427073 0
-1 0.377121 0
-1 0.330854 0
-1 0.288001 0
-1 0.248309 0
-1 0.211545 0
-1 0.177494 0
-1 0.145955 0
-1 0.116743 0
-1 0.0896856 0
-1 0.0646247 0
-1 0.0414128 0
-1 0.0199133 0
0.0182781 0.00745351 0
0.0366672 0.0146286 0
0.0551632 0.0215237 0
0.0737617 0.0281372 0
0.0924585 0.0344675 0
0.111249 0.0405131 0
0.13013 0.0462728 0
0.149095 0.0517451 0
0.168142 0.0569289 0
0.187265 0.0618228 0
0.20646 0.0664258 0
0.225723 0.0707368 0
0.245049 0.0747549 0
0.264434 0.078479 0
0.283873 0.0819084 0
0.303362 0.0850422 0
0.322896 0.0878798 0
0.342472 0.0904204 0
0.362083 0.0926635 0
0.381726 0.0946086 0
0.401397 0.0962552 0
0.42109 0.0976029 0
0.440802 0.0986514 0
0.460527 0.0994006 0
0.480261 0.0998501 0
0.5 0.1 0
0.519739 0.0998501 0
0.539473 0.0994006 0
0.559198 0.0986514 0
0.57891 0.0976029 0
0.598603 0.0962552 0
0.618274 0.0946086 0
0.637917 0.0926635 0
0.657528 0.0904204 0
0.677104 0.0878798 0
0.696638 0.0850422 0
0.716127 0.0819084 0
0.735566 0.078479 0
0.754951 0.0747549 0
0.774277 0.0707368 0
0.79354 0.0664258 0
0.812735 0.0618228 0
0.831858 0.0569289 0
0.850905 0.0517451 0
0.86987 0.0462728 0
0.888751 0.0405131 0
0.907542 0.0344675 0
0.926238 0.0281372 0
0.944837 0.0215237 0
0.963333 0.0146286 0
0.981722 0.00745351 0
-1 0.907779 0.1
-1 0.822362 0.1
-1 0.743247 0.1
-1 0.669968 0.1
-1 0.602096 0.1
-1 0.539231 0.1
-1 0.481004 0.1
-1 0.427073 0.1
-1 0.377121 0.1
-1 0.330854 0.1
-1 0.288001 0.1
-1 0.248309 0.1
-1 0.211545 0.1
-1 0.177494 0.1
-1 0.145955 0.1
-1 0.116743 0.1
-1 0.0896856 0.1
-1 0.0646247 0.1
-1 0.0414128 0.1
-1 0.0199133 0.1
-0.98 0 0.1
-0.96 0 0.1
-0.94 0 0.1
-0.92 0 0.1
-0.9 0 0.1
-0.88 0 0.1
-0.86 0 0.1
-0.84 0 0.1
-0.82 0 0.1
-0.8 0 0.1
-0.78 0 0.1
-0.76 0 0.1
-0.74 0 0.1
-0.72 0 0.1
-0.7 0 0.1
-0.68 0 0.1
-0.66 0 0.1
-0.64 0 0.1
-0.62 0 0.1
-0.6 0 0.1
-0.58 0 0.1
-0.56 0 0.1
-0.54 0 0.1
-0.52 0 0.1
-0.5 0 0.1
-0.48 0 0.1
-0.46 0 0.1
-0.44 0 0.1
-0.42 0 0.1
-0.4 0 0.1
-0.38 0 0.1
-0.36 0 0.1
-0.34 0 0.1
-0.32 0 0.1
-0.3 0 0.1
-0.28 0 0.1
-0.26 0 0.1
-0.24 0 0.1
-0.22 0 0.1
-0.2 0 0.1
-0.18 0 0.1
-0.16 0 0.1
-0.14 0 0.1
-0.12 0 0.1
-0.1 0 0.1
-0.08 0 0.1
-0.06 0 0.1
-0.04 0 0.1
-0.02 0 0.1
0.0182781 0.00745351 0.1
0.0366672 0.0146286 0.1
0.0551632 0.0215237 0.1
0.0737617 0.0281372 0.1
0.0924585 0.0344675 0.1
0.111249 0.0405131 0.1
0.13013 0.0462728 0.1
0.149095 0.0517451 0.1
0.168142 0.0569289 0.1
0.187265 0.0618228 0.1
0.20646 0.0664258 0.1
0.225723 0.0707368 0.1
0.245049 0.0747549 0.1
0.264434 0.078479 0.1
0.283873 0.0819084 0.1
0.303362 0.0850422 0.1
0.322896 0.0878798 0.1
0.342472 0.0904204 0.1
0.362083 0.0926635 0.1
0.381726 0.0946086 0.1
0.401397 0.0962552 0.1
0.42109 0.0976029 0.1
0.440802 0.0986514 0.1
0.460527 0.0994006 0.1
0.480261 0.0998501 0.1
0.5 0.1 0.1
0.519739 0.0998501 0.1
0.539473 0.0994006 0.1
0.559198 0.0986514 0.1
0.57891 0.0976029 0.1
0.598603 0.0962552 0.1
0.618274 0.0946086 0.1
0.637917 0.0926635 0.1
0.657528 0.0904204 0.1
0.677104 0.0878798 0.1
0.696638 0.0850422 0.1
0.716127 0.0819084 0.1
0.735566 0.078479 0.1
0.754951 0.0747549 0.1
0.774277 0.0707368 0.1
0.79354 0.0664258 0.1
0.812735 0.0618228 0.1
0.831858 0.0569289 0.1
0.850905 0.0517451 0.1
0.86987 0.0462728 0.1
0.888751 0.0405131 0.1
0.907542 0.0344675 0.1
0.926238 0.0281372 0.1
0.944837 0.0215237 0.1
0.963333 0.0146286 0.1
0.981722 0.00745351 0.1
1.02 0 0.1
1.04 0 0.1
1.06 0 0.1
1.08 0 0.1
1.1 0 0.1
1.12 0 0.1
1.14 0 0.1
1.16 0 0.1
1.18 0 0.1
1.2 0 0.1
1.22 0 0.1
1.24 0 0.1
1.26 0 0.1
1.28 0 0.1
1.3 0 0.1
1.32 0 0.1
1.34 0 0.1
1.36 0 0.1
1.38 0 0.1
1.4 0 0.1
1.42 0 0.1
1.44 0 0.1
1.46 0 0.1
1.48 0 0.1
1.5 0 0.1
1.52 0 0.1
1.54 0 0.1
1.56 0 0.1
1.58 0 0.1
1.6 0 0.1
1.62 0 0.1
1.64 0 0.1
1.66 0 0.1
1.68 0 0.1
1.7 0 0.1
1.72 0 0.1
1.74 0 0.1
1.76 0 0.1
1.78 0 0.1
1.8 0 0.1
1.82 0 0.1
1.84 0 0.1
1.86 0 0.1
1.88 0 0.1
1.9 0 0.1
1.92 0 0.1
1.94 0 0.1
1.96 0 0.1
1.98 0 0.1
2 0.0199133 0.1
2 0.0414128 0.1
2 0.0646247 0.1
2 0.0896856 0.1
2 0.116743 0.1
2 0.145955 0.1
2 0.177494 0.1
2 0.211545 0.1
2 0.248309 0.1
2 0.288001 0.1
2 0.330854 0.1
2 0.377121 0.1
2 0.427073 0.1
2 0.481004 0.1
2 0.539231 0.1
2 0.602096 0.1
2 0.669968 0.1
2 0.743247 0.1
2 0.822362 0.1
2 0.907779 0.1
1.9 1 0.1
1.8 1 0.1
1.7 1 0.1
1.6 1 0.1
1.5 1 0.1
1.4 1 0.1
1.3 1 0.1
1.2 1 0.1
1.1 1 0.1
1 1 0.1
0.9 1 0.1
0.8 1 0.1
0.7 1 0.1
0.6 1 0.1
0.5 1 0.1
0.4 1 0.1
0.3 1 0.1
0.2 1 0.1
0.1 1 0.1
3.69793e-12 1 0.1
-0.1 1 0.1
-0.2 1 0.1
-0.3 1 0.1
-0.4 1 0.1
-0.5 1 0.1
-0.6 1 0.1
-0.7 1 0.1
-0.8 1 0.1
-0.9 1 0.1
1.08758 0.0158154 0
-0.0898513 0.0203294 0
0.0966181 0.0537636 0
0.90205 0.0548881 0
1.21055 0.0202058 0
-0.209811 0.0159577 0
1.3305 0.0176902 0
-0.33 0.0173205 0
1.45324 0.0148141 0
-0.448654 0.0159854 0
1.56842 0.0191785 0
-0.569936 0.0166364 0
0.193292 0.0805369 0
0.805051 0.0813623 0
0.709096 0.100353 0
0.288591 0.0996656 0
0.390184 0.111848 0
0.61033 0.111742 0
0.488809 0.116278 0
1.67175 0.0169692 0
-0.67 0.0169809 0
-0.955017 0.454039 0
1.95131 0.44569 0
1.74981 0.0168753 0
-0.75 0.0173205 0
-0.968032 0.266538 0
1.96871 0.266267 0
0.978232 0.0305687 0
0.0208675 0.026451 0
-0.150454 0.91842 0
1.13854 0.907437 0
1.45012 0.904365 0
-0.445923 0.908903 0
-0.853423 0.0157019 0
1.84881 0.016319 0
0.853689 0.915652 0
0.153944 0.912184 0
0.545151 0.914125 0
0.549913 0.115152 0
1.51 0.0173205 0
-0.506989 0.01651 0
1.27 0.0173205 0
1.14976 0.0173333 0
-0.268171 0.0206442 0
-0.150501 0.0153244 0
-0.391384 0.0153993 0
1.38886 0.0171544 0
-0.973694 0.161724 0
1.97441 0.162392 0
-0.945221 0.633523 0
1.94544 0.63312 0
1.91008 0.0186068 0
-0.91 0.0169616 0
-0.030664 0.0194327 0
1.03074 0.0165456 0
-0.966065 0.353575 0
1.96128 0.359765 0
1.93879 0.781254 0
-0.937057 0.781882 0
-0.980746 0.080709 0
1.9772 0.0760699 0
0.058735 0.0409372 0
0.355202 0.913001 0
0.86356 0.0661005 0
0.134223 0.0651111 0
0.941972 0.0397386 0
-0.653034 0.915003 0
1.65328 0.904589 0
0.770126 0.0881325 0
0.232946 0.0902008 0
0.330582 0.105648 0
0.670612 0.108365 0
0.428707 0.116145 0
1.80993 0.016629 0
-0.810168 0.0172178 0
-0.71 0.0173205 0
1.63047 0.0175504 0
1.70842 0.0169661 0
-0.628824 0.0181787 0
-0.949815 0.0133898 0
1.95 0.0173205 0
1.85542 0.907891 0
-0.85 0.913397 0
1.9833 0.0307692 0
-0.983315 0.0309709 0
-0.750025 0.916468 0
-0.701107 0.836904 0
-0.607741 0.836428 0
-0.656448 0.759827 0
-0.572936 0.758144 0
-0.61411 0.691195 0
-0.539534 0.689068 0
-0.578542 0.626111 0
-0.507461 0.624216 0
-0.544001 0.566638 0
-0.477696 0.564279 0
-0.511582 0.51001 0
-0.451689 0.507147 0
-0.481834 0.457732 0
-0.426137 0.454624 0
-0.453236 0.407539 0
-0.398845 0.406233 0
-0.507958 0.409496 0
-0.368427 0.460177 0
-0.344602 0.405209 0
-0.315696 0.447824 0
-0.294128 0.402169 0
-0.262844 0.444518 0
-0.241968 0.388746 0
-0.209878 0.439557 0
-0.185184 0.391135 0
-0.156687 0.437338 0
-0.133719 0.390776 0
-0.104405 0.434306 0
-0.0818745 0.388334 0
-0.0528785 0.431165 0
-0.0305984 0.385639 0
-0.00180552 0.427863 0
0.0194564 0.382608 0
0.0485809 0.42449 0
0.0701962 0.37973 0
0.0985483 0.421145 0
0.119893 0.377339 0
0.147837 0.417911 0
0.172552 0.36751 0
0.197018 0.412597 0
0.221203 0.37141 0
0.24512 0.409646 0
-0.48178 0.364657 0
-0.531053 0.364782 0
-0.0599102 0.344151 0
-0.324909 0.359566 0
0.266181 0.368462 0
0.292132 0.407649 0
0.311992 0.365779 0
0.338918 0.404821 0
0.357567 0.355909 0
0.384723 0.40053 0
0.404675 0.359681 0
0.430617 0.398558 0
0.450457 0.35827 0
0.474237 0.395182 0
0.496746 0.34898 0
0.520548 0.397931 0
0.542071 0.353121 0
0.566011 0.389914 0
0.585061 0.350856 0
0.609352 0.38696 0
0.629069 0.348168 0
0.655979 0.391217 0
0.67472 0.346182 0
0.699346 0.381414 0
0.719333 0.341965 0
0.743718 0.377547 0
0.764028 0.339036 0
0.788201 0.373582 0
0.807659 0.336101 0
0.832821 0.372249 0
0.852309 0.334017 0
0.877785 0.370339 0
0.897875 0.331141 0
0.922904 0.366281 0
0.943173 0.327335 0
0.968282 0.363358 0
0.989029 0.324222 0
1.01391 0.361511 0
1.03465 0.321428 0
1.05949 0.358447 0
1.08389 0.312052 0
1.10575 0.355104 0
1.12889 0.31562 0
1.15067 0.353235 0
1.17157 0.312819 0
1.19626 0.349369 0
1.21618 0.309863 0
1.2416 0.346914 0
1.26131 0.30715 0
1.28691 0.344312 0
1.30571 0.303752 0
1.33144 0.341222 0
1.35018 0.300911 0
1.3758 0.338308 0
1.39501 0.298931 0
1.42015 0.335235 0
1.43904 0.296349 0
1.46355 0.330194 0
1.48256 0.293347 0
1.50685 0.326967 0
1.52589 0.29055 0
1.54996 0.325305 0
1.56909 0.287929 0
[...]
CELL_DATA 3694
SCALARS rho float
LOOKUP_TABLE default
0.809079
0.778343
0.806749
0.920313
0.87481
0.80855
0.798519
0.806787
0.899667
0.807674
0.90533
0.905271
0.823425
0.797602
0.807187
0.817538
0.806777
0.807883
0.823112
0.875668
0.875873
0.891136
0.786983
0.806424
0.78573
0.822666
0.768878
0.808611
0.822549
0.803624
0.803624
0.767171
0.80802
0.816321
0.808124
0.864035
0.864644
0.889328
0.875244
0.78836
0.808439
0.812703
0.821108
0.816532
0.802788
0.921044
0.806953
0.75881
0.780575
0.792936
0.80496
0.804377
0.873763
0.803586
0.763996
0.865616
0.808063
0.880171
0.818862
0.81939
0.799927
0.927633
0.878875
0.806563
0.88298
0.881642
0.809371
0.924056
0.76677
0.884711
0.804913
0.807914
0.891179
0.806756
0.886889
0.80461
0.807617
0.805346
0.906414
0.805498
0.777574
0.813267
0.805155
0.78754
0.889511
0.805516
0.88021
0.776915
0.768171
0.866987
0.854018
0.807474
0.81419
0.873538
0.777668
0.8087
0.802435
0.903059
0.912051
0.878447
0.917067
0.825692
0.760478
0.896648
0.888613
0.927581
0.903562
0.80889
0.769313
0.902266
0.80223
0.79331
0.76111
0.864684
0.887903
0.80729
0.856225
0.912346
0.8049
0.807134
0.784485
0.812368
0.886758
0.828057
0.752189
0.786429
0.900337
0.837712
0.870343
0.79026
0.785499
0.800459
0.808249
0.793541
0.806969
0.844967
0.808716
0.805334
0.803122
0.916136
0.904573
0.796419
0.903634
0.922098
0.785968
0.760459
0.778489
0.804051
0.913216
0.810355
0.788878
0.806191
0.743033
0.83299
0.766202
0.826449
0.797948
0.836885
0.751181
0.798475
0.821171
0.764684
0.794805
0.810066
0.882957
0.74103
0.812801
0.806958
0.807646
0.777021
0.803228
0.77589
0.884935
0.738012
0.802494
0.765786
0.84288
0.883882
0.885872
0.770511
0.900997
0.766813
0.887233
0.772879
0.76633
0.805635
0.744066
0.888809
0.804573
0.883049
0.796197
0.754482
0.928885
0.804284
0.78365
0.831501
0.808674
0.873145
0.810336
0.788904
0.789902
0.843714
0.884609
0.819219
0.810218
0.918411
0.77847
0.808508
0.804371
0.8062
0.781637
0.843149
0.800419
0.803203
0.888045
0.826141
0.885005
0.816371
0.888349
0.881464
0.913775
0.831522
0.817589
0.786504
0.886962
0.745183
0.796018
0.877121
0.883237
0.881323
0.894273
0.796678
0.789291
0.903987
0.879399
0.904598
0.79883
0.859183
0.765529
0.848324
0.800283
0.885475
0.767199
0.809593
0.821893
0.798945
0.804664
0.822939
0.923074
0.838817
0.791632
0.746646
0.802762
0.807435
0.766071
0.857312
0.79383
0.803474
0.866269
0.926651
0.752679
0.921297
0.805392
0.863403
0.918368
0.80608
0.809308
0.863309
0.820466
0.820783
0.80468
0.883595
0.810148
0.80471
0.80031
0.928064
0.762366
0.741967
0.90288
0.816318
0.893321
0.802164
0.77844
0.918385
0.92061
0.877771
0.780516
0.842839
0.927161
0.740734
0.805262
0.882264
0.746384
0.821003
0.879496
0.868407
0.92847
0.756592
0.807847
0.927428
0.808096
0.807431
0.806816
0.864589
0.812856
0.78841
0.807358
0.805969
0.764905
0.894366
0.886353
0.779859
0.847956
0.899496
0.811103
0.782405
0.737259
0.893552
0.886762
0.809658
0.766502
0.794837
0.798542
0.789309
0.894105
0.837213
0.808272
0.790836
0.768919
0.888955
0.888092
0.813587
0.828726
0.923044
0.920147
0.904328
0.903823
0.805553
0.809592
0.808237
0.746621
0.804938
0.811086
0.77645
0.808899
0.808291
0.897931
0.796337
0.803864
0.79763
0.927471
0.894415
0.896026
0.804685
0.777049
0.7828
0.802551
0.808278
0.763078
0.807987
0.809023
0.812513
0.784478
0.805397
0.900719
0.912889
0.9023
0.808405
0.801168
0.825879
0.808032
0.882526
0.814131
0.755137
0.808474
0.79147
0.752039
0.807742
0.750897
0.78998
0.794149
0.803845
0.927784
0.877182
0.900402
0.862281
0.896071
0.883563
0.804813
0.826086
0.805913
0.77439
0.895611
0.820756
0.805132
0.767955
0.919958
0.874193
0.895572
0.809483
0.812087
0.919893
0.795694
0.822304
0.899209
0.78686
0.798216
0.874555
0.814277
0.803947
0.88677
0.810252
0.888826
0.90403
0.817649
0.766155
0.859073
0.790542
0.803325
0.771529
0.870589
0.807301
0.83909
0.742268
0.925577
0.818145
0.915513
0.807501
0.806525
0.887687
0.808024
0.779418
0.795497
0.804479
0.924583
0.896537
0.901545
0.887523
0.886253
0.809277
0.88411
0.784379
0.890343
0.882662
0.908472
0.757291
0.920457
0.809942
0.882496
0.893502
0.805525
0.744337
0.810227
0.790011
0.808032
0.804327
0.810867
0.927133
0.815527
0.808138
0.806667
0.904724
0.788957
0.886064
0.805016
0.88331
0.902087
0.745778
0.807872
0.800202
0.90974
0.90321
0.763959
0.805031
0.809546
0.811082
0.808532
0.799622
0.916061
0.901292
0.860682
0.807895
0.891254
0.865642
0.792312
0.808265
0.809865
0.903802
0.781795
0.808943
0.888644
0.805129
0.808628
0.735738
0.884041
0.826752
0.928321
0.902333
0.882437
0.876118
0.900654
0.91642
0.77877
0.805033
0.872893
0.894665
0.795776
0.805508
0.803566
0.887909
0.882461
0.898615
0.80464
0.80675
0.819715
0.91415
0.811642
0.742295
0.807776
0.79953
0.779438
0.808225
0.912983
0.791294
0.812167
0.917704
0.823302
0.893157
0.803481
0.876704
0.769535
0.809885
0.808183
0.885781
0.881249
0.807875
0.780401
0.78733
0.92525
0.812283
0.808357
0.746003
0.921863
0.867936
0.88888
0.807698
0.86993
0.888357
0.807481
0.882836
0.805738
0.809695
0.877983
0.915982
0.863278
0.866553
0.786217
0.793522
0.843419
0.807503
0.883007
0.803508
0.850849
0.759699
0.85819
0.907969
0.810531
0.898827
0.808536
0.923598
0.805251
0.882625
0.754173
0.806416
0.904795
0.80872
0.765704
0.740817
0.811893
0.808309
0.808664
0.84355
0.803237
0.883287
0.896397
0.80863
0.80762
0.901513
0.752987
0.913469
0.808286
0.777846
0.89272
0.761368
0.846622
0.907293
0.8656
0.884914
0.921144
0.857432
0.84628
0.80862
0.803364
0.9153
0.810577
0.898401
0.805958
0.776925
0.806454
0.923167
0.921626
0.871464
0.916526
0.910768
0.923577
0.863914
0.789893
0.809329
0.911715
0.808007
0.734159
0.781537
0.810513
0.924715
0.917656
0.791025
0.809379
0.81113
0.808323
0.803044
0.808062
0.867612
0.871458
0.922549
0.843354
0.871843
0.88525
0.738291
0.792827
0.789762
0.848569
0.809383
0.777817
0.80284
0.788364
0.883068
0.927768
0.924454
0.805933
0.732046
0.812094
0.740863
0.780237
0.888875
0.882519
0.810002
0.901981
0.883017
0.790782
0.907099
0.805911
0.811902
0.803704
0.770731
0.884348
0.77291
0.799679
0.804837
0.808091
0.804067
0.819624
0.921382
0.787936
0.861939
0.80275
0.778617
0.88274
0.804426
0.757458
0.792007
0.911696
0.889376
0.92209
0.792167
0.789443
0.83179
0.820981
0.784386
0.912604
0.88157
0.88702
0.825114
0.89242
0.787454
0.808219
0.772352
0.79106
0.845262
0.815452
0.852182
0.928789
0.915367
0.919596
0.927712
0.742614
0.804417
0.928079
0.813399
0.808496
0.914222
0.918699
0.760705
0.749319
0.812698
0.760975
0.803873
0.783363
0.915439
0.804277
0.922708
0.821094
0.750717
0.851829
0.883462
0.862537
0.80663
0.838334
0.780637
0.829945
0.88548
0.743989
0.741974
0.919315
0.808449
0.883408
0.808328
0.797146
0.833828
0.782054
0.779353
0.806437
0.884082
0.811018
0.786615
0.890342
0.866455
0.909902
0.782521
0.74766
0.783989
0.889324
0.91166
0.89193
0.752503
0.796693
0.763934
0.808448
0.804283
0.777937
0.810971
0.858317
0.815774
0.80665
0.78075
0.915068
0.786539
0.927364
0.805755
0.861251
0.805446
0.858992
0.814254
0.914693
0.926164
0.793072
0.74236
0.812319
0.903705
0.790039
0.92824
0.773084
0.808256
0.870994
0.763051
0.901234
0.804296
0.805217
0.746886
0.746706
0.809168
0.808853
0.90392
0.906642
0.892301
0.811756
0.909372
0.792938
0.804156
0.898894
0.885045
0.792258
0.796505
0.917493
0.86399
0.790482
0.80793
0.830187
0.755396
0.809269
0.78861
0.867079
0.773518
0.803557
0.766704
0.778148
0.900954
0.795031
0.814139
0.759121
0.874283
0.811457
0.894638
0.828405
0.927931
0.804628
0.83709
0.805846
0.80434
0.890446
0.8024
0.80738
0.805614
0.899472
0.748352
0.80754
0.894055
0.892155
0.898485
0.896108
0.783761
0.852827
0.786638
0.786047
0.896703
0.770386
0.895281
0.896346
0.805222
0.896836
0.897564
0.783784
0.783836
0.890485
0.83901
0.806147
0.8989
0.885767
0.887478
0.867493
0.907136
0.918568
0.799583
0.900271
0.885039
0.792164
0.78353
0.882545
0.798329
0.805473
0.815186
0.833814
0.901352
0.813603
0.899494
0.906304
0.888283
0.805457
0.808877
0.900405
0.805221
0.912929
0.808242
0.784386
0.911614
0.896934
0.775641
0.784444
0.910207
0.826191
0.814673
0.767627
0.892924
0.791258
0.892367
0.807747
0.806354
0.804032
0.804402
0.812176
0.890186
0.763699
0.79049
0.807577
0.794054
0.807672
0.85898
0.762793
0.925526
0.807877
0.806985
0.857181
0.917654
0.79586
0.910418
0.788442
0.805295
0.818245
0.807839
0.831164
0.798765
0.796676
0.918782
0.742884
0.928075
0.751378
0.768832
0.807784
0.897411
0.926017
0.807134
0.919732
0.858699
0.8024
0.793042
0.8841
0.804969
0.864651
0.806419
0.739372
0.780296
0.841452
0.772157
0.810034
0.744918
0.855403
0.92683
0.868775
0.805295
0.78538
0.785501
0.826737
0.774082
0.794058
0.92818
0.825784
0.897791
0.807702
0.810347
0.857532
0.808036
0.809361
0.771008
0.808117
0.820922
0.808628
0.80386
0.818289
0.870289
0.796636
0.808127
0.852522
0.872262
0.77433
0.806067
0.806226
0.807913
0.751533
0.916894
0.917823
0.814881
0.765106
0.918767
0.916551
0.804475
0.807808
0.798964
0.835055
0.808654
0.855087
0.912621
0.776308
0.869814
0.886911
0.79036
0.815945
0.87358
0.792015
0.882089
0.86271
0.841728
0.882128
0.802001
0.797877
0.807624
0.888176
0.882774
0.803121
0.740577
0.89199
0.881852
0.788008
0.884485
0.875915
0.887637
0.883639
0.806943
0.878609
0.886784
0.792815
0.809846
0.909737
0.879606
0.891075
0.807312
0.815441
0.797009
0.80768
0.804391
0.805371
0.805643
0.739288
0.900215
0.888118
0.885565
0.80885
0.813411
0.88955
0.813647
0.894321
0.882249
0.883538
0.847232
0.804051
0.89268
0.905479
0.905426
0.806228
0.807548
0.885482
0.896013
0.882376
0.908638
0.806195
0.814914
0.800478
0.818546
0.903446
0.886225
0.80779
0.783017
0.807256
0.807922
0.917731
0.805912
0.845845
0.813997
0.802134
0.807895
0.791889
0.81321
0.771257
0.811773
0.841823
0.786905
0.807653
0.811065
0.809925
0.798002
0.897723
0.811701
0.81543
0.899186
0.838813
0.910077
0.827032
0.820576
0.867047
0.810589
0.806393
0.813557
0.781885
0.923859
0.811561
0.831121
0.898354
0.809492
0.903706
0.808953
0.80467
0.790664
0.80522
0.805249
0.876234
0.903404
0.810808
0.803698
0.750102
0.781731
0.804735
0.840655
0.808579
0.90221
0.809017
0.911762
0.792961
0.922328
0.808792
0.906482
0.808462
0.898985
0.804202
0.913445
0.900661
0.906176
0.898783
0.799703
0.894403
0.915177
0.746795
0.92353
0.800579
0.808214
0.883988
0.889082
0.903457
0.887132
0.911593
0.912909
0.907144
0.89845
0.896644
0.786984
0.816693
0.807468
0.807566
0.890077
0.915375
0.908004
0.91975
0.891923
0.81558
0.806981
0.893715
0.809905
0.812153
0.813743
0.920669
0.895888
0.894156
0.806794
0.750003
0.774543
0.807025
0.809691
0.807767
0.898296
0.895107
0.894264
0.807144
0.808157
0.806571
0.805869
0.899137
0.872608
0.900298
0.81077
0.896581
0.901288
0.827547
0.896166
0.814688
0.794867
0.898737
0.807971
0.807342
0.79806
0.884944
0.897938
0.920882
0.910158
0.819994
0.873149
0.920295
0.897388
0.814786
0.80777
0.808097
0.808082
0.909812
0.918802
0.806233
0.866373
0.906348
0.814931
0.806851
0.739484
0.808007
0.842722
0.813016
0.799537
0.805628
0.816493
0.8823
0.804827
0.804939
0.883267
0.885135
0.810149
0.887523
0.805946
0.901315
0.887067
0.899475
0.807682
0.900369
0.794353
0.891918
0.807952
0.806041
0.811378
0.895204
0.801817
0.808245
0.839884
0.811865
0.918632
0.917671
0.899319
0.808541
0.90635
0.912449
0.872865
0.814197
0.882734
0.809123
0.788259
0.897802
0.868647
0.896887
0.808747
0.804401
0.808304
0.88454
0.811648
0.909235
0.778421
0.806831
0.806744
0.805337
0.910354
0.895579
0.867882
0.773118
0.794649
0.808557
0.783315
0.914303
0.763193
0.804934
0.805375
0.804623
0.814229
0.804486
0.904385
0.910747
0.801854
0.809766
0.851632
0.816224
0.916917
0.807173
0.808277
0.903921
0.889831
0.817327
0.873967
0.808055
0.790761
0.917833
0.808282
0.810346
0.928232
0.919962
0.878476
0.851456
0.803116
0.918768
0.821787
0.809344
0.927042
0.803912
0.907838
0.823147
0.807726
0.877255
0.856783
0.838781
0.919672
0.803413
0.829922
0.794331
0.805874
0.913301
0.8844
0.809081
0.918589
0.913261
0.807357
0.805293
0.816164
0.834649
0.91817
0.916564
0.768275
0.915318
0.796992
0.812488
0.877274
0.885477
0.801906
0.923915
0.922155
0.80402
0.926425
0.807276
0.8044
0.806402
0.909011
0.88551
0.806339
0.806988
0.795976
0.883018
0.816458
0.894303
0.906178
0.815045
0.859864
0.803723
0.80648
0.806529
0.797912
0.906184
0.802953
0.780059
0.889949
0.791118
0.784546
0.807118
0.813385
0.808853
0.804741
0.804114
0.772766
0.800929
0.793874
0.805541
0.796779
0.898074
0.891963
0.890946
0.809142
0.819774
0.766007
0.806587
0.836994
0.811442
0.789567
0.831286
0.793444
0.805999
0.805907
0.806148
0.790793
0.760019
0.810579
0.754897
0.878515
0.857513
0.809534
0.775264
0.857294
0.862355
0.886187
0.795293
0.890001
0.801137
0.902543
0.799338
0.806707
0.802249
0.806494
0.804142
0.784693
0.808434
0.92565
0.924639
0.805402
0.823331
0.922221
0.767907
0.786254
0.80592
0.925208
0.889372
0.926517
0.916402
0.888673
0.880485
0.862985
0.76216
0.80683
0.809862
0.814729
0.855487
0.784205
0.802305
0.778877
0.803435
0.756996
0.791596
0.80416
0.762313
0.752499
0.867414
0.830916
0.814569
0.88007
0.822458
0.784036
0.748786
0.80701
0.838648
0.874434
0.883688
0.870468
0.916805
0.845662
0.804497
0.799316
0.920868
0.787788
0.797977
0.92641
0.791008
0.823531
0.851998
0.836292
0.80493
0.805457
0.906614
0.806124
0.884142
0.746171
0.736687
0.80661
0.857863
0.791794
0.810202
0.806497
0.872798
0.806812
0.804367
0.74365
0.744497
0.803986
0.908931
0.922394
0.792023
0.805153
0.863197
0.785465
0.913216
0.805601
0.928033
0.804221
0.844798
0.804202
0.92846
0.804284
0.808715
0.807497
0.883479
0.928717
0.804258
0.759131
0.779757
0.915382
0.749204
0.868079
0.810335
0.874514
0.901139
0.807197
0.808913
0.92759
0.910871
0.928999
0.80401
0.831294
0.882638
0.807973
0.775092
0.879424
0.811885
0.802304
0.805472
0.878203
0.803246
0.804
0.870174
0.875158
0.902111
0.917744
0.825949
0.773388
0.80726
0.876264
0.808059
0.873051
0.808671
0.8084
0.808782
0.927422
0.809966
0.805351
0.806523
0.809123
0.816141
0.806978
0.807273
0.903417
0.809373
0.803867
0.927415
0.803849
0.804428
0.807469
0.809656
0.926626
0.792364
0.807619
0.804476
0.92921
0.803337
0.807554
0.805912
0.877871
0.807768
0.772275
0.804794
0.905405
0.807792
0.809602
0.788605
0.908589
0.786385
0.807216
0.804345
0.807705
0.813696
0.881926
0.807792
0.804043
0.774277
0.87955
0.926644
0.891778
0.813678
0.885762
0.78502
0.900159
0.78465
0.803528
0.881356
0.805617
0.775987
0.883207
0.877433
0.911828
0.885189
0.919251
0.791238
0.905446
0.770353
0.78545
0.926088
0.887322
0.775039
0.898627
0.77231
0.889538
0.80914
0.909245
0.804266
0.808819
0.881592
0.81993
0.814307
0.738138
0.924475
0.881668
0.793869
0.881675
0.802699
0.787891
0.881975
0.897685
0.882575
0.781206
0.774388
0.883343
0.769791
0.884298
0.924739
0.885409
0.805032
0.88668
0.796319
0.888043
0.889486
0.791763
0.88662
0.891013
0.892612
0.814047
0.82228
0.806121
0.735163
0.869688
0.894279
0.918699
0.803699
0.88601
0.929265
0.802579
0.895958
0.805136
0.770281
0.798535
0.821047
0.923931
0.7972
0.86256
0.81346
0.748364
0.921268
0.916892
0.80216
0.809022
0.803424
0.872157
0.804701
0.806792
0.800436
0.854912
0.799512
0.796942
0.803536
0.926985
0.812739
0.915142
0.738581
0.896287
0.772208
0.801667
0.810953
0.796231
0.928851
0.915181
0.916955
0.751745
0.889413
0.812061
0.808491
0.883633
0.822394
0.823764
0.792395
0.801748
0.802782
0.796188
0.818892
0.92151
0.825018
0.811464
0.897218
0.921189
0.810978
0.803328
0.83508
0.810596
0.911715
0.775242
0.810194
0.913433
0.901951
0.809657
0.809955
0.826963
0.926959
0.809576
0.806115
0.809424
0.758272
0.809188
0.80866
0.809088
0.891051
0.826951
0.808773
0.836258
0.808929
0.78785
0.893232
0.879703
0.926386
0.929189
0.829247
0.806966
0.779064
0.81346
0.921738
0.804808
0.807371
0.910992
0.783308
0.927215
0.737272
0.809226
0.783289
0.807492
0.850531
0.908784
0.905787
0.808123
0.878462
0.897717
0.806743
0.808344
0.826856
0.909936
0.800645
0.895267
0.807552
0.807392
0.804914
0.807031
0.871049
0.924666
0.807349
0.831817
0.899228
0.851987
0.80816
0.928896
0.743755
0.802629
0.809648
0.920175
0.847185
0.816614
0.759119
0.926086
0.928624
0.884722
0.85249
0.750039
0.828571
0.769573
0.908112
0.771625
0.926786
0.819058
0.782169
0.804723
0.880367
0.815448
0.803618
0.805694
0.908882
0.846024
0.789906
0.805623
0.739715
0.807616
0.806774
0.805047
0.740138
0.805481
0.807353
0.806186
0.805359
0.810474
0.806619
0.831762
0.916303
0.802358
0.794278
0.920807
0.804282
0.81868
0.874559
0.925804
0.925788
0.777335
0.805729
0.804484
0.805152
0.804852
0.772968
0.807541
0.919528
0.770535
0.784536
0.803091
0.839681
0.923188
0.858751
0.912893
0.914157
0.907167
0.806887
0.921692
0.911573
0.852657
0.818516
0.808085
0.806654
0.810417
0.794165
0.808762
0.911605
0.879959
0.854329
0.76438
0.836489
0.806345
0.790695
0.907284
0.906616
0.863731
0.811781
0.882195
0.807801
0.913216
0.748429
0.812322
0.867588
0.80483
0.926777
0.759216
0.900344
0.804276
0.907422
0.804726
0.902346
0.910645
0.777093
0.806188
0.804123
0.870533
0.882529
0.813927
0.912441
0.765812
0.809603
0.805502
0.807262
0.810915
0.899014
0.803837
0.806944
0.892811
0.876271
0.808867
0.771584
0.805791
0.8946
0.887656
0.791391
0.780286
0.890879
0.797883
0.881987
0.800365
0.872698
0.893086
0.760539
0.801825
0.913305
0.793392
0.803715
0.799727
0.916583
0.834202
0.786934
0.920537
0.756191
0.802903
0.826633
0.918941
0.905456
0.807008
0.841412
0.811106
0.818652
0.830061
0.922638
0.898539
0.876218
0.752273
0.854165
0.847998
0.789559
0.804975
0.918342
0.802089
0.808221
0.767029
0.808529
0.808686
0.883832
0.807486
0.809996
0.874643
0.808882
0.897174
0.881569
0.759559
0.807613
0.911816
0.807052
0.80725
0.80675
0.807603
0.807436
0.807607
0.806288
0.80923
0.803647
0.80568
0.809374
0.859823
0.903698
0.809742
0.876182
0.804656
0.806627
0.910151
0.906973
0.902719
0.803699
0.808606
0.811406
0.86496
0.907921
0.796318
0.916815
0.876446
0.920012
0.884432
0.8172
0.882932
0.926998
0.807219
0.749455
0.806534
0.829573
0.892832
0.754765
0.916052
0.878201
0.923448
0.869914
0.806168
0.815712
0.862299
0.808331
0.825569
0.904439
0.783032
0.736347
0.928586
0.74837
0.78983
0.811149
0.88005
0.884561
0.906527
0.881253
0.747577
0.846291
0.804872
0.881943
0.8839
0.906944
0.783912
0.9253
0.885988
0.909144
0.807295
0.785491
0.812584
0.741257
0.874703
0.881193
0.806371
0.881476
0.888194
0.8034
0.779114
0.826176
0.890464
0.881982
0.806545
0.879149
0.804318
0.882769
0.806842
0.883202
0.883647
0.884679
0.812947
0.889526
0.819293
0.768142
0.775978
0.746384
0.885897
0.887265
0.789953
0.787717
0.882974
0.888666
0.827109
0.751181
0.890147
0.891723
0.893371
0.896766
0.803665
0.812793
0.773001
0.78614
0.895064
0.804255
0.842283
0.896421
0.792435
0.873107
0.775717
0.821637
0.785459
0.785839
0.8124
0.802059
0.794834
0.771753
0.804837
0.921603
0.797068
0.787598
0.86607
0.811796
0.79993
0.77184
0.857692
0.797188
0.914314
0.881239
0.81121
0.85851
0.910834
0.912559
0.793925
0.808504
0.790846
0.824237
0.799069
0.890557
0.794697
0.808643
0.772536
0.803855
0.81079
0.810442
0.810207
0.809786
0.809495
0.809371
0.809005
0.808759
0.809196
0.791586
0.808895
0.804085
0.800614
0.807449
0.826102
0.795297
0.806379
0.789997
0.890079
0.832219
0.801902
0.800973
0.808409
0.798449
0.774894
0.80745
0.807577
0.807578
0.804667
0.85089
0.80407
0.806858
0.777965
0.839207
0.86489
0.815249
0.785679
0.830881
0.807165
0.914333
0.809328
0.822966
0.781629
0.802923
0.924807
0.806571
0.841081
0.804358
0.913786
0.87756
0.890198
0.929088
0.760621
0.878493
0.816144
0.81714
0.853471
0.898892
0.926777
0.803034
0.74413
0.925654
0.803425
0.924451
0.803939
0.870192
0.732477
0.879726
0.804552
0.809052
0.802456
0.808543
0.833544
0.805787
0.902323
0.791569
0.730975
0.773097
0.92326
0.725486
0.803596
0.802329
0.867387
0.80841
0.730397
0.845739
0.922747
0.925107
0.800595
0.807519
0.725338
0.804467
0.920858
0.804738
0.806789
0.805047
0.918291
0.863122
0.803376
0.805809
0.914383
0.806032
0.913069
0.811299
0.806237
0.911734
0.916883
0.910394
0.806344
0.90905
0.779694
0.806443
0.907712
0.805619
0.806517
0.90637
0.790564
0.924094
0.803087
0.928223
0.798867
0.894421
0.823362
0.886167
0.805044
0.8069
0.902373
0.812227
0.80679
0.806657
0.837881
0.855032
0.903736
0.89519
0.876856
0.885893
0.903096
0.816701
0.883331
0.925023
0.807144
0.89835
0.850639
0.807235
0.922758
0.806755
0.849007
0.790157
0.808598