# vtk DataFile Version 1.0
unstructured grid
ascii
DATASET UNSTRUCTURED_GRID
points 3920 float
-1 0 0
-1 1 0
2 0 0
2 1 0
0 0 0
1 0 0
-1 1 0.1
-1 0 0.1
0 0 0.1
1 0 0.1
2 0 0.1
2 1 0.1
-0.98 0 0
-0.96 0 0
-0.94 0 0
-0.92 0 0
-0.9 0 0
-0.88 0 0
-0.86 0 0
-0.84 0 0
-0.82 0 0
-0.8 0 0
-0.78 0 0
-0.76 0 0
-0.74 0 0
-0.72 0 0
-0.7 0 0
-0.68 0 0
-0.66 0 0
-0.64 0 0
-0.62 0 0
-0.6 0 0
-0.58 0 0
-0.56 0 0
-0.54 0 0
-0.52 0 0
-0.5 0 0
-0.48 0 0
-0.46 0 0
-0.44 0 0
-0.42 0 0
-0.4 0 0
-0.38 0 0
-0.36 0 0
-0.34 0 0
-0.32 0 0
-0.3 0 0
-0.28 0 0
-0.26 0 0
-0.24 0 0
-0.22 0 0
-0.2 0 0
-0.18 0 0
-0.16 0 0
-0.14 0 0
-0.12 0 0
-0.1 0 0
-0.08 0 0
-0.06 0 0
-0.04 0 0
-0.02 0 0
1.02 0 0
1.04 0 0
1.06 0 0
1.08 0 0
1.1 0 0
1.12 0 0
1.14 0 0
1.16 0 0
1.18 0 0
1.2 0 0
1.22 0 0
1.24 0 0
1.26 0 0
1.28 0 0
1.3 0 0
1.32 0 0
1.34 0 0
1.36 0 0
1.38 0 0
1.4 0 0
1.42 0 0
1.44 0 0
1.46 0 0
1.48 0 0
1.5 0 0
1.52 0 0
1.54 0 0
1.56 0 0
1.58 0 0
1.6 0 0
1.62 0 0
1.64 0 0
1.66 0 0
1.68 0 0
1.7 0 0
1.72 0 0
1.74 0 0
1.76 0 0
1.78 0 0
1.8 0 0
1.82 0 0
1.84 0 0
1.86 0 0
1.88 0 0
1.9 0 0
1.92 0 0
1.94 0 0
1.96 0 0
1.98 0 0
2 0.0199133 0
2 0.0414128 0
2 0.0646247 0
2 0.0896856 0
2 0.116743 0
2 0.145955 0
2 0.177494 0
2 0.211545 0
2 0.248309 0
2 0.288001 0
2 0.330854 0
2 0.377121 0
2 0.427073 0
2 0.481004 0
2 0.539231 0
2 0.602096 0
2 0.669968 0
2 0.743247 0
2 0.822362 0
2 0.907779 0
1.9 1 0
1.8 1 0
1.7 1 0
1.6 1 0
1.5 1 0
1.4 1 0
1.3 1 0
1.2 1 0
1.1 1 0
1 1 0
0.9 1 0
0.8 1 0
0.7 1 0
0.6 1 0
0.5 1 0
0.4 1 0
0.3 1 0
0.2 1 0
0.1 1 0
3.69793e-12 1 0
-0.1 1 0
-0.2 1 0
-0.3 1 0
-0.4 1 0
-0.5 1 0
-0.6 1 0
-0.7 1 0
-0.8 1 0
-0.9 1 0
-1 0.907779 0
-1 0.822362 0
-1 0.743247 0
-1 0.669968 0
-1 0.602096 0
-1 0.539231 0
-1 0.481004 0
-1 0.427073 0
-1 0.377121 0
-1 0.330854 0
-1 0.288001 0
-1 0.248309 0
-1 0.211545 0
-1 0.177494 0
-1 0.145955 0
-1 0.116743 0
-1 0.0896856 0
-1 0.0646247 0
-1 0.0414128 0
-1 0.0199133 0
0.0182781 0.00745351 0
0.0366672 0.0146286 0
0.0551632 0.0215237 0
0.0737617 0.0281372 0
0.0924585 0.0344675 0
0.111249 0.0405131 0
0.13013 0.0462728 0
0.149095 0.0517451 0
0.168142 0.0569289 0
0.187265 0.0618228 0
0.20646 0.0664258 0
0.225723 0.0707368 0
0.245049 0.0747549 0
0.264434 0.078479 0
0.283873 0.0819084 0
0.303362 0.0850422 0
0.322896 0.0878798 0
0.342472 0.0904204 0
0.362083 0.0926635 0
0.381726 0.0946086 0
0.401397 0.0962552 0
0.42109 0.0976029 0
0.440802 0.0986514 0
0.460527 0.0994006 0
0.480261 0.0998501 0
0.5 0.1 0
0.519739 0.0998501 0
0.539473 0.0994006 0
0.559198 0.0986514 0
0.57891 0.0976029 0
0.598603 0.0962552 0
0.618274 0.0946086 0
0.637917 0.0926635 0
0.657528 0.0904204 0
0.677104 0.0878798 0
0.696638 0.0850422 0
0.716127 0.0819084 0
0.735566 0.078479 0
0.754951 0.0747549 0
0.774277 0.0707368 0
0.79354 0.0664258 0
0.812735 0.0618228 0
0.831858 0.0569289 0
0.850905 0.0517451 0
0.86987 0.0462728 0
0.888751 0.0405131 0
0.907542 0.0344675 0
0.926238 0.0281372 0
0.944837 0.0215237 0
0.963333 0.0146286 0
0.981722 0.00745351 0
-1 0.907779 0.1
-1 0.822362 0.1
-1 0.743247 0.1
-1 0.669968 0.1
-1 0.602096 0.1
-1 0.539231 0.1
-1 0.481004 0.1
-1 0.427073 0.1
-1 0.377121 0.1
-1 0.330854 0.1
-1 0.288001 0.1
-1 0.248309 0.1
-1 0.211545 0.1
-1 0.177494 0.1
-1 0.145955 0.1
-1 0.116743 0.1
-1 0.0896856 0.1
-1 0.0646247 0.1
-1 0.0414128 0.1
-1 0.0199133 0.1
-0.98 0 0.1
-0.96 0 0.1
-0.94 0 0.1
-0.92 0 0.1
-0.9 0 0.1
-0.88 0 0.1
-0.86 0 0.1
-0.84 0 0.1
-0.82 0 0.1
-0.8 0 0.1
-0.78 0 0.1
-0.76 0 0.1
-0.74 0 0.1
-0.72 0 0.1
-0.7 0 0.1
-0.68 0 0.1
-0.66 0 0.1
-0.64 0 0.1
-0.62 0 0.1
-0.6 0 0.1
-0.58 0 0.1
-0.56 0 0.1
-0.54 0 0.1
-0.52 0 0.1
-0.5 0 0.1
-0.48 0 0.1
-0.46 0 0.1
-0.44 0 0.1
-0.42 0 0.1
-0.4 0 0.1
-0.38 0 0.1
-0.36 0 0.1
-0.34 0 0.1
-0.32 0 0.1
-0.3 0 0.1
-0.28 0 0.1
-0.26 0 0.1
-0.24 0 0.1
-0.22 0 0.1
-0.2 0 0.1
-0.18 0 0.1
-0.16 0 0.1
-0.14 0 0.1
-0.12 0 0.1
-0.1 0 0.1
-0.08 0 0.1
-0.06 0 0.1
-0.04 0 0.1
-0.02 0 0.1
0.0182781 0.00745351 0.1
0.0366672 0.0146286 0.1
0.0551632 0.0215237 0.1
0.0737617 0.0281372 0.1
0.0924585 0.0344675 0.1
0.111249 0.0405131 0.1
0.13013 0.0462728 0.1
0.149095 0.0517451 0.1
0.168142 0.0569289 0.1
0.187265 0.0618228 0.1
0.20646 0.0664258 0.1
0.225723 0.0707368 0.1
0.245049 0.0747549 0.1
0.264434 0.078479 0.1
0.283873 0.0819084 0.1
0.303362 0.0850422 0.1
0.322896 0.0878798 0.1
0.342472 0.0904204 0.1
0.362083 0.0926635 0.1
0.381726 0.0946086 0.1
0.401397 0.0962552 0.1
0.42109 0.0976029 0.1
0.440802 0.0986514 0.1
0.460527 0.0994006 0.1
0.480261 0.0998501 0.1
0.5 0.1 0.1
0.519739 0.0998501 0.1
0.539473 0.0994006 0.1
0.559198 0.0986514 0.1
0.57891 0.0976029 0.1
0.598603 0.0962552 0.1
0.618274 0.0946086 0.1
0.637917 0.0926635 0.1
0.657528 0.0904204 0.1
0.677104 0.0878798 0.1
0.696638 0.0850422 0.1
0.716127 0.0819084 0.1
0.735566 0.078479 0.1
0.754951 0.0747549 0.1
0.774277 0.0707368 0.1
0.79354 0.0664258 0.1
0.812735 0.0618228 0.1
0.831858 0.0569289 0.1
0.850905 0.0517451 0.1
0.86987 0.0462728 0.1
0.888751 0.0405131 0.1
0.907542 0.0344675 0.1
0.926238 0.0281372 0.1
0.944837 0.0215237 0.1
0.963333 0.0146286 0.1
0.981722 0.00745351 0.1
1.02 0 0.1
1.04 0 0.1
1.06 0 0.1
1.08 0 0.1
1.1 0 0.1
1.12 0 0.1
1.14 0 0.1
1.16 0 0.1
1.18 0 0.1
1.2 0 0.1
1.22 0 0.1
1.24 0 0.1
1.26 0 0.1
1.28 0 0.1
1.3 0 0.1
1.32 0 0.1
1.34 0 0.1
1.36 0 0.1
1.38 0 0.1
1.4 0 0.1
1.42 0 0.1
1.44 0 0.1
1.46 0 0.1
1.48 0 0.1
1.5 0 0.1
1.52 0 0.1
1.54 0 0.1
1.56 0 0.1
1.58 0 0.1
1.6 0 0.1
1.62 0 0.1
1.64 0 0.1
1.66 0 0.1
1.68 0 0.1
1.7 0 0.1
1.72 0 0.1
1.74 0 0.1
1.76 0 0.1
1.78 0 0.1
1.8 0 0.1
1.82 0 0.1
1.84 0 0.1
1.86 0 0.1
1.88 0 0.1
1.9 0 0.1
1.92 0 0.1
1.94 0 0.1
1.96 0 0.1
1.98 0 0.1
2 0.0199133 0.1
2 0.0414128 0.1
2 0.0646247 0.1
2 0.0896856 0.1
2 0.116743 0.1
2 0.145955 0.1
2 0.177494 0.1
2 0.211545 0.1
2 0.248309 0.1
2 0.288001 0.1
2 0.330854 0.1
2 0.377121 0.1
2 0.427073 0.1
2 0.481004 0.1
2 0.539231 0.1
2 0.602096 0.1
2 0.669968 0.1
2 0.743247 0.1
2 0.822362 0.1
2 0.907779 0.1
1.9 1 0.1
1.8 1 0.1
1.7 1 0.1
1.6 1 0.1
1.5 1 0.1
1.4 1 0.1
1.3 1 0.1
1.2 1 0.1
1.1 1 0.1
1 1 0.1
0.9 1 0.1
0.8 1 0.1
0.7 1 0.1
0.6 1 0.1
0.5 1 0.1
0.4 1 0.1
0.3 1 0.1
0.2 1 0.1
0.1 1 0.1
3.69793e-12 1 0.1
-0.1 1 0.1
-0.2 1 0.1
-0.3 1 0.1
-0.4 1 0.1
-0.5 1 0.1
-0.6 1 0.1
-0.7 1 0.1
-0.8 1 0.1
-0.9 1 0.1
1.08758 0.0158154 0
-0.0898513 0.0203294 0
0.0966181 0.0537636 0
0.90205 0.0548881 0
1.21055 0.0202058 0
-0.209811 0.0159577 0
1.3305 0.0176902 0
-0.33 0.0173205 0
1.45324 0.0148141 0
-0.448654 0.0159854 0
1.56842 0.0191785 0
-0.569936 0.0166364 0
0.193292 0.0805369 0
0.805051 0.0813623 0
0.709096 0.100353 0
0.288591 0.0996656 0
0.390184 0.111848 0
0.61033 0.111742 0
0.488809 0.116278 0
1.67175 0.0169692 0
-0.67 0.0169809 0
-0.955017 0.454039 0
1.95131 0.44569 0
1.74981 0.0168753 0
-0.75 0.0173205 0
-0.968032 0.266538 0
1.96871 0.266267 0
0.978232 0.0305687 0
0.0208675 0.026451 0
-0.150454 0.91842 0
1.13854 0.907437 0
1.45012 0.904365 0
-0.445923 0.908903 0
-0.853423 0.0157019 0
1.84881 0.016319 0
0.853689 0.915652 0
0.153944 0.912184 0
0.545151 0.914125 0
0.549913 0.115152 0
1.51 0.0173205 0
-0.506989 0.01651 0
1.27 0.0173205 0
1.14976 0.0173333 0
-0.268171 0.0206442 0
-0.150501 0.0153244 0
-0.391384 0.0153993 0
1.38886 0.0171544 0
-0.973694 0.161724 0
1.97441 0.162392 0
-0.945221 0.633523 0
1.94544 0.63312 0
1.91008 0.0186068 0
-0.91 0.0169616 0
-0.030664 0.0194327 0
1.03074 0.0165456 0
-0.966065 0.353575 0
1.96128 0.359765 0
1.93879 0.781254 0
-0.937057 0.781882 0
-0.980746 0.080709 0
1.9772 0.0760699 0
0.058735 0.0409372 0
0.355202 0.913001 0
0.86356 0.0661005 0
0.134223 0.0651111 0
0.941972 0.0397386 0
-0.653034 0.915003 0
1.65328 0.904589 0
0.770126 0.0881325 0
0.232946 0.0902008 0
0.330582 0.105648 0
0.670612 0.108365 0
0.428707 0.116145 0
1.80993 0.016629 0
-0.810168 0.0172178 0
-0.71 0.0173205 0
1.63047 0.0175504 0
1.70842 0.0169661 0
-0.628824 0.0181787 0
-0.949815 0.0133898 0
1.95 0.0173205 0
1.85542 0.907891 0
-0.85 0.913397 0
1.9833 0.0307692 0
-0.983315 0.0309709 0
-0.750025 0.916468 0
-0.701107 0.836904 0
-0.607741 0.836428 0
-0.656448 0.759827 0
-0.572936 0.758144 0
-0.61411 0.691195 0
-0.539534 0.689068 0
-0.578542 0.626111 0
-0.507461 0.624216 0
-0.544001 0.566638 0
-0.477696 0.564279 0
-0.511582 0.51001 0
-0.451689 0.507147 0
-0.481834 0.457732 0
-0.426137 0.454624 0
-0.453236 0.407539 0
-0.398845 0.406233 0
-0.507958 0.409496 0
-0.368427 0.460177 0
-0.344602 0.405209 0
-0.315696 0.447824 0
-0.294128 0.402169 0
-0.262844 0.444518 0
-0.241968 0.388746 0
-0.209878 0.439557 0
-0.185184 0.391135 0
-0.156687 0.437338 0
-0.133719 0.390776 0
-0.104405 0.434306 0
-0.0818745 0.388334 0
-0.0528785 0.431165 0
-0.0305984 0.385639 0
-0.00180552 0.427863 0
0.0194564 0.382608 0
0.0485809 0.42449 0
0.0701962 0.37973 0
0.0985483 0.421145 0
0.119893 0.377339 0
0.147837 0.417911 0
0.172552 0.36751 0
0.197018 0.412597 0
0.221203 0.37141 0
0.24512 0.409646 0
-0.48178 0.364657 0
-0.531053 0.364782 0
-0.0599102 0.344151 0
-0.324909 0.359566 0
0.266181 0.368462 0
0.292132 0.407649 0
0.311992 0.365779 0
0.338918 0.404821 0
0.357567 0.355909 0
0.384723 0.40053 0
0.404675 0.359681 0
0.430617 0.398558 0
0.450457 0.35827 0
0.474237 0.395182 0
0.496746 0.34898 0
0.520548 0.397931 0
0.542071 0.353121 0
0.566011 0.389914 0
0.585061 0.350856 0
0.609352 0.38696 0
0.629069 0.348168 0
0.655979 0.391217 0
0.67472 0.346182 0
0.699346 0.381414 0
0.719333 0.341965 0
0.743718 0.377547 0
0.764028 0.339036 0
0.788201 0.373582 0
0.807659 0.336101 0
0.832821 0.372249 0
0.852309 0.334017 0
0.877785 0.370339 0
0.897875 0.331141 0
0.922904 0.366281 0
0.943173 0.327335 0
0.968282 0.363358 0
0.989029 0.324222 0
1.01391 0.361511 0
1.03465 0.321428 0
1.05949 0.358447 0
1.08389 0.312052 0
1.10575 0.355104 0
1.12889 0.31562 0
1.15067 0.353235 0
1.17157 0.312819 0
1.19626 0.349369 0
1.21618 0.309863 0
1.2416 0.346914 0
1.26131 0.30715 0
1.28691 0.344312 0
1.30571 0.303752 0
1.33144 0.341222 0
1.35018 0.300911 0
1.3758 0.338308 0
1.39501 0.298931 0
1.42015 0.335235 0
1.43904 0.296349 0
1.46355 0.330194 0
1.48256 0.293347 0
1.50685 0.326967 0
1.52589 0.29055 0
1.54996 0.325305 0
1.56909 0.287929 0
[...]
CELL_DATA 3694
SCALARS rho float
LOOKUP_TABLE default
0.734627
0.669712
0.803667
0.812426
0.826089
0.804926
0.791389
0.799565
0.809445
0.802507
0.816768
0.816761
0.840072
0.789104
0.800396
0.749565
0.803155
0.802754
0.759372
0.849678
0.816766
0.822542
0.695636
0.803245
0.6922
0.838949
0.719722
0.805834
0.836581
0.798221
0.798421
0.718318
0.803313
0.824269
0.802546
0.796846
0.836835
0.82234
0.824366
0.778076
0.804476
0.817122
0.833909
0.824836
0.804933
0.812312
0.800376
0.663164
0.6785
0.719364
0.801914
0.802858
0.846437
0.801878
0.626784
0.837734
0.802361
0.818544
0.832453
0.753519
0.796045
0.814491
0.841704
0.79918
0.842218
0.8304
0.807207
0.812964
0.736496
0.857973
0.803075
0.807412
0.822565
0.803118
0.823979
0.802831
0.813983
0.799284
0.813351
0.802606
0.712395
0.817943
0.802146
0.776675
0.809312
0.799235
0.817887
0.713521
0.73625
0.82467
0.79869
0.802185
0.820041
0.814972
0.674106
0.806331
0.722457
0.817258
0.811767
0.839557
0.814065
0.761722
0.719029
0.809249
0.80875
0.814487
0.817235
0.80683
0.714927
0.81381
0.799067
0.721095
0.721258
0.823079
0.867605
0.802006
0.799247
0.811568
0.80306
0.801908
0.765497
0.822261
0.819221
0.76931
0.704877
0.757975
0.816904
0.776304
0.843212
0.699094
0.766965
0.800164
0.807745
0.777229
0.800486
0.795127
0.805277
0.802253
0.797587
0.813997
0.813232
0.709393
0.816425
0.813051
0.757104
0.665569
0.676302
0.797715
0.815479
0.812912
0.743488
0.802566
0.553165
0.778073
0.683509
0.762647
0.712911
0.783235
0.605253
0.792824
0.837318
0.643733
0.781752
0.736475
0.843752
0.551414
0.817011
0.800023
0.802448
0.67251
0.801456
0.661541
0.857495
0.533231
0.799697
0.631121
0.872143
0.832913
0.820196
0.745027
0.81358
0.722016
0.826495
0.737322
0.647522
0.803016
0.673335
0.822948
0.801545
0.850629
0.791563
0.705061
0.814206
0.797984
0.741329
0.852541
0.811206
0.848526
0.736002
0.74203
0.770568
0.79335
0.831307
0.83405
0.816694
0.8136
0.668018
0.804444
0.725976
0.803105
0.707239
0.796956
0.795463
0.801328
0.825284
0.762948
0.830007
0.748952
0.825224
0.81943
0.815432
0.852808
0.829251
0.70179
0.826643
0.688572
0.787531
0.809552
0.850797
0.82979
0.807789
0.79417
0.744464
0.817131
0.83634
0.816944
0.714092
0.799333
0.693712
0.791761
0.795319
0.809536
0.636147
0.80736
0.757046
0.79767
0.803036
0.758636
0.814651
0.865464
0.784069
0.692837
0.804245
0.801245
0.646129
0.791807
0.77756
0.802274
0.838668
0.814247
0.607005
0.814673
0.80996
0.796388
0.81495
0.802529
0.81519
0.814153
0.835429
0.75564
0.801705
0.834486
0.810081
0.803076
0.795914
0.814412
0.728317
0.586338
0.816392
0.829442
0.819988
0.804047
0.67977
0.814948
0.814675
0.81638
0.712035
0.79685
0.814516
0.536878
0.802735
0.868912
0.676418
0.755574
0.838347
0.826651
0.814254
0.707899
0.809249
0.814511
0.803655
0.801467
0.811953
0.836353
0.816961
0.766841
0.806857
0.802969
0.645564
0.820586
0.827482
0.670567
0.790566
0.818423
0.820711
0.678072
0.68629
0.821008
0.823695
0.809373
0.733619
0.706122
0.712853
0.731643
0.819893
0.776126
0.804001
0.731468
0.742018
0.822115
0.809776
0.818783
0.769396
0.81465
0.813324
0.816902
0.815524
0.802659
0.807364
0.803525
0.692769
0.80263
0.812592
0.693314
0.806789
0.80495
0.81901
0.785562
0.805764
0.791616
0.814399
0.820576
0.819763
0.797858
0.679649
0.709567
0.799252
0.810714
0.621131
0.803727
0.807122
0.81707
0.742544
0.804114
0.815937
0.81109
0.817382
0.80488
0.797131
0.763856
0.80395
0.843227
0.819711
0.707556
0.803447
0.701188
0.704994
0.802907
0.613848
0.770245
0.784553
0.807902
0.812919
0.824934
0.816694
0.812328
0.819773
0.8279
0.802759
0.764007
0.809596
0.65799
0.818832
0.756699
0.726952
0.685941
0.813465
0.853772
0.818859
0.808416
0.821925
0.814836
0.786639
0.757691
0.809154
0.692602
0.791006
0.843291
0.826441
0.80068
0.863809
0.813211
0.816131
0.817119
0.83088
0.62832
0.798266
0.730341
0.797636
0.735083
0.818673
0.808505
0.786877
0.68566
0.814303
0.829845
0.811423
0.802793
0.803656
0.823995
0.803706
0.709783
0.790149
0.803048
0.814258
0.81357
0.812186
0.871448
0.827455
0.809219
0.831772
0.681402
0.823038
0.837316
0.815774
0.626913
0.814811
0.809007
0.845222
0.820978
0.80286
0.591405
0.809923
0.694967
0.805958
0.802832
0.811896
0.81305
0.825049
0.804927
0.811043
0.815611
0.723201
0.862718
0.801822
0.849928
0.815993
0.572841
0.803761
0.79652
0.811154
0.817245
0.6466
0.802758
0.809474
0.812822
0.806958
0.793713
0.815151
0.816903
0.795757
0.803573
0.821067
0.836656
0.729392
0.806124
0.809358
0.812701
0.681852
0.805055
0.815631
0.799017
0.803918
0.51925
0.832615
0.763114
0.814166
0.817326
0.830556
0.846009
0.815722
0.811154
0.715034
0.79868
0.852177
0.808043
0.709488
0.799993
0.802563
0.872038
0.845034
0.818665
0.801928
0.809512
0.755058
0.814969
0.813668
0.58393
0.8025
0.728663
0.750012
0.802939
0.810944
0.780829
0.821089
0.814803
0.837804
0.815585
0.800346
0.808574
0.738675
0.736336
0.804028
0.807674
0.820756
0.802047
0.751578
0.687889
0.813084
0.815
0.813844
0.593748
0.813203
0.816362
0.824376
0.802915
0.808328
0.819296
0.81169
0.839163
0.802921
0.812511
0.8234
0.815149
0.817469
0.821226
0.687829
0.784001
0.794508
0.80302
0.847372
0.802009
0.802405
0.634527
0.810554
0.813117
0.810585
0.818662
0.805639
0.812652
0.726635
0.843365
0.707843
0.800215
0.816931
0.80709
0.650589
0.684161
0.815078
0.805536
0.804082
0.785023
0.801473
0.828957
0.813126
0.804851
0.802003
0.811886
0.618985
0.811949
0.802883
0.697274
0.815171
0.615897
0.783568
0.815106
0.837569
0.805537
0.812046
0.792055
0.7952
0.803882
0.801376
0.811587
0.810952
0.808591
0.803186
0.757206
0.803984
0.812078
0.811531
0.815906
0.811091
0.815504
0.81446
0.834036
0.73748
0.806513
0.815231
0.80228
0.541249
0.681118
0.810975
0.812812
0.814771
0.780205
0.808053
0.812506
0.80303
0.799805
0.8026
0.819637
0.820464
0.814541
0.784455
0.8078
0.805291
0.540144
0.773605
0.756903
0.806209
0.735187
0.674503
0.797403
0.767277
0.827422
0.814456
0.814238
0.808234
0.539019
0.815319
0.582474
0.694695
0.824338
0.869566
0.740794
0.816192
0.852668
0.694282
0.814983
0.80888
0.81474
0.80722
0.655542
0.854351
0.737317
0.729205
0.803213
0.804486
0.799391
0.83329
0.814738
0.69036
0.8152
0.800211
0.69036
0.839265
0.797952
0.621239
0.772583
0.815271
0.807525
0.814375
0.784316
0.724234
0.769632
0.836841
0.688042
0.815533
0.816987
0.826618
0.764913
0.821722
0.690719
0.80448
0.659928
0.700181
0.800194
0.82249
0.788086
0.814105
0.814959
0.814772
0.813519
0.576025
0.802503
0.8145
0.742927
0.809951
0.814999
0.811368
0.715745
0.693353
0.740888
0.619158
0.807149
0.680875
0.815221
0.80183
0.81455
0.83683
0.686634
0.804181
0.819465
0.832241
0.737116
0.781427
0.764679
0.772713
0.811983
0.561162
0.671072
0.814859
0.805226
0.811962
0.804464
0.71206
0.779964
0.723641
0.760562
0.799459
0.831643
0.812107
0.690728
0.823068
0.817554
0.810525
0.684555
0.693906
0.680781
0.871982
0.81547
0.816262
0.608055
0.71087
0.640604
0.803317
0.80027
0.67114
0.811804
0.824237
0.748517
0.7993
0.72906
0.813732
0.691899
0.814277
0.810371
0.801157
0.803057
0.825314
0.743859
0.815325
0.814518
0.780138
0.550815
0.816057
0.810542
0.757441
0.813402
0.747528
0.802788
0.826171
0.656297
0.81777
0.802675
0.809891
0.58218
0.623894
0.734737
0.806279
0.811706
0.810432
0.82073
0.814539
0.815571
0.703936
0.801871
0.812773
0.825945
0.702975
0.725361
0.811829
0.811569
0.69556
0.814228
0.774121
0.702592
0.811785
0.69541
0.803908
0.661777
0.802861
0.730322
0.665931
0.810791
0.786007
0.74373
0.6304
0.839888
0.820979
0.814551
0.77002
0.813726
0.800001
0.785812
0.799802
0.801612
0.814804
0.730927
0.809601
0.799925
0.818417
0.597385
0.801258
0.81257
0.813534
0.811218
0.811781
0.745748
0.8027
0.763835
0.750265
0.818262
0.645263
0.818201
0.81732
0.803058
0.815225
0.816457
0.719668
0.768448
0.821785
0.785016
0.803672
0.81566
0.87495
0.817677
0.797948
0.81643
0.814896
0.793864
0.818127
0.816565
0.772975
0.696948
0.840977
0.796914
0.803148
0.822471
0.780829
0.817485
0.824701
0.818303
0.816505
0.870391
0.803077
0.804782
0.817903
0.803073
0.815013
0.806856
0.735086
0.814939
0.819364
0.753871
0.707319
0.814825
0.843026
0.822234
0.651196
0.821431
0.773426
0.807964
0.801824
0.729183
0.803104
0.798551
0.815372
0.816566
0.692331
0.703625
0.80213
0.787468
0.801447
0.824611
0.722288
0.814515
0.802341
0.800036
0.823177
0.814998
0.712117
0.815262
0.762818
0.802375
0.832474
0.803292
0.77301
0.797828
0.794582
0.814645
0.575581
0.814468
0.695738
0.676207
0.803398
0.81919
0.814525
0.802493
0.81467
0.808143
0.723378
0.787491
0.856959
0.802999
0.833301
0.807325
0.540623
0.762214
0.779445
0.646507
0.737071
0.577207
0.819886
0.812798
0.813662
0.802384
0.766635
0.683985
0.763977
0.752149
0.781865
0.814438
0.844755
0.819027
0.805736
0.819193
0.823514
0.802566
0.807406
0.703782
0.803064
0.755926
0.808575
0.797694
0.751085
0.822079
0.788275
0.803474
0.789439
0.840704
0.727399
0.800803
0.799307
0.804804
0.616685
0.815039
0.814916
0.821545
0.6297
0.814794
0.814801
0.798392
0.803777
0.793089
0.774872
0.806039
0.794261
0.815539
0.753148
0.803485
0.875162
0.762318
0.747425
0.806677
0.783881
0.842362
0.799578
0.779151
0.815107
0.798098
0.792408
0.807962
0.825249
0.835465
0.799641
0.572506
0.820091
0.827952
0.771955
0.830455
0.837983
0.822534
0.825969
0.807171
0.832661
0.826519
0.783602
0.80876
0.810942
0.805978
0.822356
0.803312
0.82723
0.792791
0.802967
0.805624
0.72588
0.806987
0.559735
0.817576
0.824983
0.828306
0.805573
0.817916
0.823564
0.819262
0.820445
0.83853
0.832818
0.787533
0.800255
0.821345
0.814964
0.816544
0.800101
0.806278
0.865402
0.819663
0.847141
0.814671
0.800515
0.824469
0.799624
0.833292
0.813026
0.814971
0.805176
0.725321
0.802821
0.804422
0.814606
0.803241
0.801787
0.821938
0.804443
0.804075
0.777703
0.819579
0.716697
0.813901
0.77986
0.75845
0.803468
0.81313
0.818846
0.714206
0.818936
0.815049
0.826404
0.816683
0.789383
0.815856
0.847115
0.832831
0.8146
0.811571
0.801465
0.743082
0.676122
0.814605
0.820356
0.77041
0.813973
0.807607
0.811361
0.805266
0.798312
0.775922
0.802317
0.799892
0.841205
0.816974
0.81121
0.806126
0.602079
0.730214
0.802051
0.782951
0.80394
0.815273
0.805752
0.815625
0.779565
0.814677
0.804634
0.810238
0.803562
0.817433
0.803131
0.815408
0.810449
0.815402
0.812393
0.716421
0.814056
0.815215
0.59583
0.814438
0.796596
0.802611
0.858574
0.81794
0.810255
0.872339
0.814838
0.814919
0.8164
0.818419
0.814845
0.763917
0.830152
0.801132
0.80303
0.814127
0.814783
0.816279
0.814633
0.813005
0.822618
0.803832
0.812076
0.808879
0.814912
0.819799
0.814652
0.811349
0.818861
0.808756
0.696866
0.658157
0.802486
0.808313
0.80319
0.810846
0.817959
0.816689
0.802753
0.803574
0.800371
0.800653
0.816468
0.844146
0.818117
0.811248
0.818064
0.817736
0.845789
0.817052
0.820824
0.785397
0.815373
0.806627
0.800992
0.791812
0.810358
0.818074
0.814482
0.814704
0.835838
0.805695
0.812196
0.816185
0.821338
0.803358
0.803038
0.80535
0.810421
0.814599
0.801396
0.802634
0.816452
0.822317
0.800597
0.585297
0.804099
0.796533
0.816978
0.798435
0.80262
0.74777
0.840547
0.802579
0.799542
0.834479
0.829385
0.810032
0.825841
0.800264
0.817411
0.817013
0.818266
0.803453
0.817847
0.726994
0.821905
0.811336
0.799878
0.812826
0.820097
0.798938
0.803826
0.781895
0.814965
0.814881
0.814991
0.818056
0.806243
0.816598
0.815287
0.825681
0.821795
0.837359
0.805729
0.694512
0.81749
0.840362
0.819329
0.804401
0.799842
0.80315
0.815821
0.81391
0.815495
0.743398
0.737212
0.800518
0.802798
0.815167
0.816108
0.798276
0.651415
0.707645
0.807835
0.768913
0.815333
0.702313
0.802967
0.72747
0.803116
0.819698
0.803052
0.816832
0.812267
0.798407
0.808375
0.79303
0.829675
0.815022
0.800978
0.803299
0.815369
0.821226
0.74873
0.822288
0.803558
0.783011
0.814895
0.803655
0.810206
0.814052
0.814471
0.834987
0.792272
0.798746
0.81477
0.758448
0.806388
0.814193
0.800829
0.815438
0.841023
0.802042
0.842958
0.808298
0.789968
0.811269
0.802548
0.851741
0.788235
0.803049
0.815474
0.831249
0.808172
0.813147
0.815172
0.802666
0.802577
0.825752
0.782268
0.813706
0.814754
0.642005
0.814959
0.711976
0.817415
0.837937
0.82407
0.803738
0.813956
0.814605
0.724987
0.814141
0.800533
0.801402
0.80063
0.815187
0.863651
0.801026
0.800737
0.78512
0.84033
0.82777
0.819099
0.812678
0.746191
0.803037
0.803267
0.730116
0.799114
0.713657
0.8099
0.800802
0.675483
0.880124
0.701707
0.771928
0.800954
0.742567
0.808162
0.798646
0.80296
0.659365
0.796551
0.783821
0.798687
0.727684
0.818182
0.821977
0.88446
0.809239
0.830985
0.64408
0.799662
0.786426
0.743531
0.750642
0.768374
0.704903
0.802971
0.799015
0.803045
0.763143
0.62599
0.81121
0.611574
0.820658
0.822463
0.811284
0.736308
0.811634
0.794905
0.818614
0.782451
0.806642
0.796948
0.809409
0.715986
0.801257
0.721646
0.801103
0.798488
0.684675
0.803411
0.814499
0.814563
0.802992
0.760678
0.814334
0.732173
0.689925
0.802145
0.81456
0.874287
0.814458
0.813846
0.880475
0.865294
0.83058
0.718001
0.801786
0.811677
0.821003
0.797498
0.679701
0.722025
0.674559
0.802276
0.70478
0.76801
0.799145
0.614526
0.688609
0.835802
0.773066
0.744721
0.830084
0.75863
0.769046
0.627914
0.730713
0.784627
0.819214
0.869369
0.837501
0.814909
0.794147
0.79941
0.715071
0.814758
0.693289
0.796836
0.814537
0.783319
0.76202
0.801208
0.782319
0.802057
0.800521
0.811084
0.810869
0.866987
0.566832
0.536761
0.802228
0.806531
0.697439
0.809712
0.802668
0.837219
0.803353
0.802251
0.56586
0.553051
0.808203
0.811744
0.81467
0.725441
0.803061
0.810045
0.683541
0.810759
0.802576
0.81317
0.803094
0.800118
0.802122
0.813617
0.802848
0.816813
0.803092
0.861892
0.813974
0.802393
0.72113
0.669052
0.814713
0.583913
0.812235
0.809792
0.83555
0.813238
0.802906
0.810527
0.812664
0.812454
0.814288
0.801465
0.85364
0.856255
0.802057
0.654043
0.807897
0.822195
0.799282
0.803068
0.819502
0.733166
0.80317
0.824799
0.820849
0.815032
0.814548
0.766193
0.745357
0.800551
0.833643
0.802584
0.813796
0.804255
0.803456
0.804792
0.813295
0.808612
0.798448
0.806689
0.805787
0.824347
0.806502
0.806101
0.816909
0.806621
0.803305
0.81239
0.802875
0.802735
0.805632
0.807597
0.812531
0.773265
0.805159
0.802603
0.81445
0.799497
0.803606
0.806675
0.831447
0.804866
0.648637
0.800603
0.814726
0.804499
0.814561
0.762614
0.814492
0.750096
0.803534
0.802069
0.803909
0.818704
0.850774
0.80421
0.803184
0.746893
0.829162
0.814442
0.819815
0.824727
0.814213
0.735872
0.817466
0.721128
0.800896
0.827131
0.802258
0.69856
0.825353
0.814206
0.815665
0.823598
0.814866
0.772977
0.81649
0.646773
0.709326
0.814537
0.822069
0.674115
0.818674
0.657928
0.820866
0.806545
0.81598
0.803096
0.805332
0.814337
0.831358
0.824908
0.670502
0.812521
0.841708
0.781199
0.845994
0.800131
0.704669
0.838156
0.818902
0.835173
0.686816
0.681777
0.832481
0.655208
0.830173
0.814554
0.828131
0.806121
0.826403
0.787465
0.824889
0.823488
0.706503
0.865463
0.822285
0.821269
0.823424
0.758744
0.802721
0.522028
0.802693
0.820384
0.813019
0.804578
0.825449
0.814488
0.797777
0.819605
0.802898
0.678401
0.792214
0.833963
0.813881
0.714986
0.798815
0.82138
0.574496
0.814242
0.815076
0.802469
0.809749
0.725405
0.817469
0.80294
0.803369
0.795797
0.793532
0.797747
0.794551
0.80322
0.811886
0.819143
0.813593
0.571384
0.892892
0.704964
0.797722
0.738982
0.791277
0.814465
0.815191
0.815072
0.603488
0.818534
0.817038
0.803751
0.817532
0.836359
0.839276
0.782692
0.798299
0.799338
0.724301
0.752187
0.814735
0.763621
0.814997
0.818589
0.814302
0.813322
0.801856
0.77489
0.811883
0.815615
0.727963
0.810421
0.815392
0.817639
0.807632
0.809299
0.764247
0.814078
0.808021
0.803077
0.807266
0.615555
0.806329
0.804173
0.805752
0.820882
0.845347
0.804542
0.7738
0.805116
0.771363
0.81983
0.805402
0.812247
0.814474
0.849966
0.803291
0.744101
0.819614
0.814732
0.72664
0.800696
0.815757
0.758238
0.812121
0.56811
0.806404
0.685178
0.800996
0.810789
0.812001
0.816755
0.804062
0.815329
0.817273
0.800868
0.804122
0.844147
0.815675
0.796053
0.815747
0.801734
0.801302
0.800133
0.80109
0.806715
0.814106
0.801453
0.769524
0.817972
0.812605
0.808712
0.814484
0.585658
0.803195
0.813515
0.814784
0.787101
0.747807
0.718952
0.811985
0.814329
0.825555
0.78896
0.602009
0.771176
0.639019
0.816264
0.745029
0.811705
0.829937
0.693996
0.799524
0.83352
0.748907
0.800467
0.803073
0.815077
0.801979
0.698356
0.800557
0.547146
0.801618
0.802326
0.802092
0.56527
0.802837
0.80332
0.803073
0.728119
0.737015
0.803319
0.776087
0.815136
0.721701
0.706208
0.81453
0.801202
0.7522
0.853923
0.813329
0.811765
0.66871
0.802675
0.800428
0.800323
0.802371
0.655841
0.803128
0.814792
0.653697
0.684843
0.805659
0.790103
0.814618
0.822864
0.814521
0.814722
0.815964
0.803543
0.814693
0.81446
0.813078
0.829017
0.802314
0.801679
0.810174
0.726131
0.809421
0.814316
0.862589
0.810636
0.637209
0.774203
0.802073
0.775917
0.816218
0.81134
0.829721
0.813847
0.864391
0.801752
0.814088
0.592684
0.815394
0.833552
0.802832
0.813746
0.624047
0.814919
0.802629
0.816175
0.802128
0.817053
0.815465
0.754542
0.803446
0.80307
0.834811
0.861695
0.819436
0.815598
0.725145
0.740911
0.802412
0.802919
0.811806
0.817605
0.799394
0.802751
0.819052
0.806095
0.807385
0.73933
0.802618
0.817053
0.813494
0.767933
0.760351
0.811284
0.796275
0.856775
0.718273
0.834267
0.810537
0.711727
0.799541
0.813944
0.787321
0.800569
0.799582
0.814547
0.776949
0.774333
0.812875
0.696641
0.798491
0.765122
0.814405
0.816793
0.801872
0.787208
0.73798
0.751855
0.773623
0.814114
0.818492
0.805345
0.656563
0.801766
0.795397
0.777652
0.809586
0.812444
0.799393
0.802976
0.632538
0.803824
0.804449
0.851048
0.80359
0.808879
0.832992
0.805128
0.809661
0.85198
0.611651
0.803921
0.81566
0.805269
0.804883
0.805569
0.804455
0.804551
0.804073
0.805653
0.806154
0.724021
0.805543
0.806839
0.806388
0.814638
0.807971
0.81813
0.803037
0.803405
0.81422
0.814401
0.809558
0.803297
0.816071
0.812949
0.809411
0.815551
0.707711
0.813425
0.831184
0.814418
0.854035
0.749309
0.807643
0.814469
0.800606
0.598892
0.803166
0.771992
0.821469
0.62656
0.815077
0.829185
0.814152
0.81147
0.801967
0.826826
0.818854
0.803456
0.764398
0.81661
0.758268
0.545927
0.81381
0.695502
0.694305
0.820237
0.827294
0.827098
0.816206
0.847279
0.570081
0.876532
0.805094
0.82558
0.823898
0.812502
0.680988
0.814341
0.822346
0.815912
0.800808
0.773531
0.822108
0.564518
0.81273
0.842908
0.803028
0.839331
0.821098
0.803223
0.66826
0.843056
0.820031
0.836127
0.800719
0.813432
0.802994
0.833478
0.802712
0.81335
0.831038
0.828879
0.821868
0.823908
0.830612
0.738889
0.660303
0.562764
0.827021
0.825484
0.766968
0.756048
0.805967
0.824043
0.846631
0.589959
0.822751
0.82165
0.82073
0.819186
0.80379
0.820628
0.656734
0.743676
0.81992
0.797179
0.869792
0.889991
0.776123
0.803532
0.668937
0.835317
0.729721
0.717718
0.818975
0.801491
0.783208
0.659537
0.802067
0.814567
0.788659
0.710766
0.8001
0.816998
0.797819
0.675206
0.823209
0.792627
0.815262
0.832962
0.814995
0.795304
0.815714
0.81547
0.785644
0.803853
0.70978
0.840426
0.792874
0.810685
0.781673
0.804246
0.695093
0.80068
0.813327
0.811963
0.810796
0.809269
0.808178
0.807421
0.805793
0.804683
0.806603
0.724292
0.805233
0.801317
0.795739
0.803186
0.844257
0.714329
0.803115
0.775885
0.883836
0.854092
0.797854
0.722738
0.803145
0.797552
0.718353
0.803197
0.801539
0.73359
0.803518
0.789537
0.797087
0.800932
0.736941
0.779275
0.804103
0.746683
0.764083
0.768952
0.801254
0.814203
0.808448
0.758126
0.750921
0.799388
0.813216
0.803222
0.792623
0.800977
0.928589
0.860375
0.817327
0.814356
0.723567
0.844091
0.747176
0.825846
0.816232
0.898034
0.814529
0.796937
0.587621
0.814563
0.797052
0.8146
0.797472
0.845341
0.519348
0.832527
0.801433
0.805446
0.804719
0.803611
0.855589
0.801141
0.816958
0.701071
0.658915
0.666097
0.814647
0.501279
0.797482
0.721212
0.841585
0.814489
0.556821
0.801756
0.814057
0.813725
0.718529
0.801544
0.523456
0.79697
0.814788
0.797089
0.802599
0.797329
0.814963
0.833681
0.803212
0.798036
0.815365
0.798301
0.815518
0.813756
0.798582
0.815692
0.813281
0.815895
0.79869
0.816122
0.678974
0.798883
0.816376
0.80299
0.799073
0.816631
0.697072
0.814557
0.798049
0.814495
0.798133
0.809599
0.838049
0.861095
0.800809
0.800158
0.817581
0.815175
0.799801
0.799425
0.863256
0.811928
0.81725
0.810051
0.849681
0.828188
0.816221
0.825409
0.845962
0.814495
0.801286
0.818829
0.81134
0.80171
0.814391
0.799811
0.807228
0.78286