# vtk DataFile Version 1.0
unstructured grid
ascii
DATASET UNSTRUCTURED_GRID
points 7812 float
-1 0 0
-1 1 0
2 0 0
2 1 0
0 0 0
1 0 0
-1 1 0.1
-1 0 0.1
0 0 0.1
1 0 0.1
2 0 0.1
2 1 0.1
-0.99 0 0
-0.98 0 0
-0.97 0 0
-0.96 0 0
-0.95 0 0
-0.94 0 0
-0.93 0 0
-0.92 0 0
-0.91 0 0
-0.9 0 0
-0.89 0 0
-0.88 0 0
-0.87 0 0
-0.86 0 0
-0.85 0 0
-0.84 0 0
-0.83 0 0
-0.82 0 0
-0.81 0 0
-0.8 0 0
-0.79 0 0
-0.78 0 0
-0.77 0 0
-0.76 0 0
-0.75 0 0
-0.74 0 0
-0.73 0 0
-0.72 0 0
-0.71 0 0
-0.7 0 0
-0.69 0 0
-0.68 0 0
-0.67 0 0
-0.66 0 0
-0.65 0 0
-0.64 0 0
-0.63 0 0
-0.62 0 0
-0.61 0 0
-0.6 0 0
-0.59 0 0
-0.58 0 0
-0.57 0 0
-0.56 0 0
-0.55 0 0
-0.54 0 0
-0.53 0 0
-0.52 0 0
-0.51 0 0
-0.5 0 0
-0.49 0 0
-0.48 0 0
-0.47 0 0
-0.46 0 0
-0.45 0 0
-0.44 0 0
-0.43 0 0
-0.42 0 0
-0.41 0 0
-0.4 0 0
-0.39 0 0
-0.38 0 0
-0.37 0 0
-0.36 0 0
-0.35 0 0
-0.34 0 0
-0.33 0 0
-0.32 0 0
-0.31 0 0
-0.3 0 0
-0.29 0 0
-0.28 0 0
-0.27 0 0
-0.26 0 0
-0.25 0 0
-0.24 0 0
-0.23 0 0
-0.22 0 0
-0.21 0 0
-0.2 0 0
-0.19 0 0
-0.18 0 0
-0.17 0 0
-0.16 0 0
-0.15 0 0
-0.14 0 0
-0.13 0 0
-0.12 0 0
-0.11 0 0
-0.1 0 0
-0.09 0 0
-0.08 0 0
-0.07 0 0
-0.06 0 0
-0.05 0 0
-0.04 0 0
-0.03 0 0
-0.02 0 0
-0.01 0 0
1.01 0 0
1.02 0 0
1.03 0 0
1.04 0 0
1.05 0 0
1.06 0 0
1.07 0 0
1.08 0 0
1.09 0 0
1.1 0 0
1.11 0 0
1.12 0 0
1.13 0 0
1.14 0 0
1.15 0 0
1.16 0 0
1.17 0 0
1.18 0 0
1.19 0 0
1.2 0 0
1.21 0 0
1.22 0 0
1.23 0 0
1.24 0 0
1.25 0 0
1.26 0 0
1.27 0 0
1.28 0 0
1.29 0 0
1.3 0 0
1.31 0 0
1.32 0 0
1.33 0 0
1.34 0 0
1.35 0 0
1.36 0 0
1.37 0 0
1.38 0 0
1.39 0 0
1.4 0 0
1.41 0 0
1.42 0 0
1.43 0 0
1.44 0 0
1.45 0 0
1.46 0 0
1.47 0 0
1.48 0 0
1.49 0 0
1.5 0 0
1.51 0 0
1.52 0 0
1.53 0 0
1.54 0 0
1.55 0 0
1.56 0 0
1.57 0 0
1.58 0 0
1.59 0 0
1.6 0 0
1.61 0 0
1.62 0 0
1.63 0 0
1.64 0 0
1.65 0 0
1.66 0 0
1.67 0 0
1.68 0 0
1.69 0 0
1.7 0 0
1.71 0 0
1.72 0 0
1.73 0 0
1.74 0 0
1.75 0 0
1.76 0 0
1.77 0 0
1.78 0 0
1.79 0 0
1.8 0 0
1.81 0 0
1.82 0 0
1.83 0 0
1.84 0 0
1.85 0 0
1.86 0 0
1.87 0 0
1.88 0 0
1.89 0 0
1.9 0 0
1.91 0 0
1.92 0 0
1.93 0 0
1.94 0 0
1.95 0 0
1.96 0 0
1.97 0 0
1.98 0 0
1.99 0 0
2 0.010289 0
2 0.0215307 0
2 0.0338135 0
2 0.0472336 0
2 0.0618965 0
2 0.0779171 0
2 0.0954213 0
2 0.114546 0
2 0.135442 0
2 0.158274 0
2 0.183219 0
2 0.210474 0
2 0.240253 0
2 0.27279 0
2 0.308339 0
2 0.347181 0
2 0.389619 0
2 0.435987 0
2 0.486649 0
2 0.542002 0
2 0.602481 0
2 0.66856 0
2 0.740758 0
2 0.819642 0
2 0.90583 0
1.9 1 0
1.8 1 0
1.7 1 0
1.6 1 0
1.5 1 0
1.4 1 0
1.3 1 0
1.2 1 0
1.1 1 0
1 1 0
0.9 1 0
0.8 1 0
0.7 1 0
0.6 1 0
0.5 1 0
0.4 1 0
0.3 1 0
0.2 1 0
0.1 1 0
3.69793e-12 1 0
-0.1 1 0
-0.2 1 0
-0.3 1 0
-0.4 1 0
-0.5 1 0
-0.6 1 0
-0.7 1 0
-0.8 1 0
-0.9 1 0
-1 0.90583 0
-1 0.819642 0
-1 0.740758 0
-1 0.66856 0
-1 0.602481 0
-1 0.542002 0
-1 0.486649 0
-1 0.435987 0
-1 0.389619 0
-1 0.347181 0
-1 0.308339 0
-1 0.27279 0
-1 0.240253 0
-1 0.210474 0
-1 0.183219 0
-1 0.158274 0
-1 0.135442 0
-1 0.114546 0
-1 0.0954213 0
-1 0.0779171 0
-1 0.0618965 0
-1 0.0472336 0
-1 0.0338135 0
-1 0.0215307 0
-1 0.010289 0
0.00921362 0.00379763 0
0.0184561 0.00752451 0
0.0277268 0.0111804 0
0.0370253 0.0147652 0
0.0463511 0.0182786 0
0.0557034 0.0217203 0
0.0650819 0.0250903 0
0.074486 0.0283883 0
0.083915 0.0316141 0
0.0933685 0.0347675 0
0.102846 0.0378484 0
0.112347 0.0408565 0
0.12187 0.0437917 0
0.131416 0.0466538 0
0.140983 0.0494427 0
0.150572 0.0521581 0
0.160181 0.0547999 0
0.16981 0.0573681 0
0.179458 0.0598623 0
0.189125 0.0622825 0
0.198811 0.0646285 0
0.208514 0.0669001 0
0.218234 0.0690974 0
0.227971 0.07122 0
0.237724 0.073268 0
0.247493 0.0752411 0
0.257276 0.0771393 0
0.267073 0.0789625 0
0.276884 0.0807105 0
0.286708 0.0823832 0
0.296545 0.0839806 0
0.306394 0.0855025 0
0.316254 0.0869488 0
0.326125 0.0883196 0
0.336006 0.0896146 0
0.345896 0.0908339 0
0.355796 0.0919773 0
0.365704 0.0930447 0
0.375621 0.0940362 0
0.385544 0.0949517 0
0.395474 0.095791 0
0.40541 0.0965542 0
0.415352 0.0972412 0
0.425299 0.097852 0
0.43525 0.0983865 0
0.445205 0.0988447 0
0.455164 0.0992266 0
0.465125 0.0995321 0
0.475088 0.0997613 0
0.485052 0.0999141 0
0.495017 0.0999904 0
0.504983 0.0999904 0
0.514948 0.0999141 0
0.524912 0.0997613 0
0.534875 0.0995321 0
0.544836 0.0992266 0
0.554795 0.0988447 0
0.56475 0.0983865 0
0.574701 0.097852 0
0.584648 0.0972412 0
0.59459 0.0965542 0
0.604526 0.095791 0
0.614456 0.0949517 0
0.624379 0.0940362 0
0.634296 0.0930447 0
0.644204 0.0919773 0
0.654104 0.0908339 0
0.663994 0.0896146 0
0.673875 0.0883196 0
0.683746 0.0869488 0
0.693606 0.0855025 0
0.703455 0.0839806 0
0.713292 0.0823832 0
0.723116 0.0807105 0
0.732927 0.0789625 0
0.742724 0.0771393 0
0.752508 0.0752411 0
0.762276 0.073268 0
0.772029 0.07122 0
0.781766 0.0690974 0
0.791486 0.0669001 0
0.801189 0.0646285 0
0.810875 0.0622825 0
0.820542 0.0598623 0
0.83019 0.0573681 0
0.839819 0.0547999 0
0.849428 0.0521581 0
0.859017 0.0494427 0
0.868584 0.0466538 0
0.87813 0.0437917 0
0.887653 0.0408565 0
0.897154 0.0378484 0
0.906631 0.0347675 0
0.916085 0.0316141 0
0.925514 0.0283883 0
0.934918 0.0250903 0
0.944297 0.0217203 0
0.953649 0.0182786 0
0.962975 0.0147652 0
0.972273 0.0111804 0
0.981544 0.00752451 0
0.990786 0.00379763 0
-1 0.90583 0.1
-1 0.819642 0.1
-1 0.740758 0.1
-1 0.66856 0.1
-1 0.602481 0.1
-1 0.542002 0.1
-1 0.486649 0.1
-1 0.435987 0.1
-1 0.389619 0.1
-1 0.347181 0.1
-1 0.308339 0.1
-1 0.27279 0.1
-1 0.240253 0.1
-1 0.210474 0.1
-1 0.183219 0.1
-1 0.158274 0.1
-1 0.135442 0.1
-1 0.114546 0.1
-1 0.0954213 0.1
-1 0.0779171 0.1
-1 0.0618965 0.1
-1 0.0472336 0.1
-1 0.0338135 0.1
-1 0.0215307 0.1
-1 0.010289 0.1
-0.99 0 0.1
-0.98 0 0.1
-0.97 0 0.1
-0.96 0 0.1
-0.95 0 0.1
-0.94 0 0.1
-0.93 0 0.1
-0.92 0 0.1
-0.91 0 0.1
-0.9 0 0.1
-0.89 0 0.1
-0.88 0 0.1
-0.87 0 0.1
-0.86 0 0.1
-0.85 0 0.1
-0.84 0 0.1
-0.83 0 0.1
-0.82 0 0.1
-0.81 0 0.1
-0.8 0 0.1
-0.79 0 0.1
-0.78 0 0.1
-0.77 0 0.1
-0.76 0 0.1
-0.75 0 0.1
-0.74 0 0.1
-0.73 0 0.1
-0.72 0 0.1
-0.71 0 0.1
-0.7 0 0.1
-0.69 0 0.1
-0.68 0 0.1
-0.67 0 0.1
-0.66 0 0.1
-0.65 0 0.1
-0.64 0 0.1
-0.63 0 0.1
-0.62 0 0.1
-0.61 0 0.1
-0.6 0 0.1
-0.59 0 0.1
-0.58 0 0.1
-0.57 0 0.1
-0.56 0 0.1
-0.55 0 0.1
-0.54 0 0.1
-0.53 0 0.1
-0.52 0 0.1
-0.51 0 0.1
-0.5 0 0.1
-0.49 0 0.1
-0.48 0 0.1
-0.47 0 0.1
-0.46 0 0.1
-0.45 0 0.1
-0.44 0 0.1
-0.43 0 0.1
-0.42 0 0.1
-0.41 0 0.1
-0.4 0 0.1
-0.39 0 0.1
-0.38 0 0.1
-0.37 0 0.1
-0.36 0 0.1
-0.35 0 0.1
-0.34 0 0.1
-0.33 0 0.1
-0.32 0 0.1
-0.31 0 0.1
-0.3 0 0.1
-0.29 0 0.1
-0.28 0 0.1
-0.27 0 0.1
-0.26 0 0.1
-0.25 0 0.1
-0.24 0 0.1
-0.23 0 0.1
-0.22 0 0.1
-0.21 0 0.1
-0.2 0 0.1
-0.19 0 0.1
-0.18 0 0.1
-0.17 0 0.1
-0.16 0 0.1
-0.15 0 0.1
-0.14 0 0.1
-0.13 0 0.1
-0.12 0 0.1
-0.11 0 0.1
-0.1 0 0.1
-0.09 0 0.1
-0.08 0 0.1
-0.07 0 0.1
-0.06 0 0.1
-0.05 0 0.1
-0.04 0 0.1
-0.03 0 0.1
-0.02 0 0.1
-0.01 0 0.1
0.00921362 0.00379763 0.1
0.0184561 0.00752451 0.1
0.0277268 0.0111804 0.1
0.0370253 0.0147652 0.1
0.0463511 0.0182786 0.1
0.0557034 0.0217203 0.1
0.0650819 0.0250903 0.1
0.074486 0.0283883 0.1
0.083915 0.0316141 0.1
0.0933685 0.0347675 0.1
0.102846 0.0378484 0.1
0.112347 0.0408565 0.1
0.12187 0.0437917 0.1
0.131416 0.0466538 0.1
0.140983 0.0494427 0.1
0.150572 0.0521581 0.1
0.160181 0.0547999 0.1
0.16981 0.0573681 0.1
0.179458 0.0598623 0.1
0.189125 0.0622825 0.1
0.198811 0.0646285 0.1
0.208514 0.0669001 0.1
0.218234 0.0690974 0.1
0.227971 0.07122 0.1
0.237724 0.073268 0.1
0.247493 0.0752411 0.1
0.257276 0.0771393 0.1
0.267073 0.0789625 0.1
0.276884 0.0807105 0.1
0.286708 0.0823832 0.1
0.296545 0.0839806 0.1
0.306394 0.0855025 0.1
0.316254 0.0869488 0.1
0.326125 0.0883196 0.1
0.336006 0.0896146 0.1
0.345896 0.0908339 0.1
0.355796 0.0919773 0.1
0.365704 0.0930447 0.1
0.375621 0.0940362 0.1
0.385544 0.0949517 0.1
0.395474 0.095791 0.1
0.40541 0.0965542 0.1
0.415352 0.0972412 0.1
0.425299 0.097852 0.1
0.43525 0.0983865 0.1
0.445205 0.0988447 0.1
0.455164 0.0992266 0.1
0.465125 0.0995321 0.1
0.475088 0.0997613 0.1
0.485052 0.0999141 0.1
0.495017 0.0999904 0.1
0.504983 0.0999904 0.1
0.514948 0.0999141 0.1
0.524912 0.0997613 0.1
0.534875 0.0995321 0.1
0.544836 0.0992266 0.1
0.554795 0.0988447 0.1
0.56475 0.0983865 0.1
0.574701 0.097852 0.1
0.584648 0.0972412 0.1
0.59459 0.0965542 0.1
0.604526 0.095791 0.1
0.614456 0.0949517 0.1
0.624379 0.0940362 0.1
0.634296 0.0930447 0.1
0.644204 0.0919773 0.1
0.654104 0.0908339 0.1
0.663994 0.0896146 0.1
0.673875 0.0883196 0.1
0.683746 0.0869488 0.1
0.693606 0.0855025 0.1
0.703455 0.0839806 0.1
0.713292 0.0823832 0.1
0.723116 0.0807105 0.1
0.732927 0.0789625 0.1
0.742724 0.0771393 0.1
0.752508 0.0752411 0.1
0.762276 0.073268 0.1
0.772029 0.07122 0.1
0.781766 0.0690974 0.1
0.791486 0.0669001 0.1
0.801189 0.0646285 0.1
0.810875 0.0622825 0.1
0.820542 0.0598623 0.1
0.83019 0.0573681 0.1
0.839819 0.0547999 0.1
0.849428 0.0521581 0.1
0.859017 0.0494427 0.1
0.868584 0.0466538 0.1
0.87813 0.0437917 0.1
0.887653 0.0408565 0.1
0.897154 0.0378484 0.1
0.906631 0.0347675 0.1
0.916085 0.0316141 0.1
0.925514 0.0283883 0.1
0.934918 0.0250903 0.1
0.944297 0.0217203 0.1
0.953649 0.0182786 0.1
0.962975 0.0147652 0.1
0.972273 0.0111804 0.1
0.981544 0.00752451 0.1
0.990786 0.00379763 0.1
1.01 0 0.1
1.02 0 0.1
1.03 0 0.1
1.04 0 0.1
1.05 0 0.1
1.06 0 0.1
1.07 0 0.1
1.08 0 0.1
1.09 0 0.1
1.1 0 0.1
1.11 0 0.1
1.12 0 0.1
1.13 0 0.1
1.14 0 0.1
1.15 0 0.1
1.16 0 0.1
1.17 0 0.1
1.18 0 0.1
1.19 0 0.1
1.2 0 0.1
1.21 0 0.1
1.22 0 0.1
1.23 0 0.1
1.24 0 0.1
1.25 0 0.1
1.26 0 0.1
1.27 0 0.1
1.28 0 0.1
1.29 0 0.1
1.3 0 0.1
1.31 0 0.1
1.32 0 0.1
1.33 0 0.1
1.34 0 0.1
1.35 0 0.1
1.36 0 0.1
1.37 0 0.1
1.38 0 0.1
1.39 0 0.1
1.4 0 0.1
1.41 0 0.1
1.42 0 0.1
1.43 0 0.1
1.44 0 0.1
1.45 0 0.1
1.46 0 0.1
1.47 0 0.1
1.48 0 0.1
1.49 0 0.1
1.5 0 0.1
1.51 0 0.1
1.52 0 0.1
1.53 0 0.1
1.54 0 0.1
1.55 0 0.1
1.56 0 0.1
1.57 0 0.1
1.58 0 0.1
1.59 0 0.1
1.6 0 0.1
1.61 0 0.1
1.62 0 0.1
1.63 0 0.1
1.64 0 0.1
1.65 0 0.1
1.66 0 0.1
1.67 0 0.1
1.68 0 0.1
1.69 0 0.1
1.7 0 0.1
1.71 0 0.1
1.72 0 0.1
1.73 0 0.1
1.74 0 0.1
1.75 0 0.1
1.76 0 0.1
1.77 0 0.1
1.78 0 0.1
1.79 0 0.1
1.8 0 0.1
1.81 0 0.1
1.82 0 0.1
1.83 0 0.1
1.84 0 0.1
1.85 0 0.1
1.86 0 0.1
1.87 0 0.1
1.88 0 0.1
[...]
CELL_DATA 7425
SCALARS rho float
LOOKUP_TABLE default
0.587007
0.805024
0.819482
0.82746
0.799358
0.819082
0.820858
0.814045
0.812886
0.738564
0.863459
0.810008
0.813806
0.827317
0.803655
0.817074
0.798694
0.813171
0.803459
0.767208
0.831218
0.822024
0.724712
0.827989
0.803865
0.702855
0.831151
0.848177
0.800151
0.807901
0.819314
0.725548
0.803605
0.651961
0.518966
0.827955
0.803498
0.814022
0.811118
0.827953
0.715843
0.702964
0.789923
0.702433
0.58628
0.748158
0.799242
0.81374
0.660997
0.719324
0.7463
0.80514
0.812335
0.799017
0.70993
0.620456
0.822847
0.800049
0.738434
0.70082
0.709261
0.807644
0.81314
0.799325
0.79876
0.817533
0.584205
0.773221
0.704892
0.807817
0.804129
0.803197
0.883379
0.821096
0.810819
0.812946
0.805036
0.800427
0.813147
0.757722
0.815897
0.807224
0.810196
0.78862
0.835862
0.801037
0.574291
0.829904
0.542277
0.848438
0.707131
0.72967
0.845141
0.803168
0.817322
0.75811
0.83599
0.787988
0.825564
0.802413
0.808018
0.738663
0.803278
0.828184
0.597095
0.811046
0.824312
0.707339
0.814911
0.799104
0.816631
0.784501
0.789742
0.812414
0.789655
0.786284
0.8312
0.8031
0.700294
0.629208
0.805036
0.777206
0.812849
0.790376
0.858899
0.838756
0.80768
0.804217
0.661089
0.503774
0.81439
0.654916
0.514856
0.867574
0.661298
0.799452
0.811081
0.72346
0.581849
0.724658
0.723123
0.809553
0.809549
0.707431
0.803098
0.779572
0.56532
0.788433
0.782533
0.827707
0.816709
0.704161
0.802846
0.744296
0.705339
0.803266
0.810409
0.830351
0.797502
0.651811
0.802486
0.703712
0.801042
0.829684
0.820387
0.802364
0.812969
0.784755
0.80626
0.800588
0.819636
0.804412
0.791101
0.799067
0.799832
0.739988
0.803635
0.758616
0.593849
0.707079
0.799619
0.79264
0.879771
0.831791
0.61173
0.82286
0.798574
0.827249
0.799814
0.813314
0.81251
0.803184
0.806926
0.704723
0.814927
0.819185
0.77005
0.797076
0.861005
0.807748
0.811788
0.811071
0.612746
0.838807
0.572866
0.531511
0.595351
0.600173
0.828084
0.879305
0.807512
0.798638
0.84134
0.812872
0.816604
0.820696
0.815119
0.637917
0.548435
0.813636
0.545311
0.592311
0.703573
0.811617
0.813978
0.812946
0.83308
0.812812
0.864087
0.710138
0.83517
0.712423
0.805152
0.803912
0.80194
0.713815
0.720282
0.619415
0.705794
0.863582
0.875258
0.806157
0.807681
0.798794
0.81148
0.715637
0.821538
0.800125
0.825631
0.794599
0.809757
0.721439
0.812713
0.82367
0.739638
0.528308
0.799807
0.736445
0.843248
0.814259
0.726656
0.815496
0.814756
0.849912
0.809423
0.803799
0.803246
0.825588
0.860722
0.80537
0.619176
0.848843
0.811917
0.805589
0.82748
0.837291
0.812898
0.821365
0.793475
0.814988
0.866487
0.849907
0.827269
0.836684
0.802649
0.817082
0.803186
0.75967
0.701084
0.580745
0.701121
0.802274
0.812796
0.815905
0.854599
0.779617
0.645659
0.827018
0.520543
0.774221
0.800917
0.646318
0.494803
0.639016
0.815114
0.813143
0.812871
0.812635
0.826652
0.774397
0.811461
0.802656
0.812808
0.84066
0.866985
0.833502
0.802707
0.706519
0.795832
0.83424
0.69149
0.798683
0.802032
0.86475
0.817022
0.592928
0.813302
0.740361
0.852194
0.731887
0.810019
0.90764
0.799804
0.795574
0.658861
0.635479
0.711881
0.780504
0.826477
0.81485
0.813603
0.882281
0.858055
0.799472
0.799108
0.826004
0.739109
0.802503
0.879357
0.801372
0.804629
0.800637
0.802558
0.812876
0.815639
0.816293
0.636046
0.829919
0.645286
0.808414
0.639162
0.802552
0.802223
0.840213
0.728538
0.816327
0.808493
0.816903
0.799445
0.802486
0.811218
0.696509
0.824444
0.812965
0.812838
0.80067
0.736795
0.55981
0.8064
0.810929
0.803182
0.812797
0.79467
0.502632
0.845945
0.813225
0.803839
0.785666
0.81317
0.804625
0.802981
0.816158
0.807497
0.822441
0.768546
0.812603
0.807754
0.562533
0.803053
0.640026
0.838716
0.636139
0.814616
0.87787
0.592914
0.818041
0.748875
0.804401
0.873314
0.533465
0.823054
0.82219
0.803487
0.825673
0.811019
0.82339
0.830577
0.824771
0.739573
0.827458
0.761661
0.81016
0.794217
0.793568
0.758518
0.805584
0.802081
0.814393
0.752114
0.804662
0.604314
0.614107
0.688829
0.81272
0.84415
0.864801
0.829822
0.798518
0.812547
0.804843
0.818455
0.680418
0.800934
0.742869
0.824007
0.814719
0.805321
0.711994
0.727143
0.533481
0.605508
0.801236
0.611286
0.792516
0.765331
0.769987
0.727152
0.762388
0.767454
0.809349
0.814848
0.819478
0.811373
0.710333
0.601895
0.838981
0.806856
0.783111
0.809761
0.802532
0.836504
0.717968
0.855243
0.763662
0.728166
0.764432
0.81143
0.544817
0.798766
0.841566
0.813243
0.813697
0.80963
0.799102
0.780218
0.835656
0.803101
0.842924
0.721023
0.707579
0.800297
0.795093
0.821953
0.708607
0.847916
0.800358
0.815974
0.798669
0.779137
0.808192
0.594504
0.677345
0.632328
0.812848
0.803764
0.826293
0.749188
0.810582
0.814715
0.820323
0.798915
0.729187
0.796806
0.814223
0.803192
0.702965
0.813504
0.818839
0.839975
0.810687
0.825273
0.862262
0.857238
0.743833
0.603304
0.837991
0.805757
0.843344
0.814142
0.822862
0.813434
0.813716
0.632987
0.805118
0.80924
0.812728
0.791848
0.810541
0.804704
0.860412
0.798601
0.812642
0.814632
0.87189
0.597524
0.813372
0.842338
0.883296
0.53029
0.816327
0.829891
0.796123
0.814731
0.794897
0.867566
0.812144
0.831293
0.812642
0.619254
0.802381
0.804137
0.690662
0.853107
0.759772
0.801789
0.813893
0.812624
0.8596
0.795333
0.833566
0.834668
0.78422
0.825134
0.842271
0.799682
0.810426
0.806894
0.805304
0.814775
0.802625
0.84518
0.769212
0.809766
0.803147
0.815163
0.723048
0.812802
0.818282
0.752541
0.813499
0.816295
0.827497
0.825055
0.800666
0.800619
0.850466
0.767942
0.825064
0.844162
0.804547
0.505405
0.812809
0.828221
0.852354
0.81257
0.803145
0.808509
0.855013
0.780071
0.802576
0.801188
0.812845
0.726979
0.802681
0.829959
0.80795
0.794953
0.793445
0.843153
0.806596
0.845283
0.802016
0.824188
0.812681
0.804208
0.841817
0.812779
0.679305
0.818709
0.807088
0.812753
0.906131
0.800772
0.815833
0.800451
0.80036
0.81613
0.800466
0.80335
0.783727
0.747321
0.806432
0.812806
0.757959
0.791338
0.822961
0.813004
0.822194
0.806283
0.825713
0.875281
0.830594
0.574535
0.708738
0.840707
0.817217
0.844116
0.814687
0.850066
0.807276
0.812353
0.799298
0.838363
0.860898
0.852753
0.731439
0.814008
0.822117
0.744
0.817036
0.775896
0.800189
0.732994
0.815992
0.830811
0.823445
0.861739
0.814137
0.813214
0.81011
0.814568
0.83575
0.812187
0.798611
0.81022
0.737466
0.811262
0.774183
0.832793
0.812701
0.638714
0.777607
0.811087
0.799131
0.819761
0.802422
0.814601
0.817229
0.804419
0.819333
0.804155
0.805789
0.597052
0.847001
0.825073
0.826646
0.814858
0.803215
0.701772
0.806423
0.907822
0.813512
0.800975
0.812805
0.782251
0.807194
0.813209
0.821224
0.814622
0.813144
0.816167
0.702252
0.777789
0.764515
0.812577
0.805283
0.800972
0.621233
0.805654
0.802583
0.708107
0.837137
0.81713
0.802158
0.807399
0.79936
0.817182
0.813885
0.813206
0.81279
0.709618
0.831649
0.800266
0.807348
0.842746
0.817558
0.816224
0.800132
0.753635
0.82378
0.787356
0.821373
0.78939
0.805575
0.82089
0.737501
0.817343
0.650259
0.872
0.704257
0.844964
0.800741
0.875135
0.793654
0.801651
0.820608
0.836167
0.838376
0.825418
0.819764
0.814641
0.801072
0.804168
0.808218
0.725588
0.827204
0.800074
0.719719
0.830488
0.706695
0.799947
0.860299
0.805569
0.701225
0.797826
0.81401
0.705132
0.785653
0.819321
0.831815
0.806893
0.57251
0.728489
0.81237
0.801271
0.812839
0.800625
0.73716
0.81394
0.815646
0.812406
0.775312
0.803259
0.804481
0.803515
0.560306
0.812626
0.834072
0.579602
0.815093
0.816033
0.814623
0.818295
0.814347
0.824481
0.799026
0.795107
0.771035
0.822863
0.829633
0.825073
0.834808
0.765294
0.808927
0.724262
0.772351
0.808746
0.821012
0.813205
0.800964
0.858189
0.812843
0.800273
0.809518
0.816027
0.815116
0.836583
0.81442
0.812724
0.811968
0.813742
0.800085
0.820934
0.803756
0.82277
0.813388
0.575335
0.813436
0.834415
0.857974
0.838146
0.49044
0.81674
0.804479
0.496297
0.669213
0.642905
0.834254
0.807929
0.811638
0.812719
0.803201
0.816681
0.810925
0.534373
0.686316
0.818209
0.806615
0.815545
0.8035
0.81022
0.810828
0.820178
0.799475
0.692081
0.855826
0.803147
0.8147
0.813547
0.757725
0.485372
0.832844
0.813505
0.742019
0.802698
0.806147
0.590661
0.82748
0.814712
0.827666
0.818716
0.825916
0.80472
0.71925
0.643465
0.561924
0.82526
0.808455
0.782976
0.812888
0.779735
0.817823
0.87329
0.762315
0.821548
0.813452
0.825782
0.883542
0.814369
0.811757
0.803252
0.813852
0.6916
0.828154
0.799838
0.810103
0.802192
0.784225
0.854125
0.821982
0.840448
0.821462
0.757602
0.755858
0.803253
0.818039
0.803059
0.805234
0.802573
0.775587
0.814612
0.761512
0.821082
0.661972
0.813898
0.802948
0.735787
0.823214
0.81792
0.739931
0.801151
0.757155
0.880531
0.800714
0.812754
0.762621
0.800029
0.814197
0.80394
0.589727
0.820894
0.798612
0.801285
0.814451
0.825559
0.757061
0.805466
0.841544
0.82687
0.814065
0.83579
0.701214
0.70007
0.812839
0.744101
0.822157
0.771318
0.812746
0.802506
0.810351
0.751899
0.794179
0.764264
0.809819
0.803139
0.631099
0.778972
0.799226
0.84892
0.814293
0.828596
0.526224
0.825313
0.785096
0.858702
0.800931
0.817945
0.800227
0.785732
0.798693
0.825658
0.835728
0.821718
0.817052
0.707085
0.773772
0.815298
0.80537
0.809894
0.803899
0.707084
0.792779
0.803431
0.81059
0.827112
0.85118
0.8318
0.813386
0.799375
0.804183
0.801986
0.779599
0.611487
0.800264
0.731185
0.661803
0.822748
0.798793
0.777271
0.799925
0.754104
0.785271
0.811369
0.822123
0.803288
0.815939
0.817298
0.820619
0.813309
0.808426
0.71208
0.699312
0.640806
0.829224
0.869539
0.815321
0.841302
0.847799
0.86371
0.735542
0.816527
0.862983
0.810134
0.812783
0.81614
0.732699
0.812353
0.806591
0.80613
0.516992
0.81288
0.76112
0.813076
0.813767
0.803534
0.705692
0.813116
0.610488
0.824983
0.802231
0.822198
0.855128
0.803421
0.795352
0.820869
0.811501
0.805674
0.762197
0.509505
0.820834
0.803072
0.828854
0.825704
0.802034
0.807011
0.834422
0.720728
0.500061
0.886241
0.800527
0.815616
0.804311
0.710583
0.798574
0.799948
0.814989
0.73594
0.646401
0.883228
0.714067
0.8365
0.811904
0.832837
0.842619
0.792111
0.804734
0.813517
0.852748
0.738251
0.870679
0.813938
0.562644
0.802396
0.748952
0.852874
0.760216
0.804206
0.803944
0.799577
0.801565
0.808799
0.812818
0.855458
0.805924
0.802861
0.801303
0.799951
0.812151
0.816802
0.802611
0.812395
0.849166
0.803094
0.783395
0.802227
0.839508
0.724847
0.813548
0.813748
0.636041
0.713014
0.805528
0.822964
0.803488
0.511413
0.856225
0.813135
0.832917
0.805294
0.803306
0.801317
0.786181
0.587047
0.804278
0.816028
0.835953
0.820499
0.812862
0.798095
0.746837
0.801552
0.765693
0.787507
0.799274
0.790939
0.751063
0.800788
0.811388
0.810289
0.832157
0.848975
0.553032
0.841857
0.812753
0.820829
0.801951
0.822636
0.810986
0.894596
0.800187
0.866989
0.805671
0.75969
0.862094
0.802267
0.800232
0.824101
0.660292
0.645177
0.803386
0.803843
0.705438
0.654198
0.79989
0.82379
0.812943
0.822524
0.732842
0.817134
0.812755
0.826072
0.816885
0.811926
0.812774
0.754519
0.803833
0.815605
0.81124
0.676128
0.566267
0.812811
0.649899
0.721853
0.55492
0.841351
0.800065
0.526619
0.600628
0.827472
0.908054
0.818077
0.652206
0.81408
0.786377
0.801666
0.786329
0.820576
0.810037
0.788254
0.820991
0.800941
0.587492
0.817755
0.766606
0.815857
0.701113
0.822157
0.789579
0.81387
0.799986
0.662766
0.843476
0.8065
0.806546
0.493193
0.81676
0.800329
0.852064
0.711426
0.817014
0.583496
0.718715
0.801352
0.796609
0.732586
0.715425
0.716118
0.506621
0.588775
0.799923
0.517161
0.822536
0.519731
0.757129
0.671064
0.59865
0.540269
0.745365
0.803076
0.715362
0.821231
0.800898
0.802896
0.761131
0.889658
0.798983
0.82442
0.803417
0.812699
0.705876
0.807506
0.736625
0.821845
0.886017
0.833525
0.747639
0.822726
0.770428
0.87988
0.804185
0.758603
0.850644
0.776799
0.799916
0.805221
0.75817
0.744487
0.664836
0.804973
0.803017
0.817841
0.833438
0.611366
0.807842
0.53783
0.66849
0.61596
0.818439
0.820976
0.808918
0.803965
0.615557
0.872434
0.802671
0.802941
0.863483
0.812334
0.771971
0.812071
0.802358
0.817832
0.803141
0.716961
0.803319
0.655034
0.798946
0.804032
0.801527
0.639058
0.811472
0.810255
0.725611
0.817728
0.5489
0.576527
0.804133
0.696391
0.72587
0.571933
0.723493
0.81354
0.707823
0.772931
0.716779
0.812756
0.670095
0.762045
0.806415
0.81053
0.654338
0.801932
0.895137
0.796675
0.816723
0.584863
0.693707
0.800866
0.812855
0.81393
0.851622
0.812559
0.804238
0.803714
0.803329
0.713698
0.717613
0.61548
0.771398
0.532377
0.724016
0.80984
0.814331
0.806063
0.799201
0.534845
0.808986
0.803747
0.553741
0.543023
0.746528
0.803562
0.806113
0.549129
0.798174
0.569403
0.72029
0.607626
0.813487
0.802206
0.596882
0.60815
0.867865
0.809998
0.765347
0.717734
0.621394
0.655219
0.710003
0.81594
0.759714
0.765506
0.623878
0.753795
0.809232
0.815289
0.812363
0.815395
0.865484
0.754607
0.818862
0.803317
0.851242
0.812766
0.802765
0.812992
0.722688
0.812877
0.811919
0.815111
0.811078
0.81582
0.803264
0.817855
0.810311
0.809662
0.817195
0.800101
0.816522
0.818882
0.667365
0.818537
0.868384
0.818096
0.792904
0.645798
0.858544
0.818717
0.824824
0.799481
0.811119
0.757506
0.852504
0.558685
0.726475
0.809845
0.81559
0.803863
0.803352
0.831991
0.804956
0.80516
0.815185
0.780659
0.838502
0.841899
0.815146
0.664208
0.611798
0.815689
0.816547
0.788231
0.849585
0.847217
0.810772
0.813555
0.777692
0.814008
0.81776
0.814031
0.818704
0.81302
0.815746
0.851001
0.815892
0.814427
0.81748
0.817694
0.784859
0.814044
0.803987
0.804056
0.804556
0.818496
0.811391
0.788287
0.753992
0.812583
0.806263
0.808696
0.806362
0.857736
0.803293
0.813915
0.812603
0.805138
0.556421
0.803874
0.812646
0.81494
0.810294
0.812688
0.813211
0.812931
0.81016
0.864361
0.501169
0.812718
0.841613
0.812556
0.802945
0.808384
0.814917
0.839627
0.800384
0.801143
0.812558
0.706499
0.812735
0.80816
0.80728
0.812461
0.812788
0.812932
0.813267
0.511443
0.811841
0.715572
0.885819
0.820989
0.733475
0.670762
0.81528
0.803441
0.818653
0.646375
0.801627
0.813239
0.647864
0.799789
0.804075
0.815353
0.806221
0.856699
0.809833
0.606782
0.80078
0.775174
0.811194
0.88905
0.803225
0.815493
0.819264
0.832159
0.813305
0.822329
0.836288
0.634843
0.802564
0.655664
0.813656
0.813555
0.712638
0.81344
0.804748
0.713201
0.814852
0.701033
0.861035
0.78403
0.814208
0.812792
0.813335
0.667735
0.813561
0.633181
0.800148
0.79234
0.822224
0.815095
0.715885
0.766688
0.829986
0.812659
0.821248
0.821831
0.813343
0.825263
0.79944
0.551897
0.754915
0.759125
0.731505
0.83755
0.82227
0.834292
0.775945
0.802751
0.812928
0.812849
0.812852
0.774588
0.563631
0.803194
0.528169
0.808139
0.824191
0.799639
0.803747
0.812878
0.805995
0.78255
0.732132
0.813291
0.859107
0.813634
0.799231
0.736954
0.809525
0.788689
0.833671
0.503439
0.795957
0.805824
0.798811
0.688715
0.812742
0.810681
0.856951
0.5689
0.807315
0.803261
0.812727
0.612226
0.812988
0.803325
0.803393
0.803017
0.8131
0.813199
0.816022
0.812938
0.718013
0.804486
0.803192
0.812885
0.896142
0.813045
0.773916
0.841077
0.799166
0.803127
0.601187
0.812779
0.803349
0.825574
0.801945
0.866186
0.814757
0.853307
0.800276
0.820555
0.777835
0.558087
0.752605
0.79417
0.803855
0.813917
0.813709
0.555301
0.861747
0.857798
0.768384
0.75764
0.738494
0.811983
0.848321
0.812817
0.813654
0.812852
0.80426
0.72677
0.803489
0.799045
0.764225
0.824186
0.822918
0.861805
0.81556
0.812863
0.523631
0.80887
0.812823
0.800656
0.773906
0.818045
0.803104
0.812779
0.826809
0.798426
0.803538
0.801178
0.815097
0.839055
0.802308
0.799105
0.801424
0.766097
0.819779
0.566886
0.868343
0.803674
0.545532
0.803104
0.803066
0.819488
0.591015
0.605997
0.8015
0.803568
0.800789
0.860691
0.779871
0.814546
0.802925
0.865603
0.804699
0.804437
0.826256
0.815862
0.820013
0.82119
0.820237
0.867442
0.729182
0.852102
0.817105
0.653553
0.802492
0.803171
0.803623
0.821032
0.823421
0.803922
0.80103
0.799992
0.822589
0.803151
0.80359
0.7996
0.824298
0.803958
0.801965
0.806059
0.827784
0.800472
0.80147
0.824181
0.799528
0.815279
0.651149
0.826303
0.849789
0.804827
0.819478
0.803214
0.828665
0.837422
0.803387
0.821385
0.800486
0.806909
0.789528
0.80213
0.803111
0.806339
0.805855
0.804451
0.818448
0.81464
0.81121
0.831328
0.802115
0.802201
0.799843
0.788982
0.833711
0.803128
0.819206
0.815102
0.807067
0.804981
0.802941
0.838837
0.864615
0.799509
0.678842
0.801143
0.84208
0.81649
0.805055
0.804449
0.819646
0.844531
0.600988
0.828668
0.794419
0.850254
0.818632
0.811964
0.813231
0.808163
0.803941
0.812734
0.808723
0.591695
0.847918
0.794553
0.814068
0.854529
0.81918
0.763113
0.80859
0.814341
0.81536
0.802944
0.661574
0.809127
0.863101
0.802513
0.800661
0.775332
0.871176
0.80039
0.87703
0.806622
0.817061
0.820516
0.802152
0.80377
0.812483
0.815774
0.8034
0.813207
0.816633
0.881314
0.820651
0.809274
0.800069
0.828333
0.810456
0.838755
0.808756
0.806922
0.81204
0.816441
0.829838
0.813543
0.822444
0.832446
0.814084
0.699485
0.69044
0.812921
0.81764
0.803737
0.813003
0.513638
0.854822
0.799706
0.806206
0.813822
0.813365
0.80394
0.812358
0.800417
0.801159
0.807963
0.814652
0.75679
0.784577
0.822846
0.842574
0.834737
0.800196
0.804992
0.803343
0.812883
0.805654
0.79946
0.799733
0.800965
0.810836
0.79778
0.80268
0.835414
0.83123
0.729672
0.660733
0.807549
0.698332
0.799427
0.57166
0.804387
0.806888
0.803042
0.818059
0.833678
0.813805
0.812731
0.810238
0.803824
0.881483
0.816157
0.804727
0.7722
0.585422
0.810214
0.806551
0.769299
0.814298
0.813754
0.791435
0.800677
0.804011
0.623757
0.830376
0.803489
0.781405
0.779255
0.852655
0.809965
0.802814
0.802531
0.810127
0.811029
0.518321
0.801742
0.839416
0.813804
0.79854
0.588515
0.814467
0.81395
0.812818
0.833648
0.813796
0.803901
0.821793
0.805508
0.575613
0.808599
0.7364
0.798478
0.813511
0.722107
0.814809
0.845883
0.831555
0.664373
0.890871
0.785544
0.777328
0.796843
0.779491
0.80856
0.849852
0.807906
0.802839
0.813424
0.808746
0.782566
0.785883
0.813761
0.808242
0.834783
0.821175
0.835617
0.801199
0.799601
0.812915
0.856554
0.816366
0.818272
0.813219
0.607201
0.795491
0.823798
0.829275
0.865847
0.812471
0.818855
0.508348
0.809625
0.800535
0.812484
0.814643
0.847521
0.812921
0.811061
0.881462
0.764461
0.812507
0.813108
0.808909
0.805187
0.814105
0.655795
0.800473
0.849463
0.833451
0.810513
0.813451
0.813239
0.809541
0.69872
0.812386
0.800099
0.838491
0.818367
0.811511
0.831245
0.79263
0.811439
0.817706
0.808718
0.819182
0.744131
0.854625
0.818857
0.813686
0.812924
0.812571
0.815604
0.817046
0.812617
0.810674
0.841002
0.818486
0.800092
0.825222
0.826861
0.815944
0.814412
0.800304
0.80147
0.812913
0.818916
0.829342
0.812662
0.816345
0.799762
0.809846
0.812699
0.812667
0.802482
0.814542
0.813199
0.803213
0.812723
0.835575
0.799999
0.809316
0.821428
0.559742
0.81409
0.818055
0.815411
0.814893
0.821864
0.828738
0.815505
0.818727
0.70134
0.812924
0.801289
0.815498
0.818901
0.835
0.821461
0.815465
0.829279
0.824842
0.810542
0.819149
0.819429
0.804117
0.813023
0.815485
0.819389
0.832024
0.812496
0.815579
0.802703
0.812795
0.812917
0.522203
0.627423
0.814314
0.821335
0.801678
0.82237
0.815788
0.841792
0.708026
0.813616
0.730334
0.817306
0.810197
0.813028
0.829266
0.813527
0.804792
0.812781
0.830002
0.839187
0.812664
0.719106
0.819207
0.815914
0.799865
0.803019
0.815189
0.855867
0.812512
0.81324
0.849631
0.828922
0.843203
0.573078
0.829018
0.813816
0.810779
0.817286
0.850392
0.81765
0.718313
0.799481
0.831688
0.799706
0.799672
0.805353
0.747759
0.813265
0.814222
0.725305
0.814234
0.827267
0.813185
0.813909
0.79916
0.818265
0.812847
0.823445
0.808675
0.8081
0.814856
0.705283
0.818964
0.813956
0.812831
0.639708
0.718839
0.599223
0.823201
0.529133
0.853699
0.727245
0.842724
0.812394
0.722532
0.821335
0.815766
0.742477
0.80762
0.81824
0.794387
0.816408
0.815743
0.815673
0.812848
0.807768
0.803648
0.737218
0.836031
0.820061
0.816493
0.79917
0.815364
0.801931
0.815887
0.81333
0.854496
0.817659
0.49661
0.813187
0.818676
0.818549
0.778011
0.815676
0.8067
0.818509
0.845242
0.59626
0.809031
0.799241
0.815198
0.817505
0.817576
0.812316
0.818486
0.813739
0.814462
0.803059
0.814159
0.846036
0.81381
0.791979
0.811364
0.62239
0.718756
0.812926
0.816877
0.802904
0.822195
0.735427
0.803143
0.803179
0.820095
0.617674
0.817478
0.799288
0.815292
0.864533
0.785451
0.82184
0.817861
0.822676
0.81389
0.769542
0.802407
0.813435
0.902273
0.827094
0.816307
0.83214
0.809474
0.868065
0.719426
0.68528
0.85223
0.802691
0.658128
0.850195
0.78601