# vtk DataFile Version 1.0
unstructured grid
ascii
DATASET UNSTRUCTURED_GRID
points 7812 float
-1 0 0
-1 1 0
2 0 0
2 1 0
0 0 0
1 0 0
-1 1 0.1
-1 0 0.1
0 0 0.1
1 0 0.1
2 0 0.1
2 1 0.1
-0.99 0 0
-0.98 0 0
-0.97 0 0
-0.96 0 0
-0.95 0 0
-0.94 0 0
-0.93 0 0
-0.92 0 0
-0.91 0 0
-0.9 0 0
-0.89 0 0
-0.88 0 0
-0.87 0 0
-0.86 0 0
-0.85 0 0
-0.84 0 0
-0.83 0 0
-0.82 0 0
-0.81 0 0
-0.8 0 0
-0.79 0 0
-0.78 0 0
-0.77 0 0
-0.76 0 0
-0.75 0 0
-0.74 0 0
-0.73 0 0
-0.72 0 0
-0.71 0 0
-0.7 0 0
-0.69 0 0
-0.68 0 0
-0.67 0 0
-0.66 0 0
-0.65 0 0
-0.64 0 0
-0.63 0 0
-0.62 0 0
-0.61 0 0
-0.6 0 0
-0.59 0 0
-0.58 0 0
-0.57 0 0
-0.56 0 0
-0.55 0 0
-0.54 0 0
-0.53 0 0
-0.52 0 0
-0.51 0 0
-0.5 0 0
-0.49 0 0
-0.48 0 0
-0.47 0 0
-0.46 0 0
-0.45 0 0
-0.44 0 0
-0.43 0 0
-0.42 0 0
-0.41 0 0
-0.4 0 0
-0.39 0 0
-0.38 0 0
-0.37 0 0
-0.36 0 0
-0.35 0 0
-0.34 0 0
-0.33 0 0
-0.32 0 0
-0.31 0 0
-0.3 0 0
-0.29 0 0
-0.28 0 0
-0.27 0 0
-0.26 0 0
-0.25 0 0
-0.24 0 0
-0.23 0 0
-0.22 0 0
-0.21 0 0
-0.2 0 0
-0.19 0 0
-0.18 0 0
-0.17 0 0
-0.16 0 0
-0.15 0 0
-0.14 0 0
-0.13 0 0
-0.12 0 0
-0.11 0 0
-0.1 0 0
-0.09 0 0
-0.08 0 0
-0.07 0 0
-0.06 0 0
-0.05 0 0
-0.04 0 0
-0.03 0 0
-0.02 0 0
-0.01 0 0
1.01 0 0
1.02 0 0
1.03 0 0
1.04 0 0
1.05 0 0
1.06 0 0
1.07 0 0
1.08 0 0
1.09 0 0
1.1 0 0
1.11 0 0
1.12 0 0
1.13 0 0
1.14 0 0
1.15 0 0
1.16 0 0
1.17 0 0
1.18 0 0
1.19 0 0
1.2 0 0
1.21 0 0
1.22 0 0
1.23 0 0
1.24 0 0
1.25 0 0
1.26 0 0
1.27 0 0
1.28 0 0
1.29 0 0
1.3 0 0
1.31 0 0
1.32 0 0
1.33 0 0
1.34 0 0
1.35 0 0
1.36 0 0
1.37 0 0
1.38 0 0
1.39 0 0
1.4 0 0
1.41 0 0
1.42 0 0
1.43 0 0
1.44 0 0
1.45 0 0
1.46 0 0
1.47 0 0
1.48 0 0
1.49 0 0
1.5 0 0
1.51 0 0
1.52 0 0
1.53 0 0
1.54 0 0
1.55 0 0
1.56 0 0
1.57 0 0
1.58 0 0
1.59 0 0
1.6 0 0
1.61 0 0
1.62 0 0
1.63 0 0
1.64 0 0
1.65 0 0
1.66 0 0
1.67 0 0
1.68 0 0
1.69 0 0
1.7 0 0
1.71 0 0
1.72 0 0
1.73 0 0
1.74 0 0
1.75 0 0
1.76 0 0
1.77 0 0
1.78 0 0
1.79 0 0
1.8 0 0
1.81 0 0
1.82 0 0
1.83 0 0
1.84 0 0
1.85 0 0
1.86 0 0
1.87 0 0
1.88 0 0
1.89 0 0
1.9 0 0
1.91 0 0
1.92 0 0
1.93 0 0
1.94 0 0
1.95 0 0
1.96 0 0
1.97 0 0
1.98 0 0
1.99 0 0
2 0.010289 0
2 0.0215307 0
2 0.0338135 0
2 0.0472336 0
2 0.0618965 0
2 0.0779171 0
2 0.0954213 0
2 0.114546 0
2 0.135442 0
2 0.158274 0
2 0.183219 0
2 0.210474 0
2 0.240253 0
2 0.27279 0
2 0.308339 0
2 0.347181 0
2 0.389619 0
2 0.435987 0
2 0.486649 0
2 0.542002 0
2 0.602481 0
2 0.66856 0
2 0.740758 0
2 0.819642 0
2 0.90583 0
1.9 1 0
1.8 1 0
1.7 1 0
1.6 1 0
1.5 1 0
1.4 1 0
1.3 1 0
1.2 1 0
1.1 1 0
1 1 0
0.9 1 0
0.8 1 0
0.7 1 0
0.6 1 0
0.5 1 0
0.4 1 0
0.3 1 0
0.2 1 0
0.1 1 0
3.69793e-12 1 0
-0.1 1 0
-0.2 1 0
-0.3 1 0
-0.4 1 0
-0.5 1 0
-0.6 1 0
-0.7 1 0
-0.8 1 0
-0.9 1 0
-1 0.90583 0
-1 0.819642 0
-1 0.740758 0
-1 0.66856 0
-1 0.602481 0
-1 0.542002 0
-1 0.486649 0
-1 0.435987 0
-1 0.389619 0
-1 0.347181 0
-1 0.308339 0
-1 0.27279 0
-1 0.240253 0
-1 0.210474 0
-1 0.183219 0
-1 0.158274 0
-1 0.135442 0
-1 0.114546 0
-1 0.0954213 0
-1 0.0779171 0
-1 0.0618965 0
-1 0.0472336 0
-1 0.0338135 0
-1 0.0215307 0
-1 0.010289 0
0.00921362 0.00379763 0
0.0184561 0.00752451 0
0.0277268 0.0111804 0
0.0370253 0.0147652 0
0.0463511 0.0182786 0
0.0557034 0.0217203 0
0.0650819 0.0250903 0
0.074486 0.0283883 0
0.083915 0.0316141 0
0.0933685 0.0347675 0
0.102846 0.0378484 0
0.112347 0.0408565 0
0.12187 0.0437917 0
0.131416 0.0466538 0
0.140983 0.0494427 0
0.150572 0.0521581 0
0.160181 0.0547999 0
0.16981 0.0573681 0
0.179458 0.0598623 0
0.189125 0.0622825 0
0.198811 0.0646285 0
0.208514 0.0669001 0
0.218234 0.0690974 0
0.227971 0.07122 0
0.237724 0.073268 0
0.247493 0.0752411 0
0.257276 0.0771393 0
0.267073 0.0789625 0
0.276884 0.0807105 0
0.286708 0.0823832 0
0.296545 0.0839806 0
0.306394 0.0855025 0
0.316254 0.0869488 0
0.326125 0.0883196 0
0.336006 0.0896146 0
0.345896 0.0908339 0
0.355796 0.0919773 0
0.365704 0.0930447 0
0.375621 0.0940362 0
0.385544 0.0949517 0
0.395474 0.095791 0
0.40541 0.0965542 0
0.415352 0.0972412 0
0.425299 0.097852 0
0.43525 0.0983865 0
0.445205 0.0988447 0
0.455164 0.0992266 0
0.465125 0.0995321 0
0.475088 0.0997613 0
0.485052 0.0999141 0
0.495017 0.0999904 0
0.504983 0.0999904 0
0.514948 0.0999141 0
0.524912 0.0997613 0
0.534875 0.0995321 0
0.544836 0.0992266 0
0.554795 0.0988447 0
0.56475 0.0983865 0
0.574701 0.097852 0
0.584648 0.0972412 0
0.59459 0.0965542 0
0.604526 0.095791 0
0.614456 0.0949517 0
0.624379 0.0940362 0
0.634296 0.0930447 0
0.644204 0.0919773 0
0.654104 0.0908339 0
0.663994 0.0896146 0
0.673875 0.0883196 0
0.683746 0.0869488 0
0.693606 0.0855025 0
0.703455 0.0839806 0
0.713292 0.0823832 0
0.723116 0.0807105 0
0.732927 0.0789625 0
0.742724 0.0771393 0
0.752508 0.0752411 0
0.762276 0.073268 0
0.772029 0.07122 0
0.781766 0.0690974 0
0.791486 0.0669001 0
0.801189 0.0646285 0
0.810875 0.0622825 0
0.820542 0.0598623 0
0.83019 0.0573681 0
0.839819 0.0547999 0
0.849428 0.0521581 0
0.859017 0.0494427 0
0.868584 0.0466538 0
0.87813 0.0437917 0
0.887653 0.0408565 0
0.897154 0.0378484 0
0.906631 0.0347675 0
0.916085 0.0316141 0
0.925514 0.0283883 0
0.934918 0.0250903 0
0.944297 0.0217203 0
0.953649 0.0182786 0
0.962975 0.0147652 0
0.972273 0.0111804 0
0.981544 0.00752451 0
0.990786 0.00379763 0
-1 0.90583 0.1
-1 0.819642 0.1
-1 0.740758 0.1
-1 0.66856 0.1
-1 0.602481 0.1
-1 0.542002 0.1
-1 0.486649 0.1
-1 0.435987 0.1
-1 0.389619 0.1
-1 0.347181 0.1
-1 0.308339 0.1
-1 0.27279 0.1
-1 0.240253 0.1
-1 0.210474 0.1
-1 0.183219 0.1
-1 0.158274 0.1
-1 0.135442 0.1
-1 0.114546 0.1
-1 0.0954213 0.1
-1 0.0779171 0.1
-1 0.0618965 0.1
-1 0.0472336 0.1
-1 0.0338135 0.1
-1 0.0215307 0.1
-1 0.010289 0.1
-0.99 0 0.1
-0.98 0 0.1
-0.97 0 0.1
-0.96 0 0.1
-0.95 0 0.1
-0.94 0 0.1
-0.93 0 0.1
-0.92 0 0.1
-0.91 0 0.1
-0.9 0 0.1
-0.89 0 0.1
-0.88 0 0.1
-0.87 0 0.1
-0.86 0 0.1
-0.85 0 0.1
-0.84 0 0.1
-0.83 0 0.1
-0.82 0 0.1
-0.81 0 0.1
-0.8 0 0.1
-0.79 0 0.1
-0.78 0 0.1
-0.77 0 0.1
-0.76 0 0.1
-0.75 0 0.1
-0.74 0 0.1
-0.73 0 0.1
-0.72 0 0.1
-0.71 0 0.1
-0.7 0 0.1
-0.69 0 0.1
-0.68 0 0.1
-0.67 0 0.1
-0.66 0 0.1
-0.65 0 0.1
-0.64 0 0.1
-0.63 0 0.1
-0.62 0 0.1
-0.61 0 0.1
-0.6 0 0.1
-0.59 0 0.1
-0.58 0 0.1
-0.57 0 0.1
-0.56 0 0.1
-0.55 0 0.1
-0.54 0 0.1
-0.53 0 0.1
-0.52 0 0.1
-0.51 0 0.1
-0.5 0 0.1
-0.49 0 0.1
-0.48 0 0.1
-0.47 0 0.1
-0.46 0 0.1
-0.45 0 0.1
-0.44 0 0.1
-0.43 0 0.1
-0.42 0 0.1
-0.41 0 0.1
-0.4 0 0.1
-0.39 0 0.1
-0.38 0 0.1
-0.37 0 0.1
-0.36 0 0.1
-0.35 0 0.1
-0.34 0 0.1
-0.33 0 0.1
-0.32 0 0.1
-0.31 0 0.1
-0.3 0 0.1
-0.29 0 0.1
-0.28 0 0.1
-0.27 0 0.1
-0.26 0 0.1
-0.25 0 0.1
-0.24 0 0.1
-0.23 0 0.1
-0.22 0 0.1
-0.21 0 0.1
-0.2 0 0.1
-0.19 0 0.1
-0.18 0 0.1
-0.17 0 0.1
-0.16 0 0.1
-0.15 0 0.1
-0.14 0 0.1
-0.13 0 0.1
-0.12 0 0.1
-0.11 0 0.1
-0.1 0 0.1
-0.09 0 0.1
-0.08 0 0.1
-0.07 0 0.1
-0.06 0 0.1
-0.05 0 0.1
-0.04 0 0.1
-0.03 0 0.1
-0.02 0 0.1
-0.01 0 0.1
0.00921362 0.00379763 0.1
0.0184561 0.00752451 0.1
0.0277268 0.0111804 0.1
0.0370253 0.0147652 0.1
0.0463511 0.0182786 0.1
0.0557034 0.0217203 0.1
0.0650819 0.0250903 0.1
0.074486 0.0283883 0.1
0.083915 0.0316141 0.1
0.0933685 0.0347675 0.1
0.102846 0.0378484 0.1
0.112347 0.0408565 0.1
0.12187 0.0437917 0.1
0.131416 0.0466538 0.1
0.140983 0.0494427 0.1
0.150572 0.0521581 0.1
0.160181 0.0547999 0.1
0.16981 0.0573681 0.1
0.179458 0.0598623 0.1
0.189125 0.0622825 0.1
0.198811 0.0646285 0.1
0.208514 0.0669001 0.1
0.218234 0.0690974 0.1
0.227971 0.07122 0.1
0.237724 0.073268 0.1
0.247493 0.0752411 0.1
0.257276 0.0771393 0.1
0.267073 0.0789625 0.1
0.276884 0.0807105 0.1
0.286708 0.0823832 0.1
0.296545 0.0839806 0.1
0.306394 0.0855025 0.1
0.316254 0.0869488 0.1
0.326125 0.0883196 0.1
0.336006 0.0896146 0.1
0.345896 0.0908339 0.1
0.355796 0.0919773 0.1
0.365704 0.0930447 0.1
0.375621 0.0940362 0.1
0.385544 0.0949517 0.1
0.395474 0.095791 0.1
0.40541 0.0965542 0.1
0.415352 0.0972412 0.1
0.425299 0.097852 0.1
0.43525 0.0983865 0.1
0.445205 0.0988447 0.1
0.455164 0.0992266 0.1
0.465125 0.0995321 0.1
0.475088 0.0997613 0.1
0.485052 0.0999141 0.1
0.495017 0.0999904 0.1
0.504983 0.0999904 0.1
0.514948 0.0999141 0.1
0.524912 0.0997613 0.1
0.534875 0.0995321 0.1
0.544836 0.0992266 0.1
0.554795 0.0988447 0.1
0.56475 0.0983865 0.1
0.574701 0.097852 0.1
0.584648 0.0972412 0.1
0.59459 0.0965542 0.1
0.604526 0.095791 0.1
0.614456 0.0949517 0.1
0.624379 0.0940362 0.1
0.634296 0.0930447 0.1
0.644204 0.0919773 0.1
0.654104 0.0908339 0.1
0.663994 0.0896146 0.1
0.673875 0.0883196 0.1
0.683746 0.0869488 0.1
0.693606 0.0855025 0.1
0.703455 0.0839806 0.1
0.713292 0.0823832 0.1
0.723116 0.0807105 0.1
0.732927 0.0789625 0.1
0.742724 0.0771393 0.1
0.752508 0.0752411 0.1
0.762276 0.073268 0.1
0.772029 0.07122 0.1
0.781766 0.0690974 0.1
0.791486 0.0669001 0.1
0.801189 0.0646285 0.1
0.810875 0.0622825 0.1
0.820542 0.0598623 0.1
0.83019 0.0573681 0.1
0.839819 0.0547999 0.1
0.849428 0.0521581 0.1
0.859017 0.0494427 0.1
0.868584 0.0466538 0.1
0.87813 0.0437917 0.1
0.887653 0.0408565 0.1
0.897154 0.0378484 0.1
0.906631 0.0347675 0.1
0.916085 0.0316141 0.1
0.925514 0.0283883 0.1
0.934918 0.0250903 0.1
0.944297 0.0217203 0.1
0.953649 0.0182786 0.1
0.962975 0.0147652 0.1
0.972273 0.0111804 0.1
0.981544 0.00752451 0.1
0.990786 0.00379763 0.1
1.01 0 0.1
1.02 0 0.1
1.03 0 0.1
1.04 0 0.1
1.05 0 0.1
1.06 0 0.1
1.07 0 0.1
1.08 0 0.1
1.09 0 0.1
1.1 0 0.1
1.11 0 0.1
1.12 0 0.1
1.13 0 0.1
1.14 0 0.1
1.15 0 0.1
1.16 0 0.1
1.17 0 0.1
1.18 0 0.1
1.19 0 0.1
1.2 0 0.1
1.21 0 0.1
1.22 0 0.1
1.23 0 0.1
1.24 0 0.1
1.25 0 0.1
1.26 0 0.1
1.27 0 0.1
1.28 0 0.1
1.29 0 0.1
1.3 0 0.1
1.31 0 0.1
1.32 0 0.1
1.33 0 0.1
1.34 0 0.1
1.35 0 0.1
1.36 0 0.1
1.37 0 0.1
1.38 0 0.1
1.39 0 0.1
1.4 0 0.1
1.41 0 0.1
1.42 0 0.1
1.43 0 0.1
1.44 0 0.1
1.45 0 0.1
1.46 0 0.1
1.47 0 0.1
1.48 0 0.1
1.49 0 0.1
1.5 0 0.1
1.51 0 0.1
1.52 0 0.1
1.53 0 0.1
1.54 0 0.1
1.55 0 0.1
1.56 0 0.1
1.57 0 0.1
1.58 0 0.1
1.59 0 0.1
1.6 0 0.1
1.61 0 0.1
1.62 0 0.1
1.63 0 0.1
1.64 0 0.1
1.65 0 0.1
1.66 0 0.1
1.67 0 0.1
1.68 0 0.1
1.69 0 0.1
1.7 0 0.1
1.71 0 0.1
1.72 0 0.1
1.73 0 0.1
1.74 0 0.1
1.75 0 0.1
1.76 0 0.1
1.77 0 0.1
1.78 0 0.1
1.79 0 0.1
1.8 0 0.1
1.81 0 0.1
1.82 0 0.1
1.83 0 0.1
1.84 0 0.1
1.85 0 0.1
1.86 0 0.1
1.87 0 0.1
1.88 0 0.1
[...]
CELL_DATA 7425
SCALARS rho float
LOOKUP_TABLE default
0.587184
0.805034
0.819535
0.827505
0.799414
0.819133
0.820898
0.814108
0.812956
0.738627
0.863482
0.81003
0.81387
0.827361
0.803706
0.81713
0.798747
0.813239
0.803467
0.767249
0.83126
0.822044
0.724779
0.828034
0.803873
0.703025
0.831193
0.84826
0.800162
0.807933
0.819355
0.725488
0.803614
0.652108
0.519301
0.828
0.803505
0.814085
0.81114
0.827994
0.715982
0.703211
0.789969
0.702131
0.586493
0.748212
0.799295
0.813804
0.661556
0.719267
0.746315
0.805151
0.812353
0.79907
0.709799
0.628589
0.822896
0.800088
0.738498
0.70091
0.709479
0.807656
0.813208
0.799376
0.798771
0.817588
0.584375
0.773273
0.704699
0.807851
0.80417
0.803202
0.883396
0.821116
0.81084
0.813016
0.805047
0.800437
0.813215
0.757758
0.815956
0.807236
0.810262
0.788673
0.835894
0.801086
0.574459
0.829944
0.542529
0.848469
0.706669
0.729735
0.845223
0.803176
0.817377
0.758205
0.836038
0.788014
0.825611
0.802469
0.808075
0.738654
0.803285
0.828226
0.597241
0.811067
0.824357
0.707454
0.814972
0.79916
0.816688
0.784534
0.789794
0.812428
0.789701
0.786311
0.831242
0.803104
0.700079
0.630467
0.805046
0.777257
0.812919
0.7904
0.858927
0.838833
0.807692
0.80426
0.661199
0.504114
0.814451
0.655063
0.515174
0.867676
0.661902
0.799508
0.811099
0.723544
0.582017
0.724808
0.723256
0.809597
0.809617
0.707298
0.803139
0.779602
0.565484
0.788497
0.78254
0.827752
0.81675
0.704236
0.802897
0.744301
0.705197
0.803274
0.810431
0.830395
0.797548
0.652105
0.802507
0.703408
0.801092
0.829728
0.820439
0.802374
0.813038
0.784803
0.806274
0.800641
0.819689
0.804469
0.791163
0.799123
0.799874
0.74011
0.803687
0.75871
0.594091
0.706438
0.799672
0.792693
0.879789
0.83183
0.616157
0.822909
0.798629
0.827316
0.799865
0.81338
0.812583
0.803192
0.80694
0.704573
0.814987
0.819237
0.77009
0.797128
0.86111
0.807763
0.811821
0.811141
0.612884
0.838885
0.573037
0.531821
0.595499
0.600562
0.828135
0.879323
0.807524
0.79865
0.841369
0.812943
0.81666
0.820747
0.815179
0.638026
0.549356
0.813701
0.545574
0.592547
0.703423
0.811675
0.814041
0.813016
0.83312
0.812885
0.864184
0.709954
0.83521
0.712632
0.805166
0.80392
0.801958
0.713907
0.720441
0.619525
0.705515
0.863608
0.875369
0.806218
0.807693
0.798848
0.81152
0.715832
0.821589
0.800182
0.825677
0.794619
0.809826
0.721415
0.812785
0.823718
0.739767
0.528532
0.799852
0.736424
0.843287
0.81432
0.726598
0.815555
0.814817
0.849939
0.809488
0.80386
0.803253
0.825635
0.860749
0.805428
0.619282
0.848874
0.811977
0.8056
0.827525
0.837323
0.812965
0.821414
0.793497
0.815049
0.866587
0.849933
0.82732
0.836724
0.802668
0.817139
0.80319
0.759706
0.701253
0.58091
0.700893
0.802327
0.812866
0.815964
0.854687
0.779649
0.645764
0.827064
0.520872
0.774271
0.800967
0.646424
0.495445
0.639122
0.815174
0.813211
0.812942
0.8127
0.826698
0.774423
0.811474
0.802665
0.812881
0.840697
0.867083
0.833542
0.802732
0.706078
0.79588
0.834272
0.691586
0.798738
0.802046
0.864774
0.817079
0.593069
0.813368
0.740488
0.852278
0.731985
0.810085
0.907651
0.79986
0.795632
0.658973
0.635589
0.711706
0.780572
0.826523
0.814911
0.813668
0.882396
0.85815
0.799528
0.799151
0.826025
0.739206
0.802521
0.879377
0.801379
0.80469
0.800691
0.802566
0.812943
0.815698
0.81635
0.636217
0.829971
0.645587
0.808454
0.639333
0.802605
0.802235
0.840248
0.728685
0.816344
0.80855
0.816959
0.799493
0.802494
0.811243
0.696777
0.824465
0.813034
0.812905
0.800679
0.736815
0.559974
0.806412
0.810998
0.803188
0.812869
0.79472
0.503284
0.846001
0.813291
0.803847
0.785714
0.813238
0.804664
0.803024
0.816216
0.807508
0.82249
0.768598
0.812643
0.807768
0.562701
0.80311
0.640133
0.838746
0.63625
0.814676
0.877891
0.593261
0.818072
0.748944
0.804412
0.873334
0.533771
0.823102
0.82224
0.803495
0.82572
0.811053
0.823439
0.83062
0.824818
0.739697
0.827503
0.76166
0.810203
0.794236
0.793616
0.758581
0.805598
0.802086
0.814447
0.75222
0.804696
0.604458
0.614247
0.689039
0.812788
0.844184
0.864827
0.829863
0.798574
0.812619
0.804879
0.818502
0.680516
0.800979
0.742941
0.824042
0.814777
0.805383
0.711777
0.727228
0.53372
0.605632
0.801284
0.611405
0.792572
0.765365
0.770037
0.727082
0.76245
0.767521
0.809415
0.814909
0.819531
0.811443
0.710492
0.602297
0.839017
0.806913
0.783141
0.809824
0.80256
0.836543
0.718168
0.855273
0.763681
0.728337
0.764505
0.811489
0.545052
0.79882
0.841602
0.813287
0.813762
0.809695
0.799159
0.780287
0.835689
0.803107
0.84296
0.721091
0.707454
0.800333
0.795141
0.822002
0.708723
0.847949
0.800416
0.816032
0.798723
0.779169
0.808254
0.594646
0.677444
0.632435
0.812912
0.803805
0.826338
0.749247
0.810594
0.814777
0.820375
0.79897
0.729336
0.796865
0.814287
0.803198
0.703211
0.81357
0.818891
0.840014
0.810757
0.82532
0.862285
0.857264
0.743928
0.60344
0.838021
0.805797
0.843372
0.814205
0.822903
0.8135
0.813781
0.634122
0.805179
0.809292
0.812801
0.791894
0.810581
0.804759
0.860514
0.798657
0.812715
0.814693
0.871913
0.597663
0.813438
0.842421
0.883313
0.530521
0.816385
0.829942
0.796141
0.814747
0.794944
0.86759
0.812188
0.831335
0.812706
0.61938
0.802395
0.804147
0.690874
0.853132
0.759767
0.801807
0.813957
0.812693
0.859699
0.79535
0.833602
0.834708
0.784286
0.825172
0.842353
0.799737
0.810487
0.806954
0.805315
0.814828
0.802632
0.845213
0.76925
0.809781
0.803162
0.815205
0.723147
0.812874
0.818337
0.7526
0.813565
0.816341
0.827564
0.825102
0.800717
0.800657
0.850492
0.767932
0.825128
0.844196
0.804557
0.50574
0.812879
0.828266
0.85238
0.812628
0.80315
0.808529
0.855039
0.780078
0.802585
0.801234
0.812916
0.727154
0.802721
0.829997
0.80801
0.794972
0.793506
0.843189
0.806607
0.845311
0.802021
0.824236
0.812746
0.804218
0.841846
0.812848
0.679473
0.818763
0.8071
0.812818
0.906142
0.800807
0.815882
0.800484
0.8004
0.816188
0.800505
0.803361
0.78373
0.747349
0.806492
0.812878
0.75802
0.791398
0.82301
0.813018
0.822244
0.806315
0.82576
0.8753
0.830637
0.574909
0.708813
0.840744
0.817274
0.844149
0.814746
0.850095
0.807335
0.812394
0.79935
0.8384
0.860925
0.852784
0.731537
0.814072
0.822165
0.743964
0.817101
0.77594
0.800225
0.733083
0.81605
0.830854
0.823466
0.861843
0.814199
0.813282
0.810172
0.814628
0.835785
0.812201
0.798664
0.810232
0.737563
0.811332
0.774178
0.832831
0.812764
0.638823
0.777638
0.811143
0.799183
0.819814
0.802477
0.814661
0.817286
0.804459
0.819385
0.804164
0.805849
0.597318
0.847035
0.82512
0.826692
0.81492
0.803222
0.701854
0.806481
0.907832
0.813575
0.801034
0.81287
0.782282
0.807256
0.813271
0.821275
0.814639
0.813212
0.816225
0.701811
0.777849
0.764589
0.812646
0.805317
0.80103
0.621359
0.805714
0.802635
0.708217
0.837191
0.817186
0.802198
0.807454
0.799405
0.817237
0.813928
0.813273
0.812862
0.709692
0.831687
0.800282
0.80741
0.842804
0.81762
0.816281
0.800181
0.753663
0.823825
0.787415
0.821423
0.789415
0.805637
0.820942
0.737526
0.817393
0.650641
0.872023
0.704346
0.844999
0.800799
0.875154
0.793708
0.801678
0.82066
0.836223
0.838406
0.825461
0.819817
0.814699
0.801126
0.804183
0.808244
0.725768
0.827233
0.800084
0.719662
0.830527
0.706006
0.800005
0.860398
0.805582
0.70148
0.797846
0.814074
0.70498
0.785659
0.819373
0.831851
0.806955
0.573783
0.728658
0.812386
0.80133
0.812911
0.800674
0.737227
0.814002
0.815705
0.812478
0.775362
0.803265
0.804494
0.803575
0.560471
0.812699
0.834101
0.57986
0.815153
0.816091
0.814685
0.818349
0.814409
0.824529
0.799083
0.795123
0.771031
0.822892
0.829661
0.825101
0.83488
0.765356
0.808992
0.724437
0.772374
0.808804
0.821063
0.813272
0.800973
0.858292
0.812915
0.800331
0.809584
0.816084
0.815176
0.836622
0.814482
0.812794
0.81198
0.813806
0.800144
0.820985
0.803768
0.822819
0.813455
0.575586
0.813502
0.834455
0.858074
0.83818
0.49084
0.816797
0.804523
0.496637
0.669405
0.643292
0.83429
0.807972
0.81165
0.812787
0.803205
0.816738
0.810957
0.534611
0.68652
0.818234
0.806626
0.815603
0.803508
0.810238
0.810897
0.820228
0.799519
0.692316
0.855924
0.803151
0.814717
0.813611
0.75778
0.48578
0.832885
0.813542
0.741981
0.802702
0.806205
0.590991
0.827521
0.814771
0.827711
0.81877
0.825981
0.804731
0.719448
0.643571
0.562091
0.825307
0.808518
0.782976
0.812958
0.779797
0.817879
0.87331
0.762369
0.821599
0.813514
0.825828
0.88356
0.81443
0.811824
0.803265
0.813865
0.691745
0.828199
0.799882
0.810165
0.802208
0.78425
0.854156
0.822031
0.840478
0.821513
0.757592
0.755905
0.803312
0.818092
0.803064
0.805244
0.802587
0.775652
0.814673
0.761582
0.821148
0.662073
0.813961
0.802961
0.735712
0.823249
0.817967
0.739994
0.801165
0.757217
0.880651
0.800723
0.812826
0.762684
0.800088
0.81426
0.803949
0.589883
0.820935
0.798657
0.801343
0.814513
0.825603
0.757138
0.805524
0.841625
0.826936
0.814094
0.835829
0.700769
0.700152
0.812911
0.744163
0.822208
0.77137
0.812818
0.802519
0.810394
0.751959
0.794196
0.764331
0.809881
0.803143
0.631205
0.779017
0.799236
0.849005
0.814356
0.828641
0.526507
0.825334
0.785137
0.858731
0.800941
0.817979
0.800284
0.785784
0.798746
0.825702
0.835759
0.821759
0.817107
0.706972
0.773833
0.81535
0.80538
0.809964
0.803908
0.706846
0.792827
0.803466
0.810652
0.827174
0.851206
0.831842
0.813452
0.79943
0.80423
0.802026
0.779635
0.611624
0.800321
0.731299
0.661916
0.822795
0.798844
0.777272
0.799976
0.754162
0.785295
0.811442
0.822183
0.803337
0.815996
0.817344
0.820655
0.813376
0.80847
0.712153
0.699397
0.64091
0.829269
0.869563
0.815358
0.841346
0.847831
0.863733
0.735686
0.816576
0.863007
0.810185
0.812856
0.816185
0.73279
0.812412
0.806653
0.806191
0.517279
0.812951
0.761176
0.813143
0.813783
0.803541
0.705555
0.813184
0.610622
0.825022
0.802276
0.822233
0.855157
0.80343
0.795369
0.820921
0.811565
0.805703
0.762251
0.50986
0.820884
0.803084
0.828921
0.825751
0.802093
0.807023
0.834457
0.720827
0.500433
0.886258
0.800579
0.815675
0.804321
0.71048
0.798628
0.800001
0.815049
0.736076
0.646507
0.883245
0.714154
0.836539
0.81197
0.832878
0.842654
0.792171
0.804743
0.813581
0.852774
0.738315
0.870699
0.814002
0.562812
0.802454
0.748924
0.852905
0.760291
0.804216
0.803953
0.799626
0.801588
0.808864
0.812891
0.85555
0.805982
0.802866
0.80131
0.8
0.812224
0.816859
0.802617
0.812468
0.849199
0.803097
0.783447
0.802236
0.839587
0.725022
0.813613
0.813811
0.637663
0.713102
0.805543
0.823011
0.803549
0.511735
0.856319
0.813198
0.832991
0.805304
0.803312
0.801337
0.786237
0.587178
0.804292
0.816086
0.835982
0.820551
0.812933
0.798154
0.746944
0.801567
0.765776
0.787533
0.799327
0.79096
0.751089
0.800834
0.811453
0.810355
0.832191
0.849064
0.55326
0.841894
0.812826
0.820845
0.801995
0.822657
0.811059
0.894611
0.800229
0.867093
0.805684
0.759764
0.862117
0.802277
0.800242
0.824147
0.6604
0.645286
0.803394
0.803854
0.704983
0.654303
0.799899
0.823838
0.813013
0.822574
0.732954
0.817176
0.812824
0.826119
0.816935
0.81194
0.812847
0.754578
0.803889
0.815663
0.811313
0.67622
0.566441
0.812884
0.650001
0.721923
0.555112
0.841387
0.800115
0.52697
0.600768
0.827506
0.908064
0.818131
0.652314
0.814142
0.786428
0.801711
0.786381
0.820642
0.81009
0.78828
0.82104
0.800998
0.587669
0.81781
0.766667
0.815914
0.700926
0.822207
0.789633
0.813934
0.800041
0.662871
0.843505
0.806543
0.806606
0.493577
0.816817
0.800375
0.852154
0.711345
0.817071
0.583949
0.718907
0.801396
0.796657
0.732734
0.715539
0.715981
0.506989
0.58957
0.79998
0.517525
0.822585
0.520238
0.757186
0.671259
0.599283
0.540601
0.745428
0.803081
0.715185
0.821282
0.800931
0.802933
0.761188
0.889675
0.799038
0.824468
0.803428
0.812771
0.705957
0.807561
0.736692
0.821896
0.886034
0.833562
0.74771
0.822775
0.770486
0.879897
0.804194
0.75866
0.850676
0.776855
0.799925
0.805282
0.758227
0.744607
0.665356
0.804983
0.803022
0.817894
0.833478
0.611482
0.807904
0.538101
0.668587
0.616309
0.818506
0.821027
0.808982
0.803974
0.615676
0.872454
0.802676
0.802945
0.86351
0.812407
0.772019
0.812144
0.802366
0.817887
0.803144
0.717037
0.80336
0.65533
0.798998
0.804084
0.801544
0.639161
0.811517
0.810296
0.725637
0.817791
0.549127
0.576697
0.804144
0.696477
0.725939
0.572096
0.723606
0.813605
0.707539
0.772971
0.716699
0.812794
0.670196
0.762101
0.806444
0.810591
0.654501
0.801945
0.895152
0.796696
0.81678
0.58516
0.693802
0.800924
0.812926
0.813992
0.85165
0.812627
0.804251
0.803725
0.803337
0.713791
0.717563
0.61562
0.771464
0.532771
0.723921
0.809903
0.814392
0.80612
0.799257
0.536139
0.809049
0.803756
0.553974
0.543317
0.746589
0.803571
0.806165
0.549327
0.798211
0.569586
0.72048
0.607773
0.813529
0.802248
0.597038
0.608286
0.867889
0.810033
0.765403
0.717847
0.621674
0.655323
0.709765
0.815996
0.759769
0.765501
0.624009
0.753864
0.809293
0.815349
0.812435
0.815455
0.865595
0.754682
0.818915
0.803331
0.851272
0.812839
0.802773
0.81306
0.722561
0.812932
0.811976
0.815168
0.811136
0.815876
0.80327
0.817909
0.81037
0.809722
0.81725
0.800112
0.816577
0.818935
0.667467
0.818591
0.868408
0.818151
0.792924
0.645905
0.858572
0.818771
0.824872
0.799534
0.811192
0.757504
0.852535
0.559319
0.726639
0.809858
0.815649
0.803872
0.80336
0.832034
0.805015
0.805196
0.815245
0.780707
0.83854
0.841934
0.815193
0.66431
0.612317
0.815748
0.816603
0.788294
0.849618
0.847248
0.810836
0.813611
0.777749
0.814069
0.817815
0.814093
0.818758
0.813083
0.815805
0.851032
0.815951
0.814484
0.817535
0.817749
0.784888
0.814101
0.804042
0.804117
0.804606
0.81855
0.811463
0.788338
0.753967
0.812649
0.806274
0.80876
0.806373
0.857761
0.803337
0.813976
0.812673
0.80518
0.565086
0.803884
0.812716
0.815004
0.810309
0.812759
0.813277
0.813
0.810173
0.864383
0.501529
0.81279
0.841647
0.812626
0.80296
0.808408
0.814978
0.839664
0.800437
0.801203
0.812597
0.70599
0.812807
0.808206
0.807341
0.812529
0.812858
0.813001
0.813334
0.511793
0.811862
0.715773
0.885836
0.821037
0.73341
0.67135
0.81534
0.803498
0.818706
0.646484
0.801654
0.813306
0.647971
0.799842
0.804092
0.815419
0.806261
0.856728
0.809845
0.606918
0.800821
0.775171
0.81121
0.889067
0.803271
0.815508
0.819305
0.832191
0.813372
0.822379
0.836325
0.634958
0.802615
0.65577
0.81372
0.813621
0.712531
0.813506
0.804801
0.713126
0.814902
0.701259
0.861062
0.78408
0.814271
0.812863
0.813401
0.667877
0.813627
0.633284
0.800189
0.792362
0.822273
0.815156
0.716011
0.766694
0.83003
0.812726
0.821283
0.821882
0.813409
0.825311
0.799489
0.552077
0.754899
0.759198
0.731417
0.837589
0.822338
0.834325
0.776019
0.802759
0.812998
0.81292
0.812924
0.774631
0.563801
0.803201
0.528514
0.808184
0.824259
0.799691
0.803756
0.812942
0.806009
0.782607
0.732185
0.813358
0.859132
0.813679
0.79928
0.736916
0.809592
0.788714
0.833703
0.503865
0.795973
0.805882
0.798864
0.689093
0.812811
0.810733
0.857051
0.569061
0.807329
0.803267
0.812793
0.612512
0.813057
0.803331
0.8034
0.803024
0.813168
0.813267
0.816079
0.813008
0.717855
0.804498
0.803198
0.812956
0.896156
0.813114
0.773973
0.841133
0.799177
0.803132
0.601327
0.81285
0.803355
0.825641
0.801963
0.866211
0.814803
0.853396
0.800329
0.820607
0.777872
0.558281
0.752689
0.794226
0.803913
0.81393
0.813773
0.555493
0.86177
0.857898
0.768457
0.757661
0.738514
0.812047
0.848394
0.812888
0.813691
0.812923
0.80427
0.726762
0.803497
0.799096
0.764209
0.824233
0.822967
0.861828
0.815618
0.812934
0.524529
0.808882
0.812894
0.800699
0.773958
0.818061
0.803109
0.812846
0.826855
0.798444
0.803575
0.801211
0.815145
0.839092
0.80236
0.799153
0.801481
0.766089
0.819832
0.567063
0.868364
0.803684
0.545728
0.80315
0.803111
0.81955
0.591844
0.606143
0.801544
0.803623
0.800838
0.860715
0.77992
0.814598
0.802933
0.86571
0.804709
0.804446
0.826291
0.815914
0.82008
0.82124
0.820289
0.867464
0.729252
0.852129
0.817161
0.653662
0.802531
0.80318
0.803633
0.821083
0.823469
0.803958
0.801076
0.800041
0.822638
0.803186
0.803601
0.799652
0.824346
0.803968
0.801987
0.806071
0.827829
0.80053
0.801514
0.824246
0.799575
0.815339
0.651259
0.826349
0.849818
0.804858
0.819531
0.803226
0.828709
0.837461
0.803394
0.821436
0.800524
0.806964
0.789546
0.802151
0.803147
0.80635
0.805888
0.804501
0.818502
0.814702
0.811227
0.83137
0.802169
0.802215
0.799892
0.788994
0.83375
0.80314
0.819259
0.815163
0.807094
0.805024
0.802946
0.838873
0.864721
0.799561
0.678933
0.801174
0.842116
0.816547
0.805114
0.804458
0.819676
0.844563
0.601639
0.828739
0.794473
0.850348
0.818686
0.811984
0.813259
0.808217
0.80395
0.812757
0.808743
0.591825
0.847951
0.79459
0.814132
0.854559
0.819233
0.763168
0.80862
0.814403
0.815415
0.802958
0.661681
0.809188
0.863127
0.802557
0.800696
0.775398
0.871197
0.800422
0.87705
0.806663
0.817117
0.820568
0.802211
0.803808
0.812552
0.815833
0.803457
0.813272
0.816695
0.881332
0.820676
0.809287
0.800124
0.828373
0.81047
0.838834
0.808792
0.806933
0.812103
0.816498
0.829875
0.813607
0.82249
0.832485
0.814147
0.69968
0.69079
0.81299
0.817695
0.803796
0.813069
0.514043
0.854847
0.79975
0.806217
0.813882
0.813429
0.803952
0.812425
0.800463
0.801196
0.808011
0.814696
0.756872
0.784624
0.822895
0.842662
0.834776
0.800246
0.805045
0.80335
0.812899
0.805688
0.799511
0.79978
0.800998
0.810875
0.797798
0.802735
0.835454
0.831303
0.729815
0.666523
0.807567
0.698577
0.799482
0.572217
0.8044
0.806917
0.803092
0.818114
0.833752
0.813869
0.812801
0.810253
0.803838
0.881502
0.816215
0.804786
0.772241
0.585899
0.810227
0.806608
0.769346
0.814361
0.813818
0.791457
0.800694
0.804023
0.624618
0.83041
0.803497
0.781472
0.779291
0.852682
0.809977
0.802869
0.802589
0.810184
0.811047
0.518678
0.801773
0.839454
0.813868
0.79856
0.588731
0.81451
0.814013
0.81289
0.833689
0.813861
0.803919
0.821844
0.805573
0.575773
0.808619
0.73651
0.798494
0.813577
0.722183
0.81487
0.845969
0.831583
0.664478
0.890886
0.785572
0.777394
0.796861
0.779509
0.808598
0.849942
0.807961
0.802857
0.81349
0.808809
0.782598
0.785911
0.813824
0.808301
0.834812
0.821223
0.835647
0.801254
0.799646
0.812986
0.856583
0.816414
0.818326
0.813286
0.607329
0.795511
0.823843
0.829309
0.865872
0.812543
0.818899
0.508709
0.809689
0.80058
0.81255
0.814707
0.847552
0.81299
0.811074
0.88148
0.764523
0.812531
0.813176
0.80897
0.8052
0.814168
0.655898
0.800489
0.849496
0.833479
0.810569
0.813506
0.813306
0.809553
0.698956
0.812442
0.800155
0.838529
0.818421
0.811574
0.831282
0.792688
0.811496
0.81776
0.808779
0.819235
0.744239
0.854715
0.81891
0.813749
0.812993
0.812641
0.81566
0.817101
0.812687
0.810732
0.841037
0.81854
0.800143
0.82525
0.826902
0.816008
0.814439
0.800353
0.801501
0.812983
0.81897
0.829372
0.812733
0.8164
0.799817
0.809905
0.812771
0.812736
0.802491
0.814604
0.813266
0.803231
0.812794
0.835614
0.800013
0.809377
0.821496
0.559963
0.814152
0.818109
0.815462
0.81495
0.821914
0.828779
0.815563
0.818781
0.701425
0.812994
0.801324
0.815557
0.818963
0.83503
0.821511
0.815502
0.829323
0.824889
0.810611
0.819165
0.819496
0.804174
0.813092
0.815544
0.81942
0.832066
0.812565
0.815638
0.802711
0.812867
0.812986
0.522612
0.627645
0.814329
0.821386
0.801721
0.822417
0.815847
0.841829
0.708106
0.813681
0.730449
0.81735
0.810258
0.813096
0.829304
0.813592
0.804852
0.812853
0.830038
0.839275
0.812732
0.719181
0.819229
0.815972
0.79991
0.803024
0.815249
0.855894
0.812582
0.813308
0.849662
0.828957
0.843232
0.573439
0.829061
0.81388
0.810839
0.817342
0.850487
0.817706
0.718384
0.799532
0.831715
0.799763
0.79972
0.805382
0.747819
0.813332
0.814283
0.725418
0.814295
0.827295
0.813252
0.81397
0.799213
0.818319
0.812918
0.823512
0.808687
0.808152
0.814912
0.705359
0.819018
0.814018
0.812903
0.639882
0.718715
0.599357
0.82323
0.529626
0.853794
0.727312
0.842761
0.812461
0.722721
0.82137
0.815823
0.742539
0.807646
0.818295
0.794398
0.816463
0.815802
0.815731
0.812919
0.80783
0.803656
0.737282
0.836107
0.820111
0.816549
0.799218
0.81539
0.801991
0.815946
0.813395
0.854587
0.817713
0.49705
0.813243
0.81873
0.818603
0.778041
0.815701
0.806712
0.818533
0.845327
0.596416
0.809089
0.799295
0.815258
0.81756
0.81763
0.812385
0.81854
0.813796
0.81452
0.803066
0.814217
0.84607
0.813871
0.791992
0.811428
0.622518
0.71872
0.812996
0.816933
0.802926
0.822245
0.735444
0.803147
0.803182
0.820147
0.626144
0.817534
0.799343
0.815352
0.864638
0.785478
0.821891
0.817916
0.822743
0.813954
0.769584
0.802419
0.8135
0.902285
0.827123
0.816365
0.832168
0.809542
0.868176
0.71936
0.68801
0.852307
0.802698
0.663682
0.85027
0.786037
0.831953