# vtk DataFile Version 1.0
unstructured grid
ascii
DATASET UNSTRUCTURED_GRID
points 3920 float
-1 0 0
-1 1 0
2 0 0
2 1 0
0 0 0
1 0 0
-1 1 0.1
-1 0 0.1
0 0 0.1
1 0 0.1
2 0 0.1
2 1 0.1
-0.98 0 0
-0.96 0 0
-0.94 0 0
-0.92 0 0
-0.9 0 0
-0.88 0 0
-0.86 0 0
-0.84 0 0
-0.82 0 0
-0.8 0 0
-0.78 0 0
-0.76 0 0
-0.74 0 0
-0.72 0 0
-0.7 0 0
-0.68 0 0
-0.66 0 0
-0.64 0 0
-0.62 0 0
-0.6 0 0
-0.58 0 0
-0.56 0 0
-0.54 0 0
-0.52 0 0
-0.5 0 0
-0.48 0 0
-0.46 0 0
-0.44 0 0
-0.42 0 0
-0.4 0 0
-0.38 0 0
-0.36 0 0
-0.34 0 0
-0.32 0 0
-0.3 0 0
-0.28 0 0
-0.26 0 0
-0.24 0 0
-0.22 0 0
-0.2 0 0
-0.18 0 0
-0.16 0 0
-0.14 0 0
-0.12 0 0
-0.1 0 0
-0.08 0 0
-0.06 0 0
-0.04 0 0
-0.02 0 0
1.02 0 0
1.04 0 0
1.06 0 0
1.08 0 0
1.1 0 0
1.12 0 0
1.14 0 0
1.16 0 0
1.18 0 0
1.2 0 0
1.22 0 0
1.24 0 0
1.26 0 0
1.28 0 0
1.3 0 0
1.32 0 0
1.34 0 0
1.36 0 0
1.38 0 0
1.4 0 0
1.42 0 0
1.44 0 0
1.46 0 0
1.48 0 0
1.5 0 0
1.52 0 0
1.54 0 0
1.56 0 0
1.58 0 0
1.6 0 0
1.62 0 0
1.64 0 0
1.66 0 0
1.68 0 0
1.7 0 0
1.72 0 0
1.74 0 0
1.76 0 0
1.78 0 0
1.8 0 0
1.82 0 0
1.84 0 0
1.86 0 0
1.88 0 0
1.9 0 0
1.92 0 0
1.94 0 0
1.96 0 0
1.98 0 0
2 0.0199133 0
2 0.0414128 0
2 0.0646247 0
2 0.0896856 0
2 0.116743 0
2 0.145955 0
2 0.177494 0
2 0.211545 0
2 0.248309 0
2 0.288001 0
2 0.330854 0
2 0.377121 0
2 0.427073 0
2 0.481004 0
2 0.539231 0
2 0.602096 0
2 0.669968 0
2 0.743247 0
2 0.822362 0
2 0.907779 0
1.9 1 0
1.8 1 0
1.7 1 0
1.6 1 0
1.5 1 0
1.4 1 0
1.3 1 0
1.2 1 0
1.1 1 0
1 1 0
0.9 1 0
0.8 1 0
0.7 1 0
0.6 1 0
0.5 1 0
0.4 1 0
0.3 1 0
0.2 1 0
0.1 1 0
3.69793e-12 1 0
-0.1 1 0
-0.2 1 0
-0.3 1 0
-0.4 1 0
-0.5 1 0
-0.6 1 0
-0.7 1 0
-0.8 1 0
-0.9 1 0
-1 0.907779 0
-1 0.822362 0
-1 0.743247 0
-1 0.669968 0
-1 0.602096 0
-1 0.539231 0
-1 0.481004 0
-1 0.427073 0
-1 0.377121 0
-1 0.330854 0
-1 0.288001 0
-1 0.248309 0
-1 0.211545 0
-1 0.177494 0
-1 0.145955 0
-1 0.116743 0
-1 0.0896856 0
-1 0.0646247 0
-1 0.0414128 0
-1 0.0199133 0
0.0182781 0.00745351 0
0.0366672 0.0146286 0
0.0551632 0.0215237 0
0.0737617 0.0281372 0
0.0924585 0.0344675 0
0.111249 0.0405131 0
0.13013 0.0462728 0
0.149095 0.0517451 0
0.168142 0.0569289 0
0.187265 0.0618228 0
0.20646 0.0664258 0
0.225723 0.0707368 0
0.245049 0.0747549 0
0.264434 0.078479 0
0.283873 0.0819084 0
0.303362 0.0850422 0
0.322896 0.0878798 0
0.342472 0.0904204 0
0.362083 0.0926635 0
0.381726 0.0946086 0
0.401397 0.0962552 0
0.42109 0.0976029 0
0.440802 0.0986514 0
0.460527 0.0994006 0
0.480261 0.0998501 0
0.5 0.1 0
0.519739 0.0998501 0
0.539473 0.0994006 0
0.559198 0.0986514 0
0.57891 0.0976029 0
0.598603 0.0962552 0
0.618274 0.0946086 0
0.637917 0.0926635 0
0.657528 0.0904204 0
0.677104 0.0878798 0
0.696638 0.0850422 0
0.716127 0.0819084 0
0.735566 0.078479 0
0.754951 0.0747549 0
0.774277 0.0707368 0
0.79354 0.0664258 0
0.812735 0.0618228 0
0.831858 0.0569289 0
0.850905 0.0517451 0
0.86987 0.0462728 0
0.888751 0.0405131 0
0.907542 0.0344675 0
0.926238 0.0281372 0
0.944837 0.0215237 0
0.963333 0.0146286 0
0.981722 0.00745351 0
-1 0.907779 0.1
-1 0.822362 0.1
-1 0.743247 0.1
-1 0.669968 0.1
-1 0.602096 0.1
-1 0.539231 0.1
-1 0.481004 0.1
-1 0.427073 0.1
-1 0.377121 0.1
-1 0.330854 0.1
-1 0.288001 0.1
-1 0.248309 0.1
-1 0.211545 0.1
-1 0.177494 0.1
-1 0.145955 0.1
-1 0.116743 0.1
-1 0.0896856 0.1
-1 0.0646247 0.1
-1 0.0414128 0.1
-1 0.0199133 0.1
-0.98 0 0.1
-0.96 0 0.1
-0.94 0 0.1
-0.92 0 0.1
-0.9 0 0.1
-0.88 0 0.1
-0.86 0 0.1
-0.84 0 0.1
-0.82 0 0.1
-0.8 0 0.1
-0.78 0 0.1
-0.76 0 0.1
-0.74 0 0.1
-0.72 0 0.1
-0.7 0 0.1
-0.68 0 0.1
-0.66 0 0.1
-0.64 0 0.1
-0.62 0 0.1
-0.6 0 0.1
-0.58 0 0.1
-0.56 0 0.1
-0.54 0 0.1
-0.52 0 0.1
-0.5 0 0.1
-0.48 0 0.1
-0.46 0 0.1
-0.44 0 0.1
-0.42 0 0.1
-0.4 0 0.1
-0.38 0 0.1
-0.36 0 0.1
-0.34 0 0.1
-0.32 0 0.1
-0.3 0 0.1
-0.28 0 0.1
-0.26 0 0.1
-0.24 0 0.1
-0.22 0 0.1
-0.2 0 0.1
-0.18 0 0.1
-0.16 0 0.1
-0.14 0 0.1
-0.12 0 0.1
-0.1 0 0.1
-0.08 0 0.1
-0.06 0 0.1
-0.04 0 0.1
-0.02 0 0.1
0.0182781 0.00745351 0.1
0.0366672 0.0146286 0.1
0.0551632 0.0215237 0.1
0.0737617 0.0281372 0.1
0.0924585 0.0344675 0.1
0.111249 0.0405131 0.1
0.13013 0.0462728 0.1
0.149095 0.0517451 0.1
0.168142 0.0569289 0.1
0.187265 0.0618228 0.1
0.20646 0.0664258 0.1
0.225723 0.0707368 0.1
0.245049 0.0747549 0.1
0.264434 0.078479 0.1
0.283873 0.0819084 0.1
0.303362 0.0850422 0.1
0.322896 0.0878798 0.1
0.342472 0.0904204 0.1
0.362083 0.0926635 0.1
0.381726 0.0946086 0.1
0.401397 0.0962552 0.1
0.42109 0.0976029 0.1
0.440802 0.0986514 0.1
0.460527 0.0994006 0.1
0.480261 0.0998501 0.1
0.5 0.1 0.1
0.519739 0.0998501 0.1
0.539473 0.0994006 0.1
0.559198 0.0986514 0.1
0.57891 0.0976029 0.1
0.598603 0.0962552 0.1
0.618274 0.0946086 0.1
0.637917 0.0926635 0.1
0.657528 0.0904204 0.1
0.677104 0.0878798 0.1
0.696638 0.0850422 0.1
0.716127 0.0819084 0.1
0.735566 0.078479 0.1
0.754951 0.0747549 0.1
0.774277 0.0707368 0.1
0.79354 0.0664258 0.1
0.812735 0.0618228 0.1
0.831858 0.0569289 0.1
0.850905 0.0517451 0.1
0.86987 0.0462728 0.1
0.888751 0.0405131 0.1
0.907542 0.0344675 0.1
0.926238 0.0281372 0.1
0.944837 0.0215237 0.1
0.963333 0.0146286 0.1
0.981722 0.00745351 0.1
1.02 0 0.1
1.04 0 0.1
1.06 0 0.1
1.08 0 0.1
1.1 0 0.1
1.12 0 0.1
1.14 0 0.1
1.16 0 0.1
1.18 0 0.1
1.2 0 0.1
1.22 0 0.1
1.24 0 0.1
1.26 0 0.1
1.28 0 0.1
1.3 0 0.1
1.32 0 0.1
1.34 0 0.1
1.36 0 0.1
1.38 0 0.1
1.4 0 0.1
1.42 0 0.1
1.44 0 0.1
1.46 0 0.1
1.48 0 0.1
1.5 0 0.1
1.52 0 0.1
1.54 0 0.1
1.56 0 0.1
1.58 0 0.1
1.6 0 0.1
1.62 0 0.1
1.64 0 0.1
1.66 0 0.1
1.68 0 0.1
1.7 0 0.1
1.72 0 0.1
1.74 0 0.1
1.76 0 0.1
1.78 0 0.1
1.8 0 0.1
1.82 0 0.1
1.84 0 0.1
1.86 0 0.1
1.88 0 0.1
1.9 0 0.1
1.92 0 0.1
1.94 0 0.1
1.96 0 0.1
1.98 0 0.1
2 0.0199133 0.1
2 0.0414128 0.1
2 0.0646247 0.1
2 0.0896856 0.1
2 0.116743 0.1
2 0.145955 0.1
2 0.177494 0.1
2 0.211545 0.1
2 0.248309 0.1
2 0.288001 0.1
2 0.330854 0.1
2 0.377121 0.1
2 0.427073 0.1
2 0.481004 0.1
2 0.539231 0.1
2 0.602096 0.1
2 0.669968 0.1
2 0.743247 0.1
2 0.822362 0.1
2 0.907779 0.1
1.9 1 0.1
1.8 1 0.1
1.7 1 0.1
1.6 1 0.1
1.5 1 0.1
1.4 1 0.1
1.3 1 0.1
1.2 1 0.1
1.1 1 0.1
1 1 0.1
0.9 1 0.1
0.8 1 0.1
0.7 1 0.1
0.6 1 0.1
0.5 1 0.1
0.4 1 0.1
0.3 1 0.1
0.2 1 0.1
0.1 1 0.1
3.69793e-12 1 0.1
-0.1 1 0.1
-0.2 1 0.1
-0.3 1 0.1
-0.4 1 0.1
-0.5 1 0.1
-0.6 1 0.1
-0.7 1 0.1
-0.8 1 0.1
-0.9 1 0.1
1.08758 0.0158154 0
-0.0898513 0.0203294 0
0.0966181 0.0537636 0
0.90205 0.0548881 0
1.21055 0.0202058 0
-0.209811 0.0159577 0
1.3305 0.0176902 0
-0.33 0.0173205 0
1.45324 0.0148141 0
-0.448654 0.0159854 0
1.56842 0.0191785 0
-0.569936 0.0166364 0
0.193292 0.0805369 0
0.805051 0.0813623 0
0.709096 0.100353 0
0.288591 0.0996656 0
0.390184 0.111848 0
0.61033 0.111742 0
0.488809 0.116278 0
1.67175 0.0169692 0
-0.67 0.0169809 0
-0.955017 0.454039 0
1.95131 0.44569 0
1.74981 0.0168753 0
-0.75 0.0173205 0
-0.968032 0.266538 0
1.96871 0.266267 0
0.978232 0.0305687 0
0.0208675 0.026451 0
-0.150454 0.91842 0
1.13854 0.907437 0
1.45012 0.904365 0
-0.445923 0.908903 0
-0.853423 0.0157019 0
1.84881 0.016319 0
0.853689 0.915652 0
0.153944 0.912184 0
0.545151 0.914125 0
0.549913 0.115152 0
1.51 0.0173205 0
-0.506989 0.01651 0
1.27 0.0173205 0
1.14976 0.0173333 0
-0.268171 0.0206442 0
-0.150501 0.0153244 0
-0.391384 0.0153993 0
1.38886 0.0171544 0
-0.973694 0.161724 0
1.97441 0.162392 0
-0.945221 0.633523 0
1.94544 0.63312 0
1.91008 0.0186068 0
-0.91 0.0169616 0
-0.030664 0.0194327 0
1.03074 0.0165456 0
-0.966065 0.353575 0
1.96128 0.359765 0
1.93879 0.781254 0
-0.937057 0.781882 0
-0.980746 0.080709 0
1.9772 0.0760699 0
0.058735 0.0409372 0
0.355202 0.913001 0
0.86356 0.0661005 0
0.134223 0.0651111 0
0.941972 0.0397386 0
-0.653034 0.915003 0
1.65328 0.904589 0
0.770126 0.0881325 0
0.232946 0.0902008 0
0.330582 0.105648 0
0.670612 0.108365 0
0.428707 0.116145 0
1.80993 0.016629 0
-0.810168 0.0172178 0
-0.71 0.0173205 0
1.63047 0.0175504 0
1.70842 0.0169661 0
-0.628824 0.0181787 0
-0.949815 0.0133898 0
1.95 0.0173205 0
1.85542 0.907891 0
-0.85 0.913397 0
1.9833 0.0307692 0
-0.983315 0.0309709 0
-0.750025 0.916468 0
-0.701107 0.836904 0
-0.607741 0.836428 0
-0.656448 0.759827 0
-0.572936 0.758144 0
-0.61411 0.691195 0
-0.539534 0.689068 0
-0.578542 0.626111 0
-0.507461 0.624216 0
-0.544001 0.566638 0
-0.477696 0.564279 0
-0.511582 0.51001 0
-0.451689 0.507147 0
-0.481834 0.457732 0
-0.426137 0.454624 0
-0.453236 0.407539 0
-0.398845 0.406233 0
-0.507958 0.409496 0
-0.368427 0.460177 0
-0.344602 0.405209 0
-0.315696 0.447824 0
-0.294128 0.402169 0
-0.262844 0.444518 0
-0.241968 0.388746 0
-0.209878 0.439557 0
-0.185184 0.391135 0
-0.156687 0.437338 0
-0.133719 0.390776 0
-0.104405 0.434306 0
-0.0818745 0.388334 0
-0.0528785 0.431165 0
-0.0305984 0.385639 0
-0.00180552 0.427863 0
0.0194564 0.382608 0
0.0485809 0.42449 0
0.0701962 0.37973 0
0.0985483 0.421145 0
0.119893 0.377339 0
0.147837 0.417911 0
0.172552 0.36751 0
0.197018 0.412597 0
0.221203 0.37141 0
0.24512 0.409646 0
-0.48178 0.364657 0
-0.531053 0.364782 0
-0.0599102 0.344151 0
-0.324909 0.359566 0
0.266181 0.368462 0
0.292132 0.407649 0
0.311992 0.365779 0
0.338918 0.404821 0
0.357567 0.355909 0
0.384723 0.40053 0
0.404675 0.359681 0
0.430617 0.398558 0
0.450457 0.35827 0
0.474237 0.395182 0
0.496746 0.34898 0
0.520548 0.397931 0
0.542071 0.353121 0
0.566011 0.389914 0
0.585061 0.350856 0
0.609352 0.38696 0
0.629069 0.348168 0
0.655979 0.391217 0
0.67472 0.346182 0
0.699346 0.381414 0
0.719333 0.341965 0
0.743718 0.377547 0
0.764028 0.339036 0
0.788201 0.373582 0
0.807659 0.336101 0
0.832821 0.372249 0
0.852309 0.334017 0
0.877785 0.370339 0
0.897875 0.331141 0
0.922904 0.366281 0
0.943173 0.327335 0
0.968282 0.363358 0
0.989029 0.324222 0
1.01391 0.361511 0
1.03465 0.321428 0
1.05949 0.358447 0
1.08389 0.312052 0
1.10575 0.355104 0
1.12889 0.31562 0
1.15067 0.353235 0
1.17157 0.312819 0
1.19626 0.349369 0
1.21618 0.309863 0
1.2416 0.346914 0
1.26131 0.30715 0
1.28691 0.344312 0
1.30571 0.303752 0
1.33144 0.341222 0
1.35018 0.300911 0
1.3758 0.338308 0
1.39501 0.298931 0
1.42015 0.335235 0
1.43904 0.296349 0
1.46355 0.330194 0
1.48256 0.293347 0
1.50685 0.326967 0
1.52589 0.29055 0
1.54996 0.325305 0
1.56909 0.287929 0
[...]
CELL_DATA 3694
SCALARS rho float
LOOKUP_TABLE default
0.756587
0.708801
0.806885
0.839299
0.838644
0.808273
0.797681
0.803368
0.831304
0.80531
0.83855
0.838528
0.841227
0.79607
0.804053
0.776032
0.805383
0.805686
0.782631
0.856947
0.831702
0.839573
0.741145
0.806648
0.73862
0.840232
0.738396
0.810184
0.838246
0.800446
0.800576
0.736107
0.806103
0.8271
0.806012
0.814702
0.844941
0.838976
0.837414
0.785072
0.807705
0.820299
0.835825
0.827623
0.809227
0.839398
0.804686
0.71122
0.710489
0.75585
0.805552
0.804379
0.854088
0.806416
0.704312
0.845888
0.805815
0.834018
0.833882
0.772706
0.801676
0.843284
0.851576
0.802869
0.852927
0.843486
0.811343
0.840949
0.747578
0.865471
0.804341
0.811112
0.839592
0.805419
0.839703
0.804442
0.817112
0.801926
0.836099
0.806035
0.745818
0.821359
0.803643
0.783791
0.828903
0.801989
0.833486
0.745854
0.747635
0.835942
0.814029
0.804991
0.823298
0.829904
0.705374
0.809913
0.745301
0.838357
0.836351
0.849798
0.839604
0.784713
0.731683
0.830471
0.828289
0.843266
0.838443
0.8104
0.737602
0.835389
0.803944
0.756975
0.733732
0.834234
0.873649
0.804715
0.814899
0.836224
0.804289
0.804557
0.77568
0.824689
0.835968
0.787411
0.71817
0.773433
0.837385
0.795875
0.850912
0.741347
0.777227
0.805179
0.811456
0.787756
0.804819
0.809532
0.808652
0.803797
0.799827
0.839316
0.835492
0.74428
0.83781
0.840314
0.772531
0.713527
0.707249
0.80031
0.839661
0.816267
0.767509
0.804469
0.661443
0.794532
0.72483
0.785403
0.73729
0.799276
0.660282
0.799187
0.838201
0.684147
0.790857
0.758293
0.854103
0.658722
0.82019
0.803575
0.806819
0.705012
0.803961
0.704704
0.865133
0.664836
0.804487
0.707261
0.870615
0.845956
0.836527
0.755132
0.834947
0.736948
0.841724
0.751132
0.686447
0.805129
0.690415
0.839357
0.805188
0.859418
0.797849
0.717596
0.843487
0.8006
0.763212
0.852724
0.814755
0.855518
0.757748
0.766604
0.782389
0.80794
0.84483
0.83524
0.819583
0.839616
0.712376
0.80761
0.757081
0.804972
0.746467
0.81015
0.800536
0.805907
0.840991
0.785287
0.84396
0.768482
0.840992
0.834936
0.83977
0.852877
0.831096
0.744738
0.841798
0.695866
0.795115
0.826531
0.859594
0.842921
0.82878
0.799523
0.768098
0.838495
0.847546
0.838513
0.747964
0.815558
0.726177
0.808111
0.800413
0.828192
0.699223
0.811146
0.779413
0.802915
0.804222
0.778978
0.841934
0.864481
0.790541
0.706109
0.808644
0.805437
0.686432
0.80992
0.788049
0.804148
0.846695
0.842784
0.662253
0.84137
0.813597
0.81426
0.840727
0.804366
0.818267
0.827235
0.836584
0.776034
0.80314
0.847057
0.81416
0.804319
0.801521
0.843363
0.740061
0.644804
0.837623
0.831049
0.838091
0.80843
0.731614
0.840724
0.841176
0.831855
0.747788
0.809995
0.843156
0.668657
0.804123
0.873485
0.693715
0.780328
0.849129
0.837734
0.84341
0.720619
0.812966
0.843223
0.806571
0.804572
0.815372
0.844498
0.820468
0.779364
0.810699
0.804788
0.684471
0.83881
0.842287
0.714834
0.807159
0.838371
0.82313
0.715868
0.680454
0.838937
0.839438
0.812916
0.74513
0.737686
0.743494
0.761885
0.838185
0.795683
0.807089
0.762148
0.752423
0.838721
0.828986
0.822153
0.787601
0.841922
0.839927
0.8384
0.837169
0.805244
0.811111
0.807738
0.705096
0.803911
0.816162
0.737511
0.811095
0.808375
0.838439
0.793594
0.810011
0.798212
0.843156
0.838813
0.838569
0.800719
0.73221
0.748164
0.804003
0.814263
0.692208
0.806704
0.811413
0.820146
0.764331
0.808082
0.836712
0.836026
0.838253
0.808204
0.80242
0.78444
0.808337
0.853617
0.82296
0.720287
0.80708
0.743238
0.718496
0.805652
0.65931
0.7822
0.792617
0.811585
0.842157
0.838265
0.837214
0.825628
0.838578
0.841966
0.804654
0.784499
0.813279
0.704991
0.837744
0.776869
0.758203
0.727275
0.840009
0.860056
0.837744
0.812624
0.824426
0.841095
0.794382
0.780073
0.830976
0.720292
0.797347
0.851789
0.828202
0.804599
0.870464
0.816548
0.834047
0.83849
0.832329
0.693322
0.814737
0.761425
0.799944
0.748694
0.832077
0.812251
0.802249
0.691402
0.842429
0.831656
0.837025
0.80535
0.80709
0.839869
0.806591
0.746125
0.796595
0.804211
0.842091
0.833838
0.833959
0.876477
0.84225
0.812783
0.845098
0.719226
0.83977
0.849065
0.838596
0.671326
0.841233
0.812738
0.855136
0.838902
0.805094
0.648668
0.813584
0.738189
0.809564
0.804393
0.815823
0.842077
0.827251
0.808314
0.814611
0.837433
0.757196
0.869438
0.803364
0.858917
0.83708
0.664179
0.806693
0.802109
0.835213
0.838365
0.713162
0.804727
0.813044
0.816282
0.810567
0.799326
0.840204
0.837598
0.813303
0.807965
0.838439
0.844954
0.761386
0.809763
0.813489
0.834874
0.713385
0.808701
0.833593
0.801642
0.807437
0.662433
0.845739
0.785571
0.843298
0.838208
0.843749
0.854242
0.836513
0.837092
0.747843
0.801399
0.858492
0.829062
0.73443
0.802424
0.804185
0.877037
0.854981
0.838341
0.803277
0.813268
0.773993
0.839502
0.817214
0.646088
0.805428
0.76205
0.763516
0.806289
0.835905
0.788783
0.823967
0.840409
0.839341
0.834613
0.804728
0.825683
0.749874
0.760757
0.807079
0.826873
0.835947
0.805411
0.765009
0.732098
0.841385
0.81844
0.817097
0.653042
0.840404
0.829822
0.840468
0.805551
0.824182
0.836386
0.815108
0.850538
0.805346
0.815929
0.837274
0.84018
0.829736
0.833208
0.7355
0.791933
0.808695
0.805509
0.85693
0.804174
0.816006
0.675923
0.823521
0.836311
0.81429
0.838398
0.809123
0.840562
0.749255
0.853721
0.720871
0.803091
0.838535
0.810725
0.715708
0.689605
0.818791
0.809092
0.807786
0.802525
0.803988
0.842748
0.833437
0.808124
0.804997
0.833692
0.66408
0.836832
0.806386
0.739946
0.83419
0.700746
0.80236
0.837733
0.845748
0.825076
0.839193
0.810125
0.809902
0.80758
0.804041
0.837125
0.814644
0.830338
0.805216
0.766221
0.807515
0.839964
0.839053
0.830152
0.837046
0.838998
0.841931
0.842521
0.76491
0.810282
0.839015
0.805662
0.637953
0.731558
0.814981
0.840999
0.840364
0.788247
0.812275
0.816403
0.80657
0.804233
0.805838
0.832241
0.833649
0.841678
0.802111
0.824171
0.824926
0.672879
0.785393
0.774872
0.818096
0.756286
0.728757
0.799583
0.779628
0.841488
0.843311
0.842043
0.812087
0.635338
0.818986
0.644403
0.740294
0.840433
0.874047
0.769868
0.837238
0.860976
0.730095
0.837583
0.812747
0.81813
0.811055
0.694514
0.862626
0.751149
0.762453
0.807397
0.807732
0.801389
0.834677
0.841477
0.725927
0.827713
0.803463
0.737589
0.850607
0.800645
0.671802
0.784462
0.839056
0.827492
0.841398
0.791155
0.7579
0.790607
0.838059
0.717459
0.839524
0.833102
0.841787
0.782253
0.839243
0.734232
0.807769
0.696788
0.727562
0.813072
0.825485
0.806427
0.84338
0.83984
0.840939
0.842611
0.650694
0.803562
0.843448
0.76315
0.813547
0.839554
0.837899
0.728955
0.704198
0.761405
0.689232
0.811089
0.719573
0.840089
0.803054
0.841729
0.838032
0.702788
0.817568
0.835431
0.841002
0.767486
0.798876
0.772933
0.788941
0.830124
0.678596
0.68632
0.840931
0.808676
0.829606
0.80766
0.748233
0.795351
0.753999
0.769364
0.802768
0.844994
0.815696
0.718785
0.839798
0.83039
0.834725
0.734162
0.704559
0.722175
0.877347
0.839202
0.834869
0.664537
0.736973
0.683307
0.806888
0.802037
0.706265
0.815513
0.834014
0.775366
0.803092
0.755384
0.838778
0.720315
0.843013
0.813998
0.817224
0.804462
0.834941
0.764791
0.839935
0.842801
0.78947
0.6681
0.819682
0.833164
0.775262
0.842668
0.757636
0.806489
0.837923
0.714655
0.83829
0.803629
0.813494
0.660506
0.69036
0.75928
0.809791
0.834133
0.833809
0.838426
0.81827
0.838661
0.730202
0.803036
0.833783
0.840789
0.729991
0.75984
0.83795
0.825434
0.731559
0.817514
0.790067
0.715767
0.81525
0.724072
0.820366
0.69857
0.804138
0.742731
0.71399
0.832687
0.793851
0.767052
0.674613
0.849141
0.823446
0.834159
0.786908
0.842833
0.80201
0.800558
0.802501
0.805666
0.833378
0.763476
0.813317
0.802441
0.838358
0.65657
0.804704
0.832469
0.83279
0.832447
0.832328
0.765366
0.816676
0.77653
0.769319
0.837552
0.70842
0.83716
0.836727
0.804571
0.835197
0.836344
0.753306
0.776686
0.838825
0.801088
0.807384
0.83604
0.878936
0.834948
0.81612
0.838745
0.840744
0.799435
0.838328
0.833535
0.784784
0.742097
0.851874
0.802102
0.804649
0.825182
0.796009
0.83809
0.826735
0.838273
0.838597
0.87587
0.804658
0.808515
0.838184
0.804643
0.839189
0.810551
0.760847
0.838766
0.838469
0.763169
0.747677
0.838293
0.844075
0.824884
0.716416
0.839121
0.784726
0.828485
0.805139
0.75564
0.80426
0.800996
0.818725
0.834654
0.72375
0.74544
0.805021
0.79419
0.805342
0.834361
0.734998
0.842611
0.805518
0.803655
0.832906
0.840551
0.749645
0.838694
0.777325
0.806162
0.833917
0.806047
0.790921
0.802754
0.799666
0.8406
0.680789
0.843397
0.707179
0.725772
0.806206
0.838469
0.842773
0.804897
0.840903
0.821844
0.756392
0.79353
0.864523
0.804507
0.842124
0.811272
0.659294
0.770868
0.798677
0.704253
0.765363
0.653528
0.830014
0.841789
0.827952
0.803877
0.776946
0.722842
0.78521
0.761638
0.790879
0.843423
0.845225
0.838425
0.809444
0.821788
0.833198
0.805882
0.811554
0.736229
0.806141
0.7744
0.812233
0.800212
0.775367
0.834605
0.795685
0.80634
0.807432
0.849337
0.748196
0.803216
0.802507
0.808301
0.661968
0.840363
0.840538
0.824651
0.700196
0.840718
0.840068
0.800926
0.806795
0.799346
0.794004
0.810393
0.811187
0.839536
0.763019
0.820585
0.879219
0.778091
0.771557
0.823669
0.790838
0.852834
0.816403
0.798568
0.831776
0.802957
0.798846
0.811704
0.840969
0.847658
0.804002
0.644921
0.837849
0.841622
0.78174
0.844163
0.848022
0.838738
0.840484
0.811063
0.844529
0.841642
0.791312
0.81283
0.835019
0.824344
0.83941
0.806012
0.829071
0.798969
0.807372
0.809892
0.756957
0.811034
0.644424
0.837876
0.840757
0.842749
0.809763
0.821244
0.839991
0.822207
0.838687
0.849907
0.845779
0.805022
0.801931
0.838994
0.837139
0.838397
0.802904
0.810058
0.871352
0.83848
0.856578
0.837745
0.803121
0.82672
0.804745
0.834619
0.835094
0.832566
0.808794
0.755349
0.805229
0.807761
0.840254
0.80677
0.814299
0.824485
0.808603
0.807263
0.787437
0.822403
0.740277
0.817632
0.799031
0.773905
0.806325
0.816588
0.821387
0.750195
0.838331
0.818354
0.828385
0.836927
0.803378
0.83908
0.847361
0.834803
0.828278
0.815129
0.803804
0.769182
0.728446
0.842137
0.823156
0.790132
0.834559
0.811364
0.8338
0.808947
0.800981
0.785755
0.803796
0.802235
0.850564
0.838215
0.814957
0.810354
0.656633
0.756622
0.806082
0.800474
0.807525
0.836551
0.809513
0.839361
0.789034
0.841719
0.808261
0.833605
0.807042
0.837451
0.804033
0.839659
0.832339
0.837688
0.833438
0.750238
0.833705
0.839998
0.65289
0.841906
0.802096
0.806282
0.865753
0.835491
0.832868
0.87708
0.838673
0.839105
0.838723
0.838105
0.834844
0.776778
0.831589
0.804541
0.805617
0.832762
0.839707
0.83886
0.840872
0.832315
0.825481
0.807035
0.831995
0.812586
0.818539
0.822688
0.841165
0.831931
0.837403
0.812518
0.70782
0.707808
0.804803
0.812403
0.80586
0.832101
0.836926
0.835733
0.80508
0.807819
0.803286
0.803013
0.83673
0.852038
0.83832
0.815124
0.837365
0.838266
0.8465
0.836468
0.823856
0.793371
0.835767
0.810297
0.805154
0.798338
0.828763
0.837704
0.841095
0.838175
0.836787
0.822831
0.83912
0.836082
0.824169
0.806077
0.806038
0.808873
0.834612
0.840561
0.803665
0.819276
0.838558
0.824948
0.803625
0.676511
0.807191
0.809583
0.820396
0.803619
0.805864
0.767595
0.851485
0.806631
0.801863
0.846995
0.843495
0.813707
0.841287
0.802833
0.838018
0.834327
0.838236
0.806216
0.838127
0.760567
0.839254
0.814826
0.802661
0.816442
0.838627
0.80395
0.806788
0.799577
0.81824
0.840743
0.840546
0.83803
0.809796
0.838674
0.839251
0.837882
0.824376
0.849115
0.809428
0.722196
0.837218
0.848316
0.838435
0.808001
0.801814
0.806535
0.832842
0.817349
0.838565
0.759297
0.76765
0.803491
0.806623
0.838599
0.83559
0.816434
0.708636
0.733465
0.811465
0.776706
0.839837
0.724916
0.804551
0.750892
0.804124
0.822841
0.80428
0.83835
0.836374
0.80245
0.812068
0.809641
0.831199
0.840351
0.804104
0.806434
0.837044
0.838225
0.772431
0.835532
0.806376
0.789412
0.840521
0.806588
0.814172
0.843184
0.840818
0.84629
0.809066
0.800575
0.840692
0.776545
0.810172
0.842842
0.804862
0.838147
0.841629
0.805197
0.852165
0.821527
0.80381
0.838167
0.804107
0.851583
0.7948
0.805209
0.839668
0.844771
0.811757
0.839333
0.839418
0.805141
0.805128
0.82798
0.79701
0.839668
0.840026
0.710493
0.839846
0.736681
0.820456
0.848295
0.839445
0.808024
0.841644
0.841614
0.750892
0.842628
0.804326
0.802828
0.803311
0.838258
0.870009
0.803503
0.803809
0.793216
0.851507
0.829633
0.837629
0.835519
0.766769
0.8183
0.804076
0.753197
0.802852
0.739433
0.833247
0.803706
0.710136
0.883709
0.727359
0.779479
0.8053
0.768605
0.811798
0.801223
0.80435
0.698061
0.801277
0.792024
0.801687
0.761319
0.837824
0.839318
0.887356
0.812845
0.833191
0.686699
0.802997
0.801014
0.771869
0.771462
0.789813
0.742856
0.806124
0.802114
0.806226
0.778682
0.676002
0.81478
0.668123
0.835283
0.832365
0.814757
0.752768
0.824123
0.813009
0.835372
0.791413
0.826965
0.801503
0.831965
0.740817
0.803867
0.749284
0.803649
0.800842
0.732727
0.806845
0.842625
0.84236
0.804888
0.779107
0.841389
0.744462
0.720496
0.803987
0.842524
0.879093
0.842893
0.839234
0.883718
0.870202
0.839644
0.731159
0.804268
0.815145
0.824128
0.813486
0.728963
0.745571
0.727425
0.80414
0.718124
0.781748
0.801262
0.696159
0.705251
0.844535
0.790991
0.767998
0.842882
0.779169
0.777172
0.692946
0.757082
0.800786
0.833278
0.873979
0.846462
0.840236
0.809016
0.801588
0.745526
0.841317
0.723496
0.801762
0.842902
0.789775
0.780192
0.815406
0.798478
0.805833
0.802725
0.834318
0.814365
0.87223
0.68145
0.655339
0.804392
0.820462
0.73359
0.813705
0.804698
0.846745
0.806159
0.803371
0.654851
0.671051
0.811859
0.835456
0.841726
0.759221
0.804381
0.824113
0.724832
0.835819
0.80417
0.842426
0.803933
0.812917
0.803221
0.842899
0.803767
0.819526
0.805643
0.86816
0.843255
0.803419
0.733403
0.717113
0.839646
0.663572
0.82671
0.813643
0.845832
0.834676
0.805272
0.814128
0.841902
0.836564
0.843586
0.80271
0.85355
0.863631
0.805688
0.711596
0.825717
0.824355
0.80295
0.804867
0.834292
0.76504
0.803972
0.836694
0.834708
0.836328
0.840202
0.783044
0.75634
0.80422
0.844757
0.8066
0.828883
0.808259
0.807463
0.808823
0.842353
0.812532
0.801436
0.810563
0.809793
0.82688
0.810301
0.809824
0.838159
0.810613
0.804038
0.841639
0.804327
0.803741
0.809279
0.811555
0.841523
0.785
0.808715
0.804618
0.843778
0.801158
0.806386
0.810623
0.843419
0.808282
0.711449
0.802468
0.836926
0.807763
0.817728
0.777233
0.837579
0.769359
0.806131
0.803241
0.80685
0.82181
0.859247
0.807314
0.804048
0.757731
0.842042
0.842906
0.837581
0.82668
0.831863
0.761552
0.837771
0.754454
0.805263
0.840872
0.803928
0.739285
0.839908
0.8301
0.839419
0.839008
0.840927
0.784397
0.838351
0.713776
0.749103
0.84281
0.838307
0.729016
0.838353
0.69502
0.837879
0.810705
0.838936
0.804224
0.809511
0.831065
0.833498
0.82692
0.68122
0.840692
0.852225
0.790344
0.855521
0.803406
0.746851
0.849553
0.838294
0.847382
0.736106
0.731734
0.845473
0.719393
0.843905
0.842374
0.842577
0.810197
0.841528
0.795009
0.840667
0.839917
0.747594
0.871683
0.839339
0.83892
0.825666
0.779125
0.804548
0.655613
0.819958
0.838628
0.839239
0.808911
0.840633
0.843824
0.799737
0.838423
0.804742
0.72771
0.798577
0.835681
0.841586
0.751967
0.815808
0.823886
0.667261
0.841025
0.840391
0.807129
0.813376
0.758183
0.831516
0.804445
0.805795
0.801222
0.810625
0.803119
0.799749
0.803951
0.841114
0.821913
0.838667
0.642526
0.895104
0.737733
0.802594
0.767059
0.797646
0.84369
0.839979
0.840405
0.664309
0.836036
0.820023
0.806978
0.833967
0.837969
0.840454
0.790536
0.802343
0.803691
0.759089
0.776411
0.841496
0.781239
0.818206
0.837939
0.841064
0.816659
0.804064
0.794095
0.815316
0.83934
0.749173
0.81395
0.839642
0.838359
0.811318
0.81287
0.785549
0.842721
0.81165
0.805185
0.810864
0.677009
0.809935
0.807496
0.809297
0.838246
0.845911
0.80797
0.794115
0.808606
0.781301
0.837937
0.823907
0.841228
0.843791
0.850039
0.805788
0.760125
0.822418
0.841559
0.752423
0.804434
0.839254
0.770934
0.841368
0.638988
0.810137
0.715041
0.804837
0.822079
0.835663
0.838653
0.807199
0.831175
0.837017
0.803671
0.808354
0.845067
0.838903
0.801459
0.835231
0.805965
0.805526
0.802223
0.80401
0.823189
0.842017
0.804476
0.790517
0.837941
0.823814
0.812433
0.843719
0.650336
0.807792
0.816822
0.841136
0.804724
0.77218
0.731433
0.840929
0.843515
0.840408
0.807081
0.662097
0.787849
0.702645
0.838873
0.755302
0.840907
0.83226
0.740052
0.801754
0.845592
0.775481
0.804359
0.804935
0.838133
0.81435
0.726688
0.802828
0.656154
0.804888
0.804558
0.805324
0.676852
0.804312
0.805929
0.805982
0.750413
0.759322
0.806093
0.792311
0.84027
0.746494
0.733637
0.841123
0.805224
0.772141
0.860203
0.841758
0.840667
0.705925
0.806169
0.802218
0.802454
0.803679
0.702737
0.805766
0.840946
0.694798
0.717889
0.809855
0.804431
0.841943
0.832953
0.838774
0.839308
0.838355
0.806547
0.84153
0.838376
0.824315
0.831248
0.80596
0.804082
0.814013
0.759975
0.813018
0.838253
0.867986
0.822795
0.684278
0.79442
0.804153
0.785739
0.838625
0.834543
0.839167
0.817521
0.869816
0.805667
0.838539
0.661023
0.818976
0.842871
0.804002
0.842388
0.676491
0.835808
0.804439
0.838605
0.803448
0.838001
0.838931
0.76429
0.806983
0.803924
0.844437
0.8678
0.822468
0.839529
0.738497
0.769726
0.804002
0.805376
0.815642
0.837604
0.801302
0.80502
0.837233
0.823763
0.811026
0.751374
0.804315
0.836095
0.831746
0.781627
0.769722
0.830743
0.801535
0.863891
0.742843
0.844477
0.830661
0.725796
0.804519
0.838425
0.793518
0.802018
0.804365
0.839864
0.79457
0.782053
0.839704
0.713444
0.800332
0.784753
0.840453
0.838612
0.804426
0.803284
0.763152
0.773968
0.789365
0.841377
0.838182
0.823169
0.701199
0.816296
0.810461
0.785827
0.813202
0.838672
0.804375
0.806987
0.703119
0.807829
0.808467
0.85995
0.806463
0.8128
0.843911
0.809161
0.830908
0.860099
0.684184
0.80694
0.83941
0.809032
0.808549
0.809426
0.807801
0.808103
0.807291
0.809626
0.810152
0.752589
0.809627
0.810839
0.820784
0.836424
0.811919
0.832856
0.804076
0.806405
0.83779
0.837083
0.832124
0.804021
0.818973
0.816685
0.824018
0.838257
0.741372
0.839028
0.842917
0.840779
0.862365
0.768558
0.826244
0.84304
0.80471
0.690539
0.805483
0.787997
0.839134
0.668248
0.840142
0.841767
0.841634
0.826535
0.80399
0.829245
0.830541
0.806642
0.781596
0.838187
0.770793
0.644263
0.843086
0.707591
0.732486
0.822714
0.840717
0.841581
0.83841
0.856411
0.680615
0.874922
0.809313
0.839805
0.838947
0.835531
0.724654
0.842412
0.838223
0.838858
0.804941
0.780865
0.824433
0.651592
0.828434
0.853039
0.805994
0.850345
0.83775
0.803951
0.718866
0.844131
0.837441
0.847986
0.803457
0.829874
0.803907
0.846115
0.804898
0.830654
0.844427
0.842987
0.824272
0.840252
0.832671
0.749645
0.717364
0.671142
0.841829
0.840949
0.780445
0.773335
0.825008
0.840157
0.846963
0.671024
0.839495
0.83901
0.838678
0.83829
0.80826
0.82321
0.71722
0.766083
0.838453
0.800087
0.868731
0.892904
0.786792
0.821254
0.702093
0.836873
0.75899
0.753355
0.821769
0.806357
0.791912
0.72084
0.80345
0.841387
0.795939
0.750158
0.817415
0.820003
0.803302
0.727804
0.832897
0.798919
0.839788
0.845362
0.818214
0.812576
0.839172
0.839461
0.79312
0.80714
0.749715
0.841457
0.799057
0.830201
0.79079
0.807635
0.735148
0.802132
0.816709
0.815424
0.81432
0.812907
0.81183
0.811063
0.809403
0.808158
0.810229
0.7584
0.808775
0.802638
0.801119
0.805778
0.844884
0.752051
0.805148
0.785281
0.886724
0.85426
0.802609
0.756922
0.806853
0.802569
0.745458
0.805878
0.804776
0.763812
0.807732
0.807135
0.799932
0.803795
0.755943
0.797898
0.820069
0.772663
0.775917
0.789509
0.804216
0.83891
0.812041
0.7811
0.765963
0.803604
0.841385
0.805432
0.805946
0.802524
0.926785
0.865806
0.835286
0.843667
0.73555
0.853277
0.766633
0.828419
0.826741
0.899663
0.843025
0.799366
0.652776
0.842675
0.79961
0.842323
0.800122
0.852516
0.652145
0.844666
0.804928
0.809228
0.808958
0.807267
0.85563
0.803271
0.837914
0.726858
0.667607
0.697487
0.84199
0.639323
0.799953
0.752252
0.849083
0.818043
0.626914
0.81422
0.841348
0.841851
0.742424
0.804693
0.622186
0.800076
0.84134
0.800307
0.804751
0.800644
0.840717
0.842249
0.803954
0.801621
0.839891
0.801973
0.839644
0.817595
0.802341
0.839412
0.838914
0.839203
0.802643
0.839017
0.708912
0.802918
0.838857
0.804559
0.803184
0.838709
0.73644
0.842184
0.800112
0.84347
0.803164
0.830248
0.839612
0.868222
0.802712
0.804431
0.838434
0.818622
0.80402
0.803593
0.862663
0.823943
0.838517
0.830764
0.857226
0.84274
0.837513
0.828151
0.85592
0.842432
0.805691
0.838411
0.822537
0.806152
0.841599
0.803241
0.818782
0.789307