# vtk DataFile Version 1.0
unstructured grid
ascii
DATASET UNSTRUCTURED_GRID
points 3920 float
-1 0 0
-1 1 0
2 0 0
2 1 0
0 0 0
1 0 0
-1 1 0.1
-1 0 0.1
0 0 0.1
1 0 0.1
2 0 0.1
2 1 0.1
-0.98 0 0
-0.96 0 0
-0.94 0 0
-0.92 0 0
-0.9 0 0
-0.88 0 0
-0.86 0 0
-0.84 0 0
-0.82 0 0
-0.8 0 0
-0.78 0 0
-0.76 0 0
-0.74 0 0
-0.72 0 0
-0.7 0 0
-0.68 0 0
-0.66 0 0
-0.64 0 0
-0.62 0 0
-0.6 0 0
-0.58 0 0
-0.56 0 0
-0.54 0 0
-0.52 0 0
-0.5 0 0
-0.48 0 0
-0.46 0 0
-0.44 0 0
-0.42 0 0
-0.4 0 0
-0.38 0 0
-0.36 0 0
-0.34 0 0
-0.32 0 0
-0.3 0 0
-0.28 0 0
-0.26 0 0
-0.24 0 0
-0.22 0 0
-0.2 0 0
-0.18 0 0
-0.16 0 0
-0.14 0 0
-0.12 0 0
-0.1 0 0
-0.08 0 0
-0.06 0 0
-0.04 0 0
-0.02 0 0
1.02 0 0
1.04 0 0
1.06 0 0
1.08 0 0
1.1 0 0
1.12 0 0
1.14 0 0
1.16 0 0
1.18 0 0
1.2 0 0
1.22 0 0
1.24 0 0
1.26 0 0
1.28 0 0
1.3 0 0
1.32 0 0
1.34 0 0
1.36 0 0
1.38 0 0
1.4 0 0
1.42 0 0
1.44 0 0
1.46 0 0
1.48 0 0
1.5 0 0
1.52 0 0
1.54 0 0
1.56 0 0
1.58 0 0
1.6 0 0
1.62 0 0
1.64 0 0
1.66 0 0
1.68 0 0
1.7 0 0
1.72 0 0
1.74 0 0
1.76 0 0
1.78 0 0
1.8 0 0
1.82 0 0
1.84 0 0
1.86 0 0
1.88 0 0
1.9 0 0
1.92 0 0
1.94 0 0
1.96 0 0
1.98 0 0
2 0.0199133 0
2 0.0414128 0
2 0.0646247 0
2 0.0896856 0
2 0.116743 0
2 0.145955 0
2 0.177494 0
2 0.211545 0
2 0.248309 0
2 0.288001 0
2 0.330854 0
2 0.377121 0
2 0.427073 0
2 0.481004 0
2 0.539231 0
2 0.602096 0
2 0.669968 0
2 0.743247 0
2 0.822362 0
2 0.907779 0
1.9 1 0
1.8 1 0
1.7 1 0
1.6 1 0
1.5 1 0
1.4 1 0
1.3 1 0
1.2 1 0
1.1 1 0
1 1 0
0.9 1 0
0.8 1 0
0.7 1 0
0.6 1 0
0.5 1 0
0.4 1 0
0.3 1 0
0.2 1 0
0.1 1 0
3.69793e-12 1 0
-0.1 1 0
-0.2 1 0
-0.3 1 0
-0.4 1 0
-0.5 1 0
-0.6 1 0
-0.7 1 0
-0.8 1 0
-0.9 1 0
-1 0.907779 0
-1 0.822362 0
-1 0.743247 0
-1 0.669968 0
-1 0.602096 0
-1 0.539231 0
-1 0.481004 0
-1 0.427073 0
-1 0.377121 0
-1 0.330854 0
-1 0.288001 0
-1 0.248309 0
-1 0.211545 0
-1 0.177494 0
-1 0.145955 0
-1 0.116743 0
-1 0.0896856 0
-1 0.0646247 0
-1 0.0414128 0
-1 0.0199133 0
0.0182781 0.00745351 0
0.0366672 0.0146286 0
0.0551632 0.0215237 0
0.0737617 0.0281372 0
0.0924585 0.0344675 0
0.111249 0.0405131 0
0.13013 0.0462728 0
0.149095 0.0517451 0
0.168142 0.0569289 0
0.187265 0.0618228 0
0.20646 0.0664258 0
0.225723 0.0707368 0
0.245049 0.0747549 0
0.264434 0.078479 0
0.283873 0.0819084 0
0.303362 0.0850422 0
0.322896 0.0878798 0
0.342472 0.0904204 0
0.362083 0.0926635 0
0.381726 0.0946086 0
0.401397 0.0962552 0
0.42109 0.0976029 0
0.440802 0.0986514 0
0.460527 0.0994006 0
0.480261 0.0998501 0
0.5 0.1 0
0.519739 0.0998501 0
0.539473 0.0994006 0
0.559198 0.0986514 0
0.57891 0.0976029 0
0.598603 0.0962552 0
0.618274 0.0946086 0
0.637917 0.0926635 0
0.657528 0.0904204 0
0.677104 0.0878798 0
0.696638 0.0850422 0
0.716127 0.0819084 0
0.735566 0.078479 0
0.754951 0.0747549 0
0.774277 0.0707368 0
0.79354 0.0664258 0
0.812735 0.0618228 0
0.831858 0.0569289 0
0.850905 0.0517451 0
0.86987 0.0462728 0
0.888751 0.0405131 0
0.907542 0.0344675 0
0.926238 0.0281372 0
0.944837 0.0215237 0
0.963333 0.0146286 0
0.981722 0.00745351 0
-1 0.907779 0.1
-1 0.822362 0.1
-1 0.743247 0.1
-1 0.669968 0.1
-1 0.602096 0.1
-1 0.539231 0.1
-1 0.481004 0.1
-1 0.427073 0.1
-1 0.377121 0.1
-1 0.330854 0.1
-1 0.288001 0.1
-1 0.248309 0.1
-1 0.211545 0.1
-1 0.177494 0.1
-1 0.145955 0.1
-1 0.116743 0.1
-1 0.0896856 0.1
-1 0.0646247 0.1
-1 0.0414128 0.1
-1 0.0199133 0.1
-0.98 0 0.1
-0.96 0 0.1
-0.94 0 0.1
-0.92 0 0.1
-0.9 0 0.1
-0.88 0 0.1
-0.86 0 0.1
-0.84 0 0.1
-0.82 0 0.1
-0.8 0 0.1
-0.78 0 0.1
-0.76 0 0.1
-0.74 0 0.1
-0.72 0 0.1
-0.7 0 0.1
-0.68 0 0.1
-0.66 0 0.1
-0.64 0 0.1
-0.62 0 0.1
-0.6 0 0.1
-0.58 0 0.1
-0.56 0 0.1
-0.54 0 0.1
-0.52 0 0.1
-0.5 0 0.1
-0.48 0 0.1
-0.46 0 0.1
-0.44 0 0.1
-0.42 0 0.1
-0.4 0 0.1
-0.38 0 0.1
-0.36 0 0.1
-0.34 0 0.1
-0.32 0 0.1
-0.3 0 0.1
-0.28 0 0.1
-0.26 0 0.1
-0.24 0 0.1
-0.22 0 0.1
-0.2 0 0.1
-0.18 0 0.1
-0.16 0 0.1
-0.14 0 0.1
-0.12 0 0.1
-0.1 0 0.1
-0.08 0 0.1
-0.06 0 0.1
-0.04 0 0.1
-0.02 0 0.1
0.0182781 0.00745351 0.1
0.0366672 0.0146286 0.1
0.0551632 0.0215237 0.1
0.0737617 0.0281372 0.1
0.0924585 0.0344675 0.1
0.111249 0.0405131 0.1
0.13013 0.0462728 0.1
0.149095 0.0517451 0.1
0.168142 0.0569289 0.1
0.187265 0.0618228 0.1
0.20646 0.0664258 0.1
0.225723 0.0707368 0.1
0.245049 0.0747549 0.1
0.264434 0.078479 0.1
0.283873 0.0819084 0.1
0.303362 0.0850422 0.1
0.322896 0.0878798 0.1
0.342472 0.0904204 0.1
0.362083 0.0926635 0.1
0.381726 0.0946086 0.1
0.401397 0.0962552 0.1
0.42109 0.0976029 0.1
0.440802 0.0986514 0.1
0.460527 0.0994006 0.1
0.480261 0.0998501 0.1
0.5 0.1 0.1
0.519739 0.0998501 0.1
0.539473 0.0994006 0.1
0.559198 0.0986514 0.1
0.57891 0.0976029 0.1
0.598603 0.0962552 0.1
0.618274 0.0946086 0.1
0.637917 0.0926635 0.1
0.657528 0.0904204 0.1
0.677104 0.0878798 0.1
0.696638 0.0850422 0.1
0.716127 0.0819084 0.1
0.735566 0.078479 0.1
0.754951 0.0747549 0.1
0.774277 0.0707368 0.1
0.79354 0.0664258 0.1
0.812735 0.0618228 0.1
0.831858 0.0569289 0.1
0.850905 0.0517451 0.1
0.86987 0.0462728 0.1
0.888751 0.0405131 0.1
0.907542 0.0344675 0.1
0.926238 0.0281372 0.1
0.944837 0.0215237 0.1
0.963333 0.0146286 0.1
0.981722 0.00745351 0.1
1.02 0 0.1
1.04 0 0.1
1.06 0 0.1
1.08 0 0.1
1.1 0 0.1
1.12 0 0.1
1.14 0 0.1
1.16 0 0.1
1.18 0 0.1
1.2 0 0.1
1.22 0 0.1
1.24 0 0.1
1.26 0 0.1
1.28 0 0.1
1.3 0 0.1
1.32 0 0.1
1.34 0 0.1
1.36 0 0.1
1.38 0 0.1
1.4 0 0.1
1.42 0 0.1
1.44 0 0.1
1.46 0 0.1
1.48 0 0.1
1.5 0 0.1
1.52 0 0.1
1.54 0 0.1
1.56 0 0.1
1.58 0 0.1
1.6 0 0.1
1.62 0 0.1
1.64 0 0.1
1.66 0 0.1
1.68 0 0.1
1.7 0 0.1
1.72 0 0.1
1.74 0 0.1
1.76 0 0.1
1.78 0 0.1
1.8 0 0.1
1.82 0 0.1
1.84 0 0.1
1.86 0 0.1
1.88 0 0.1
1.9 0 0.1
1.92 0 0.1
1.94 0 0.1
1.96 0 0.1
1.98 0 0.1
2 0.0199133 0.1
2 0.0414128 0.1
2 0.0646247 0.1
2 0.0896856 0.1
2 0.116743 0.1
2 0.145955 0.1
2 0.177494 0.1
2 0.211545 0.1
2 0.248309 0.1
2 0.288001 0.1
2 0.330854 0.1
2 0.377121 0.1
2 0.427073 0.1
2 0.481004 0.1
2 0.539231 0.1
2 0.602096 0.1
2 0.669968 0.1
2 0.743247 0.1
2 0.822362 0.1
2 0.907779 0.1
1.9 1 0.1
1.8 1 0.1
1.7 1 0.1
1.6 1 0.1
1.5 1 0.1
1.4 1 0.1
1.3 1 0.1
1.2 1 0.1
1.1 1 0.1
1 1 0.1
0.9 1 0.1
0.8 1 0.1
0.7 1 0.1
0.6 1 0.1
0.5 1 0.1
0.4 1 0.1
0.3 1 0.1
0.2 1 0.1
0.1 1 0.1
3.69793e-12 1 0.1
-0.1 1 0.1
-0.2 1 0.1
-0.3 1 0.1
-0.4 1 0.1
-0.5 1 0.1
-0.6 1 0.1
-0.7 1 0.1
-0.8 1 0.1
-0.9 1 0.1
1.08758 0.0158154 0
-0.0898513 0.0203294 0
0.0966181 0.0537636 0
0.90205 0.0548881 0
1.21055 0.0202058 0
-0.209811 0.0159577 0
1.3305 0.0176902 0
-0.33 0.0173205 0
1.45324 0.0148141 0
-0.448654 0.0159854 0
1.56842 0.0191785 0
-0.569936 0.0166364 0
0.193292 0.0805369 0
0.805051 0.0813623 0
0.709096 0.100353 0
0.288591 0.0996656 0
0.390184 0.111848 0
0.61033 0.111742 0
0.488809 0.116278 0
1.67175 0.0169692 0
-0.67 0.0169809 0
-0.955017 0.454039 0
1.95131 0.44569 0
1.74981 0.0168753 0
-0.75 0.0173205 0
-0.968032 0.266538 0
1.96871 0.266267 0
0.978232 0.0305687 0
0.0208675 0.026451 0
-0.150454 0.91842 0
1.13854 0.907437 0
1.45012 0.904365 0
-0.445923 0.908903 0
-0.853423 0.0157019 0
1.84881 0.016319 0
0.853689 0.915652 0
0.153944 0.912184 0
0.545151 0.914125 0
0.549913 0.115152 0
1.51 0.0173205 0
-0.506989 0.01651 0
1.27 0.0173205 0
1.14976 0.0173333 0
-0.268171 0.0206442 0
-0.150501 0.0153244 0
-0.391384 0.0153993 0
1.38886 0.0171544 0
-0.973694 0.161724 0
1.97441 0.162392 0
-0.945221 0.633523 0
1.94544 0.63312 0
1.91008 0.0186068 0
-0.91 0.0169616 0
-0.030664 0.0194327 0
1.03074 0.0165456 0
-0.966065 0.353575 0
1.96128 0.359765 0
1.93879 0.781254 0
-0.937057 0.781882 0
-0.980746 0.080709 0
1.9772 0.0760699 0
0.058735 0.0409372 0
0.355202 0.913001 0
0.86356 0.0661005 0
0.134223 0.0651111 0
0.941972 0.0397386 0
-0.653034 0.915003 0
1.65328 0.904589 0
0.770126 0.0881325 0
0.232946 0.0902008 0
0.330582 0.105648 0
0.670612 0.108365 0
0.428707 0.116145 0
1.80993 0.016629 0
-0.810168 0.0172178 0
-0.71 0.0173205 0
1.63047 0.0175504 0
1.70842 0.0169661 0
-0.628824 0.0181787 0
-0.949815 0.0133898 0
1.95 0.0173205 0
1.85542 0.907891 0
-0.85 0.913397 0
1.9833 0.0307692 0
-0.983315 0.0309709 0
-0.750025 0.916468 0
-0.701107 0.836904 0
-0.607741 0.836428 0
-0.656448 0.759827 0
-0.572936 0.758144 0
-0.61411 0.691195 0
-0.539534 0.689068 0
-0.578542 0.626111 0
-0.507461 0.624216 0
-0.544001 0.566638 0
-0.477696 0.564279 0
-0.511582 0.51001 0
-0.451689 0.507147 0
-0.481834 0.457732 0
-0.426137 0.454624 0
-0.453236 0.407539 0
-0.398845 0.406233 0
-0.507958 0.409496 0
-0.368427 0.460177 0
-0.344602 0.405209 0
-0.315696 0.447824 0
-0.294128 0.402169 0
-0.262844 0.444518 0
-0.241968 0.388746 0
-0.209878 0.439557 0
-0.185184 0.391135 0
-0.156687 0.437338 0
-0.133719 0.390776 0
-0.104405 0.434306 0
-0.0818745 0.388334 0
-0.0528785 0.431165 0
-0.0305984 0.385639 0
-0.00180552 0.427863 0
0.0194564 0.382608 0
0.0485809 0.42449 0
0.0701962 0.37973 0
0.0985483 0.421145 0
0.119893 0.377339 0
0.147837 0.417911 0
0.172552 0.36751 0
0.197018 0.412597 0
0.221203 0.37141 0
0.24512 0.409646 0
-0.48178 0.364657 0
-0.531053 0.364782 0
-0.0599102 0.344151 0
-0.324909 0.359566 0
0.266181 0.368462 0
0.292132 0.407649 0
0.311992 0.365779 0
0.338918 0.404821 0
0.357567 0.355909 0
0.384723 0.40053 0
0.404675 0.359681 0
0.430617 0.398558 0
0.450457 0.35827 0
0.474237 0.395182 0
0.496746 0.34898 0
0.520548 0.397931 0
0.542071 0.353121 0
0.566011 0.389914 0
0.585061 0.350856 0
0.609352 0.38696 0
0.629069 0.348168 0
0.655979 0.391217 0
0.67472 0.346182 0
0.699346 0.381414 0
0.719333 0.341965 0
0.743718 0.377547 0
0.764028 0.339036 0
0.788201 0.373582 0
0.807659 0.336101 0
0.832821 0.372249 0
0.852309 0.334017 0
0.877785 0.370339 0
0.897875 0.331141 0
0.922904 0.366281 0
0.943173 0.327335 0
0.968282 0.363358 0
0.989029 0.324222 0
1.01391 0.361511 0
1.03465 0.321428 0
1.05949 0.358447 0
1.08389 0.312052 0
1.10575 0.355104 0
1.12889 0.31562 0
1.15067 0.353235 0
1.17157 0.312819 0
1.19626 0.349369 0
1.21618 0.309863 0
1.2416 0.346914 0
1.26131 0.30715 0
1.28691 0.344312 0
1.30571 0.303752 0
1.33144 0.341222 0
1.35018 0.300911 0
1.3758 0.338308 0
1.39501 0.298931 0
1.42015 0.335235 0
1.43904 0.296349 0
1.46355 0.330194 0
1.48256 0.293347 0
1.50685 0.326967 0
1.52589 0.29055 0
1.54996 0.325305 0
1.56909 0.287929 0
[...]
CELL_DATA 3694
SCALARS rho float
LOOKUP_TABLE default
0.734823
0.670052
0.803689
0.8126
0.826209
0.804958
0.791434
0.799644
0.809608
0.80254
0.816926
0.816919
0.840175
0.789156
0.800463
0.749872
0.803173
0.802787
0.759632
0.849763
0.816901
0.822682
0.696251
0.803268
0.692821
0.839065
0.71983
0.805925
0.836696
0.798282
0.798479
0.718376
0.803344
0.824365
0.802588
0.797012
0.836927
0.822479
0.824489
0.778079
0.804507
0.817162
0.834023
0.824935
0.804976
0.812487
0.800467
0.664639
0.678769
0.71987
0.801938
0.802869
0.846525
0.801912
0.627855
0.837827
0.802404
0.81868
0.832492
0.753694
0.796088
0.81467
0.841807
0.799257
0.842325
0.830522
0.80728
0.81314
0.736479
0.858059
0.803086
0.807444
0.822706
0.803136
0.824114
0.802843
0.814025
0.799341
0.813513
0.802629
0.712909
0.818038
0.802171
0.776678
0.809468
0.799294
0.818024
0.714018
0.736165
0.824784
0.798841
0.80222
0.820144
0.815108
0.674366
0.806366
0.722657
0.817414
0.811935
0.839661
0.814235
0.761979
0.718832
0.80941
0.808907
0.814665
0.817392
0.806865
0.715185
0.813969
0.799102
0.721592
0.721086
0.823193
0.867681
0.80204
0.799399
0.811737
0.803071
0.801942
0.765543
0.822308
0.819361
0.769485
0.704703
0.758125
0.817058
0.776508
0.843301
0.699605
0.767018
0.800209
0.807781
0.777322
0.800578
0.795271
0.80531
0.802279
0.797655
0.814166
0.813393
0.709752
0.816582
0.813226
0.757251
0.66697
0.676559
0.797785
0.815645
0.812951
0.743794
0.802589
0.554054
0.778233
0.684407
0.7629
0.713122
0.783393
0.605698
0.792874
0.837359
0.644067
0.781828
0.73667
0.843857
0.552282
0.817052
0.800089
0.802538
0.67278
0.80147
0.661922
0.857582
0.534842
0.799732
0.63223
0.872281
0.833034
0.820335
0.745033
0.813739
0.721919
0.826627
0.737312
0.647846
0.803031
0.674646
0.823086
0.801568
0.850724
0.79161
0.704672
0.814386
0.798054
0.741589
0.852661
0.811245
0.84861
0.736196
0.742346
0.770672
0.793496
0.83143
0.834088
0.816733
0.813771
0.668431
0.804475
0.726311
0.803121
0.707845
0.797086
0.795496
0.801362
0.825418
0.763192
0.830132
0.749129
0.825359
0.819566
0.815599
0.852913
0.829291
0.702398
0.826775
0.687974
0.787593
0.8097
0.850891
0.829911
0.807951
0.794247
0.744764
0.817288
0.83645
0.817102
0.714446
0.799489
0.694378
0.791924
0.795352
0.809689
0.636806
0.807399
0.757277
0.797713
0.803047
0.758831
0.814825
0.865592
0.78408
0.692523
0.804285
0.801328
0.646463
0.791982
0.777653
0.802285
0.83876
0.814425
0.607452
0.814846
0.80999
0.796554
0.815121
0.802553
0.81523
0.814281
0.835469
0.755833
0.801732
0.834603
0.81017
0.803087
0.795957
0.814591
0.728301
0.586804
0.816549
0.829479
0.820133
0.804132
0.680534
0.815118
0.814848
0.816518
0.712583
0.79698
0.814694
0.538563
0.802751
0.86898
0.677609
0.755859
0.838455
0.826764
0.814433
0.707572
0.809285
0.814689
0.803685
0.801509
0.811995
0.836446
0.817056
0.766949
0.806891
0.802985
0.645889
0.820732
0.827612
0.670982
0.790731
0.818575
0.820741
0.678409
0.68487
0.821153
0.82383
0.80941
0.733516
0.706414
0.713142
0.732062
0.820039
0.776332
0.804032
0.731893
0.742032
0.822254
0.809931
0.818886
0.769572
0.814824
0.813497
0.817059
0.815682
0.802676
0.807403
0.803602
0.69238
0.802646
0.812633
0.694056
0.806881
0.804981
0.81916
0.785625
0.805803
0.791668
0.814577
0.820722
0.819911
0.797932
0.680504
0.710159
0.799286
0.81075
0.621853
0.803756
0.807213
0.817108
0.742803
0.804143
0.816093
0.81126
0.817537
0.80491
0.79717
0.764066
0.80404
0.843332
0.819806
0.707233
0.803489
0.701704
0.704846
0.802938
0.614197
0.770352
0.784616
0.807928
0.8131
0.825058
0.816848
0.812458
0.819921
0.828026
0.802772
0.764215
0.809634
0.658417
0.81898
0.756892
0.727291
0.686807
0.813637
0.853852
0.819007
0.808506
0.821982
0.815007
0.786702
0.757923
0.809317
0.692838
0.791051
0.843384
0.826477
0.800705
0.86389
0.81325
0.816278
0.817276
0.830918
0.628969
0.798424
0.730773
0.797704
0.735051
0.8188
0.80854
0.787028
0.685095
0.81448
0.829885
0.811594
0.802824
0.803679
0.824131
0.803735
0.710346
0.790192
0.803058
0.814434
0.813726
0.812347
0.871518
0.827585
0.809254
0.831894
0.681743
0.823177
0.837429
0.815936
0.627255
0.814983
0.809045
0.845324
0.821122
0.802875
0.591855
0.809961
0.695471
0.805989
0.802843
0.811984
0.81323
0.825086
0.804955
0.811085
0.81577
0.723683
0.862799
0.801849
0.850024
0.816149
0.573554
0.803787
0.796564
0.811321
0.817401
0.648102
0.802771
0.809511
0.81286
0.806991
0.793751
0.815319
0.817058
0.795923
0.803663
0.82121
0.836749
0.729838
0.806158
0.809448
0.812862
0.682118
0.805093
0.815778
0.799074
0.803954
0.520985
0.832736
0.76336
0.814345
0.817481
0.830678
0.8461
0.815878
0.811326
0.715529
0.798745
0.852257
0.808205
0.709704
0.800037
0.802572
0.872108
0.845136
0.818817
0.801954
0.80955
0.755232
0.815135
0.813717
0.584435
0.802535
0.729109
0.750069
0.802976
0.811113
0.780879
0.821189
0.814973
0.837911
0.815735
0.800377
0.808723
0.738618
0.736566
0.804057
0.807831
0.82089
0.802089
0.751638
0.688377
0.813262
0.815047
0.813885
0.594232
0.813377
0.816491
0.824512
0.802946
0.808473
0.819438
0.811727
0.839274
0.802937
0.812551
0.823527
0.815318
0.817591
0.821345
0.688426
0.78406
0.794649
0.803049
0.847472
0.802021
0.802541
0.634863
0.810683
0.813281
0.810627
0.818814
0.805671
0.812829
0.726834
0.84347
0.707613
0.800265
0.817089
0.807126
0.652052
0.683479
0.815181
0.805569
0.804123
0.785199
0.801487
0.829082
0.813282
0.804883
0.802039
0.812047
0.619321
0.812118
0.802925
0.697981
0.815322
0.617012
0.783759
0.815268
0.837662
0.805697
0.812221
0.792229
0.795347
0.803924
0.801391
0.811757
0.810993
0.808754
0.8032
0.75724
0.804007
0.812255
0.811707
0.816038
0.811263
0.815668
0.814635
0.834131
0.737848
0.806552
0.815395
0.802322
0.541919
0.68179
0.811064
0.812989
0.81494
0.780253
0.808143
0.812594
0.803071
0.799836
0.802636
0.81976
0.820589
0.814715
0.784633
0.807948
0.805452
0.544668
0.773716
0.757106
0.806328
0.735374
0.675295
0.797472
0.767382
0.827549
0.814634
0.814414
0.808271
0.539677
0.815414
0.582977
0.695423
0.824474
0.869633
0.741147
0.816348
0.852759
0.694616
0.815145
0.80892
0.81478
0.807245
0.65587
0.854442
0.737309
0.729649
0.803244
0.804514
0.799438
0.833329
0.814911
0.690685
0.815324
0.80023
0.691118
0.839376
0.798022
0.621649
0.772694
0.815436
0.807684
0.814548
0.78435
0.724711
0.769858
0.836919
0.688291
0.815698
0.817127
0.82675
0.765074
0.821864
0.691211
0.80451
0.660238
0.700417
0.800322
0.822586
0.788268
0.814285
0.815127
0.814943
0.813698
0.576661
0.80252
0.814679
0.743109
0.809988
0.815166
0.811542
0.71553
0.692863
0.741072
0.619849
0.807191
0.68123
0.815389
0.801855
0.814724
0.836901
0.686946
0.804315
0.819603
0.832338
0.737497
0.781603
0.764726
0.772865
0.812133
0.563557
0.671993
0.81503
0.805258
0.812111
0.804494
0.712464
0.78011
0.724071
0.760547
0.799524
0.831765
0.812147
0.690966
0.823207
0.817679
0.810693
0.685225
0.693347
0.681179
0.872054
0.815635
0.81641
0.608529
0.711097
0.640948
0.803358
0.800305
0.671439
0.811854
0.824342
0.748836
0.79938
0.729409
0.8139
0.692141
0.814456
0.810414
0.801309
0.80307
0.825418
0.744049
0.815492
0.814695
0.780217
0.552068
0.81616
0.810706
0.757641
0.813582
0.747475
0.802837
0.826287
0.657756
0.817924
0.802689
0.809922
0.582871
0.627944
0.734967
0.806313
0.811869
0.810598
0.820874
0.814635
0.815734
0.704162
0.801895
0.812931
0.826075
0.703207
0.72583
0.812001
0.811702
0.695903
0.814277
0.774271
0.702267
0.811824
0.695655
0.80406
0.662087
0.802869
0.730229
0.666404
0.810953
0.78607
0.743953
0.630743
0.839987
0.821013
0.814704
0.770179
0.813906
0.80004
0.785954
0.799853
0.801639
0.814953
0.731347
0.809639
0.79997
0.818569
0.597872
0.801309
0.812725
0.813687
0.811378
0.811939
0.745961
0.802839
0.763936
0.750477
0.818412
0.646005
0.81835
0.817471
0.80307
0.815379
0.816609
0.72016
0.768443
0.821926
0.785174
0.803697
0.815814
0.875013
0.817821
0.798114
0.81659
0.815066
0.793902
0.81828
0.816708
0.773085
0.697622
0.841085
0.796954
0.803161
0.822517
0.780974
0.817639
0.824739
0.818455
0.816664
0.870464
0.80309
0.804822
0.818056
0.803085
0.815179
0.80689
0.735422
0.815104
0.819513
0.753842
0.707924
0.814989
0.843135
0.822275
0.652377
0.821574
0.773527
0.808124
0.801867
0.729434
0.803112
0.79861
0.815412
0.816713
0.692978
0.704171
0.802164
0.787511
0.801513
0.824715
0.72214
0.814692
0.802377
0.800103
0.823281
0.815167
0.712568
0.815426
0.76296
0.802401
0.832525
0.803321
0.773186
0.797851
0.794595
0.814816
0.580998
0.814647
0.695327
0.677255
0.803426
0.819339
0.814702
0.802523
0.814842
0.808278
0.723752
0.787564
0.857046
0.803011
0.833398
0.807361
0.541647
0.762195
0.779645
0.647093
0.737379
0.577862
0.819993
0.812977
0.813796
0.802408
0.766686
0.684345
0.764199
0.752183
0.78194
0.814617
0.84483
0.819177
0.805768
0.819229
0.823618
0.802603
0.80748
0.704332
0.803099
0.756095
0.80861
0.797764
0.751343
0.8222
0.788335
0.803505
0.789616
0.840799
0.727602
0.800839
0.799372
0.804834
0.617022
0.815208
0.815086
0.821649
0.630499
0.814965
0.81497
0.798452
0.803803
0.793137
0.775068
0.80613
0.794426
0.815704
0.753116
0.80364
0.875225
0.762486
0.74767
0.806828
0.783917
0.842468
0.799736
0.779353
0.81525
0.798132
0.792459
0.807996
0.825383
0.835581
0.79967
0.573111
0.820235
0.828077
0.772013
0.830579
0.838087
0.822671
0.826098
0.807205
0.832775
0.82665
0.783653
0.808832
0.811109
0.806134
0.822497
0.803334
0.827269
0.792836
0.803057
0.805664
0.726208
0.807024
0.560333
0.81773
0.825118
0.828434
0.805646
0.817987
0.823702
0.819301
0.820591
0.838641
0.832938
0.787708
0.80029
0.821488
0.815124
0.816702
0.800151
0.806311
0.865478
0.819811
0.847239
0.814834
0.800557
0.824509
0.799666
0.833343
0.813187
0.815117
0.805207
0.725744
0.802849
0.804451
0.814776
0.803265
0.801911
0.821977
0.804487
0.804103
0.777783
0.819618
0.716983
0.813978
0.780059
0.758602
0.803494
0.813169
0.818878
0.714615
0.819086
0.815088
0.826444
0.816837
0.789519
0.816018
0.847194
0.832929
0.814731
0.811608
0.801498
0.743357
0.67678
0.81478
0.820431
0.770612
0.814129
0.807646
0.811523
0.805304
0.798377
0.775998
0.80234
0.799936
0.841304
0.81713
0.811261
0.806171
0.602508
0.730563
0.802079
0.783127
0.803978
0.815431
0.805791
0.81579
0.779645
0.814851
0.804671
0.810404
0.803598
0.817586
0.803141
0.815573
0.810611
0.815563
0.812552
0.716781
0.814209
0.815383
0.596286
0.814613
0.796638
0.802661
0.858659
0.818085
0.810419
0.872407
0.815003
0.815085
0.81656
0.818571
0.814999
0.764023
0.83019
0.801183
0.803059
0.814277
0.814951
0.816439
0.814805
0.813158
0.822686
0.803854
0.812232
0.808918
0.81499
0.819838
0.814824
0.811507
0.819008
0.808792
0.696286
0.658629
0.802516
0.808387
0.803219
0.811006
0.818108
0.816839
0.802781
0.803651
0.80042
0.800691
0.816621
0.844235
0.81827
0.811318
0.818215
0.81789
0.845888
0.817203
0.820894
0.785461
0.815528
0.806659
0.801074
0.791862
0.81051
0.818225
0.814655
0.814868
0.835875
0.805848
0.812371
0.816338
0.821384
0.803386
0.803071
0.80538
0.810589
0.81477
0.801429
0.802788
0.816611
0.822356
0.800645
0.595642
0.804126
0.796661
0.817051
0.798475
0.80264
0.747949
0.840655
0.802608
0.799589
0.834596
0.829511
0.81007
0.825974
0.800309
0.817566
0.817157
0.818418
0.803478
0.818
0.727461
0.822047
0.811373
0.79993
0.812875
0.820244
0.798975
0.803856
0.782074
0.815002
0.815052
0.81516
0.818208
0.806276
0.816757
0.815452
0.825799
0.821835
0.837472
0.805767
0.694748
0.817642
0.840453
0.819477
0.804438
0.799883
0.803186
0.815965
0.81395
0.815658
0.743498
0.737595
0.800567
0.802824
0.815331
0.81626
0.798442
0.652027
0.707868
0.80787
0.768902
0.8155
0.702617
0.802978
0.727678
0.803127
0.819769
0.803062
0.816989
0.812433
0.798431
0.808413
0.793194
0.829711
0.815191
0.801025
0.803334
0.815528
0.821366
0.748968
0.822413
0.803588
0.783023
0.815064
0.803687
0.810277
0.814232
0.814643
0.835098
0.792438
0.798797
0.814941
0.758614
0.806429
0.814371
0.800856
0.815599
0.841077
0.802079
0.843056
0.808429
0.790102
0.811443
0.802558
0.85182
0.788278
0.803064
0.81564
0.831372
0.808207
0.813319
0.815338
0.802696
0.802593
0.825791
0.782409
0.813877
0.814923
0.642948
0.815127
0.71219
0.817452
0.838043
0.824204
0.803796
0.814132
0.814778
0.725225
0.814319
0.800602
0.80143
0.800672
0.815349
0.863729
0.801062
0.800785
0.785184
0.84044
0.827809
0.819246
0.812842
0.746379
0.803184
0.803274
0.730322
0.799194
0.713883
0.810067
0.800819
0.675778
0.880184
0.701926
0.771985
0.801044
0.742839
0.808198
0.798706
0.802969
0.659692
0.796581
0.783886
0.798753
0.728146
0.818334
0.822119
0.884516
0.809276
0.83109
0.644427
0.799727
0.786568
0.743877
0.750892
0.768608
0.70532
0.802991
0.79908
0.803066
0.763307
0.626398
0.811247
0.612053
0.820789
0.822569
0.811322
0.736396
0.81176
0.795075
0.818755
0.782525
0.806803
0.796976
0.809574
0.716203
0.801293
0.721903
0.801139
0.798547
0.685266
0.803447
0.814676
0.814739
0.803005
0.760849
0.814507
0.732085
0.690186
0.802173
0.814736
0.874355
0.814635
0.814015
0.880532
0.865363
0.830679
0.7178
0.801819
0.811715
0.821096
0.797653
0.680275
0.722231
0.675257
0.802287
0.704481
0.768147
0.799193
0.615488
0.688918
0.835898
0.773243
0.744945
0.830204
0.75883
0.769057
0.63165
0.730966
0.784787
0.819343
0.869436
0.837598
0.815078
0.794295
0.799458
0.715361
0.814931
0.693548
0.796867
0.814715
0.783343
0.76219
0.801349
0.782479
0.802082
0.800558
0.811249
0.81091
0.867058
0.569448
0.537775
0.802258
0.806668
0.697786
0.809784
0.802692
0.837319
0.803373
0.802272
0.566533
0.554358
0.808241
0.81191
0.814844
0.725914
0.803073
0.81018
0.683943
0.810929
0.802596
0.81335
0.803104
0.800246
0.802144
0.813797
0.802861
0.816854
0.80312
0.861971
0.814155
0.80241
0.721082
0.669534
0.814881
0.584626
0.812371
0.809844
0.835656
0.813397
0.802933
0.810566
0.812844
0.812621
0.814468
0.801492
0.853754
0.85634
0.802109
0.654671
0.80805
0.822237
0.799304
0.803082
0.819635
0.733581
0.803178
0.824917
0.820977
0.81519
0.814718
0.76635
0.745326
0.800616
0.833754
0.80265
0.813933
0.804315
0.803518
0.804851
0.813475
0.808666
0.798516
0.806721
0.805844
0.824391
0.806532
0.80613
0.817066
0.806677
0.803312
0.812571
0.802884
0.802749
0.80566
0.807652
0.81271
0.773374
0.805186
0.802616
0.81463
0.79954
0.803628
0.806708
0.831562
0.804892
0.649395
0.800637
0.814887
0.804524
0.8146
0.762758
0.814655
0.750313
0.803553
0.802092
0.803932
0.818751
0.850866
0.804233
0.803192
0.746862
0.829282
0.814619
0.819959
0.824771
0.814359
0.736207
0.81762
0.721613
0.800927
0.827256
0.802283
0.69925
0.825483
0.814346
0.815829
0.823732
0.815037
0.77308
0.816649
0.647719
0.709919
0.814714
0.822206
0.675013
0.818825
0.658237
0.821007
0.806617
0.816142
0.803105
0.805404
0.814481
0.831456
0.824952
0.67102
0.812699
0.841813
0.781277
0.846093
0.80015
0.705265
0.838267
0.819052
0.835289
0.68755
0.682667
0.832601
0.656348
0.830298
0.81473
0.828259
0.806156
0.826534
0.787525
0.825024
0.823626
0.707042
0.865541
0.822426
0.821412
0.823467
0.758942
0.802741
0.523038
0.802849
0.820529
0.81319
0.804616
0.825581
0.814668
0.797841
0.819753
0.802911
0.679423
0.792263
0.834034
0.814057
0.715435
0.798975
0.821422
0.575246
0.814415
0.815245
0.802509
0.809787
0.725781
0.8176
0.802952
0.803386
0.795836
0.793698
0.797789
0.794572
0.803227
0.812067
0.819185
0.813762
0.571985
0.892943
0.705514
0.797755
0.739291
0.791322
0.814645
0.815359
0.815241
0.603994
0.818678
0.817078
0.803786
0.817672
0.836459
0.839348
0.782743
0.798324
0.799367
0.724774
0.752446
0.814908
0.763784
0.815039
0.818739
0.814475
0.813363
0.801868
0.775088
0.811923
0.815779
0.72818
0.810461
0.815558
0.817793
0.80767
0.809338
0.76447
0.814256
0.80806
0.803092
0.807304
0.616075
0.806367
0.804208
0.80579
0.821024
0.845421
0.804578
0.774017
0.805152
0.771423
0.819976
0.805559
0.812427
0.814654
0.850044
0.80331
0.744208
0.819652
0.814906
0.726877
0.800762
0.815921
0.758312
0.812302
0.56871
0.806442
0.68543
0.801063
0.810905
0.812166
0.816913
0.804091
0.815469
0.817425
0.80091
0.804199
0.844246
0.815837
0.796092
0.815899
0.801816
0.801384
0.800172
0.801132
0.806863
0.814282
0.801494
0.769751
0.818125
0.812721
0.808748
0.814664
0.586198
0.803237
0.813555
0.814956
0.787278
0.748056
0.718819
0.812164
0.814509
0.825685
0.789139
0.602513
0.771333
0.639703
0.816424
0.744987
0.811885
0.830049
0.694683
0.799571
0.833636
0.749221
0.800491
0.803087
0.81524
0.802102
0.698599
0.800593
0.54799
0.80166
0.802356
0.802113
0.570848
0.802852
0.803342
0.803092
0.728316
0.737216
0.803338
0.776242
0.815305
0.721921
0.706447
0.814702
0.801229
0.752384
0.854003
0.813507
0.811945
0.669029
0.802699
0.800461
0.800361
0.802392
0.656265
0.803156
0.814963
0.654041
0.685129
0.805705
0.790243
0.814793
0.822971
0.814687
0.814889
0.816124
0.803563
0.814866
0.814625
0.813194
0.829092
0.802364
0.801711
0.810225
0.726601
0.809456
0.814481
0.862662
0.810759
0.6376
0.774418
0.802103
0.775994
0.816379
0.811505
0.829822
0.813916
0.864464
0.801818
0.814255
0.593234
0.815468
0.833652
0.802846
0.813924
0.624491
0.815076
0.80264
0.816336
0.802151
0.817209
0.815629
0.75453
0.80347
0.80308
0.834913
0.861772
0.819482
0.815763
0.725023
0.741259
0.802436
0.802946
0.811876
0.817757
0.79944
0.802777
0.819198
0.806249
0.807421
0.739282
0.802638
0.817203
0.813643
0.768071
0.760354
0.811438
0.796316
0.856859
0.718489
0.834373
0.810694
0.711517
0.79958
0.814111
0.787351
0.800602
0.799618
0.814716
0.777124
0.774353
0.813049
0.696674
0.798546
0.765316
0.814576
0.816951
0.801905
0.787368
0.738224
0.752072
0.77377
0.814289
0.818644
0.8055
0.658756
0.801909
0.795547
0.777695
0.809627
0.812616
0.799431
0.803039
0.633365
0.803884
0.804508
0.851144
0.803613
0.808931
0.833102
0.805186
0.809822
0.85207
0.612342
0.803944
0.815824
0.805298
0.804911
0.8056
0.80448
0.804578
0.804098
0.805685
0.806209
0.724298
0.805576
0.806895
0.806527
0.814797
0.808024
0.818263
0.803049
0.803425
0.814385
0.814562
0.809722
0.803304
0.816114
0.813019
0.80955
0.815713
0.708041
0.813595
0.831299
0.81459
0.854126
0.749483
0.807798
0.814647
0.800688
0.60194
0.803182
0.772141
0.821612
0.626894
0.815245
0.829304
0.814327
0.811609
0.801997
0.826932
0.818972
0.803491
0.764556
0.816768
0.758339
0.546641
0.81399
0.695069
0.694684
0.820282
0.827418
0.827226
0.816366
0.847376
0.57178
0.876686
0.805129
0.825708
0.82403
0.812665
0.681433
0.814518
0.822482
0.816074
0.800891
0.77356
0.822153
0.565167
0.81287
0.843012
0.803048
0.83944
0.821237
0.803229
0.668806
0.843171
0.820174
0.836241
0.800761
0.813575
0.803004
0.833597
0.802738
0.813497
0.831161
0.829005
0.821912
0.824045
0.830682
0.738836
0.660987
0.563829
0.827151
0.825617
0.767098
0.756234
0.806126
0.82418
0.846706
0.590693
0.82289
0.821792
0.820875
0.819335
0.803828
0.820671
0.657536
0.74395
0.820067
0.797258
0.869939
0.890046
0.776217
0.803689
0.669211
0.835386
0.730125
0.71824
0.819018
0.801532
0.783281
0.660508
0.802092
0.81474
0.788716
0.711334
0.800259
0.81704
0.797864
0.676183
0.823312
0.792674
0.815428
0.833079
0.815037
0.795469
0.815877
0.815635
0.785696
0.803889
0.710324
0.840496
0.792921
0.810841
0.781749
0.804282
0.695831
0.800711
0.813369
0.812004
0.810836
0.809309
0.808217
0.80746
0.805832
0.804719
0.806641
0.724771
0.805271
0.801345
0.795777
0.803211
0.844331
0.71481
0.803132
0.775948
0.883891
0.854232
0.797886
0.723148
0.803193
0.797588
0.718726
0.803222
0.801583
0.733936
0.80355
0.789711
0.797166
0.800974
0.737115
0.779466
0.804252
0.746968
0.764162
0.769168
0.801295
0.81437
0.808484
0.758372
0.751031
0.799415
0.813393
0.803238
0.792752
0.801008
0.928613
0.860449
0.817473
0.814536
0.723477
0.844189
0.747351
0.825917
0.816341
0.898081
0.814707
0.797014
0.58813
0.81474
0.797129
0.814776
0.797549
0.845427
0.520401
0.832643
0.801455
0.805487
0.80476
0.803653
0.855725
0.801173
0.817113
0.701291
0.663344
0.666357
0.814821
0.502343
0.797553
0.721528
0.841673
0.814603
0.557423
0.80188
0.814232
0.813902
0.718737
0.801586
0.524046
0.797053
0.814961
0.797173
0.802627
0.797413
0.815133
0.833777
0.803218
0.798121
0.815531
0.798386
0.815684
0.813859
0.798668
0.815857
0.813452
0.816058
0.798778
0.816284
0.679225
0.798972
0.816536
0.803005
0.799163
0.816791
0.697487
0.814733
0.79811
0.814674
0.798237
0.809758
0.838169
0.861179
0.800842
0.80025
0.817736
0.815224
0.799892
0.799516
0.863401
0.81205
0.817406
0.810211
0.849768
0.828317
0.816378
0.825518
0.846064
0.814671
0.80138
0.81898
0.811456
0.801805
0.814565
0.799876
0.807344