# vtk DataFile Version 1.0
unstructured grid
ascii
DATASET UNSTRUCTURED_GRID
points 3920 float
-1 0 0
-1 1 0
2 0 0
2 1 0
0 0 0
1 0 0
-1 1 0.1
-1 0 0.1
0 0 0.1
1 0 0.1
2 0 0.1
2 1 0.1
-0.98 0 0
-0.96 0 0
-0.94 0 0
-0.92 0 0
-0.9 0 0
-0.88 0 0
-0.86 0 0
-0.84 0 0
-0.82 0 0
-0.8 0 0
-0.78 0 0
-0.76 0 0
-0.74 0 0
-0.72 0 0
-0.7 0 0
-0.68 0 0
-0.66 0 0
-0.64 0 0
-0.62 0 0
-0.6 0 0
-0.58 0 0
-0.56 0 0
-0.54 0 0
-0.52 0 0
-0.5 0 0
-0.48 0 0
-0.46 0 0
-0.44 0 0
-0.42 0 0
-0.4 0 0
-0.38 0 0
-0.36 0 0
-0.34 0 0
-0.32 0 0
-0.3 0 0
-0.28 0 0
-0.26 0 0
-0.24 0 0
-0.22 0 0
-0.2 0 0
-0.18 0 0
-0.16 0 0
-0.14 0 0
-0.12 0 0
-0.1 0 0
-0.08 0 0
-0.06 0 0
-0.04 0 0
-0.02 0 0
1.02 0 0
1.04 0 0
1.06 0 0
1.08 0 0
1.1 0 0
1.12 0 0
1.14 0 0
1.16 0 0
1.18 0 0
1.2 0 0
1.22 0 0
1.24 0 0
1.26 0 0
1.28 0 0
1.3 0 0
1.32 0 0
1.34 0 0
1.36 0 0
1.38 0 0
1.4 0 0
1.42 0 0
1.44 0 0
1.46 0 0
1.48 0 0
1.5 0 0
1.52 0 0
1.54 0 0
1.56 0 0
1.58 0 0
1.6 0 0
1.62 0 0
1.64 0 0
1.66 0 0
1.68 0 0
1.7 0 0
1.72 0 0
1.74 0 0
1.76 0 0
1.78 0 0
1.8 0 0
1.82 0 0
1.84 0 0
1.86 0 0
1.88 0 0
1.9 0 0
1.92 0 0
1.94 0 0
1.96 0 0
1.98 0 0
2 0.0199133 0
2 0.0414128 0
2 0.0646247 0
2 0.0896856 0
2 0.116743 0
2 0.145955 0
2 0.177494 0
2 0.211545 0
2 0.248309 0
2 0.288001 0
2 0.330854 0
2 0.377121 0
2 0.427073 0
2 0.481004 0
2 0.539231 0
2 0.602096 0
2 0.669968 0
2 0.743247 0
2 0.822362 0
2 0.907779 0
1.9 1 0
1.8 1 0
1.7 1 0
1.6 1 0
1.5 1 0
1.4 1 0
1.3 1 0
1.2 1 0
1.1 1 0
1 1 0
0.9 1 0
0.8 1 0
0.7 1 0
0.6 1 0
0.5 1 0
0.4 1 0
0.3 1 0
0.2 1 0
0.1 1 0
3.69793e-12 1 0
-0.1 1 0
-0.2 1 0
-0.3 1 0
-0.4 1 0
-0.5 1 0
-0.6 1 0
-0.7 1 0
-0.8 1 0
-0.9 1 0
-1 0.907779 0
-1 0.822362 0
-1 0.743247 0
-1 0.669968 0
-1 0.602096 0
-1 0.539231 0
-1 0.481004 0
-1 0.427073 0
-1 0.377121 0
-1 0.330854 0
-1 0.288001 0
-1 0.248309 0
-1 0.211545 0
-1 0.177494 0
-1 0.145955 0
-1 0.116743 0
-1 0.0896856 0
-1 0.0646247 0
-1 0.0414128 0
-1 0.0199133 0
0.0182781 0.00745351 0
0.0366672 0.0146286 0
0.0551632 0.0215237 0
0.0737617 0.0281372 0
0.0924585 0.0344675 0
0.111249 0.0405131 0
0.13013 0.0462728 0
0.149095 0.0517451 0
0.168142 0.0569289 0
0.187265 0.0618228 0
0.20646 0.0664258 0
0.225723 0.0707368 0
0.245049 0.0747549 0
0.264434 0.078479 0
0.283873 0.0819084 0
0.303362 0.0850422 0
0.322896 0.0878798 0
0.342472 0.0904204 0
0.362083 0.0926635 0
0.381726 0.0946086 0
0.401397 0.0962552 0
0.42109 0.0976029 0
0.440802 0.0986514 0
0.460527 0.0994006 0
0.480261 0.0998501 0
0.5 0.1 0
0.519739 0.0998501 0
0.539473 0.0994006 0
0.559198 0.0986514 0
0.57891 0.0976029 0
0.598603 0.0962552 0
0.618274 0.0946086 0
0.637917 0.0926635 0
0.657528 0.0904204 0
0.677104 0.0878798 0
0.696638 0.0850422 0
0.716127 0.0819084 0
0.735566 0.078479 0
0.754951 0.0747549 0
0.774277 0.0707368 0
0.79354 0.0664258 0
0.812735 0.0618228 0
0.831858 0.0569289 0
0.850905 0.0517451 0
0.86987 0.0462728 0
0.888751 0.0405131 0
0.907542 0.0344675 0
0.926238 0.0281372 0
0.944837 0.0215237 0
0.963333 0.0146286 0
0.981722 0.00745351 0
-1 0.907779 0.1
-1 0.822362 0.1
-1 0.743247 0.1
-1 0.669968 0.1
-1 0.602096 0.1
-1 0.539231 0.1
-1 0.481004 0.1
-1 0.427073 0.1
-1 0.377121 0.1
-1 0.330854 0.1
-1 0.288001 0.1
-1 0.248309 0.1
-1 0.211545 0.1
-1 0.177494 0.1
-1 0.145955 0.1
-1 0.116743 0.1
-1 0.0896856 0.1
-1 0.0646247 0.1
-1 0.0414128 0.1
-1 0.0199133 0.1
-0.98 0 0.1
-0.96 0 0.1
-0.94 0 0.1
-0.92 0 0.1
-0.9 0 0.1
-0.88 0 0.1
-0.86 0 0.1
-0.84 0 0.1
-0.82 0 0.1
-0.8 0 0.1
-0.78 0 0.1
-0.76 0 0.1
-0.74 0 0.1
-0.72 0 0.1
-0.7 0 0.1
-0.68 0 0.1
-0.66 0 0.1
-0.64 0 0.1
-0.62 0 0.1
-0.6 0 0.1
-0.58 0 0.1
-0.56 0 0.1
-0.54 0 0.1
-0.52 0 0.1
-0.5 0 0.1
-0.48 0 0.1
-0.46 0 0.1
-0.44 0 0.1
-0.42 0 0.1
-0.4 0 0.1
-0.38 0 0.1
-0.36 0 0.1
-0.34 0 0.1
-0.32 0 0.1
-0.3 0 0.1
-0.28 0 0.1
-0.26 0 0.1
-0.24 0 0.1
-0.22 0 0.1
-0.2 0 0.1
-0.18 0 0.1
-0.16 0 0.1
-0.14 0 0.1
-0.12 0 0.1
-0.1 0 0.1
-0.08 0 0.1
-0.06 0 0.1
-0.04 0 0.1
-0.02 0 0.1
0.0182781 0.00745351 0.1
0.0366672 0.0146286 0.1
0.0551632 0.0215237 0.1
0.0737617 0.0281372 0.1
0.0924585 0.0344675 0.1
0.111249 0.0405131 0.1
0.13013 0.0462728 0.1
0.149095 0.0517451 0.1
0.168142 0.0569289 0.1
0.187265 0.0618228 0.1
0.20646 0.0664258 0.1
0.225723 0.0707368 0.1
0.245049 0.0747549 0.1
0.264434 0.078479 0.1
0.283873 0.0819084 0.1
0.303362 0.0850422 0.1
0.322896 0.0878798 0.1
0.342472 0.0904204 0.1
0.362083 0.0926635 0.1
0.381726 0.0946086 0.1
0.401397 0.0962552 0.1
0.42109 0.0976029 0.1
0.440802 0.0986514 0.1
0.460527 0.0994006 0.1
0.480261 0.0998501 0.1
0.5 0.1 0.1
0.519739 0.0998501 0.1
0.539473 0.0994006 0.1
0.559198 0.0986514 0.1
0.57891 0.0976029 0.1
0.598603 0.0962552 0.1
0.618274 0.0946086 0.1
0.637917 0.0926635 0.1
0.657528 0.0904204 0.1
0.677104 0.0878798 0.1
0.696638 0.0850422 0.1
0.716127 0.0819084 0.1
0.735566 0.078479 0.1
0.754951 0.0747549 0.1
0.774277 0.0707368 0.1
0.79354 0.0664258 0.1
0.812735 0.0618228 0.1
0.831858 0.0569289 0.1
0.850905 0.0517451 0.1
0.86987 0.0462728 0.1
0.888751 0.0405131 0.1
0.907542 0.0344675 0.1
0.926238 0.0281372 0.1
0.944837 0.0215237 0.1
0.963333 0.0146286 0.1
0.981722 0.00745351 0.1
1.02 0 0.1
1.04 0 0.1
1.06 0 0.1
1.08 0 0.1
1.1 0 0.1
1.12 0 0.1
1.14 0 0.1
1.16 0 0.1
1.18 0 0.1
1.2 0 0.1
1.22 0 0.1
1.24 0 0.1
1.26 0 0.1
1.28 0 0.1
1.3 0 0.1
1.32 0 0.1
1.34 0 0.1
1.36 0 0.1
1.38 0 0.1
1.4 0 0.1
1.42 0 0.1
1.44 0 0.1
1.46 0 0.1
1.48 0 0.1
1.5 0 0.1
1.52 0 0.1
1.54 0 0.1
1.56 0 0.1
1.58 0 0.1
1.6 0 0.1
1.62 0 0.1
1.64 0 0.1
1.66 0 0.1
1.68 0 0.1
1.7 0 0.1
1.72 0 0.1
1.74 0 0.1
1.76 0 0.1
1.78 0 0.1
1.8 0 0.1
1.82 0 0.1
1.84 0 0.1
1.86 0 0.1
1.88 0 0.1
1.9 0 0.1
1.92 0 0.1
1.94 0 0.1
1.96 0 0.1
1.98 0 0.1
2 0.0199133 0.1
2 0.0414128 0.1
2 0.0646247 0.1
2 0.0896856 0.1
2 0.116743 0.1
2 0.145955 0.1
2 0.177494 0.1
2 0.211545 0.1
2 0.248309 0.1
2 0.288001 0.1
2 0.330854 0.1
2 0.377121 0.1
2 0.427073 0.1
2 0.481004 0.1
2 0.539231 0.1
2 0.602096 0.1
2 0.669968 0.1
2 0.743247 0.1
2 0.822362 0.1
2 0.907779 0.1
1.9 1 0.1
1.8 1 0.1
1.7 1 0.1
1.6 1 0.1
1.5 1 0.1
1.4 1 0.1
1.3 1 0.1
1.2 1 0.1
1.1 1 0.1
1 1 0.1
0.9 1 0.1
0.8 1 0.1
0.7 1 0.1
0.6 1 0.1
0.5 1 0.1
0.4 1 0.1
0.3 1 0.1
0.2 1 0.1
0.1 1 0.1
3.69793e-12 1 0.1
-0.1 1 0.1
-0.2 1 0.1
-0.3 1 0.1
-0.4 1 0.1
-0.5 1 0.1
-0.6 1 0.1
-0.7 1 0.1
-0.8 1 0.1
-0.9 1 0.1
1.08758 0.0158154 0
-0.0898513 0.0203294 0
0.0966181 0.0537636 0
0.90205 0.0548881 0
1.21055 0.0202058 0
-0.209811 0.0159577 0
1.3305 0.0176902 0
-0.33 0.0173205 0
1.45324 0.0148141 0
-0.448654 0.0159854 0
1.56842 0.0191785 0
-0.569936 0.0166364 0
0.193292 0.0805369 0
0.805051 0.0813623 0
0.709096 0.100353 0
0.288591 0.0996656 0
0.390184 0.111848 0
0.61033 0.111742 0
0.488809 0.116278 0
1.67175 0.0169692 0
-0.67 0.0169809 0
-0.955017 0.454039 0
1.95131 0.44569 0
1.74981 0.0168753 0
-0.75 0.0173205 0
-0.968032 0.266538 0
1.96871 0.266267 0
0.978232 0.0305687 0
0.0208675 0.026451 0
-0.150454 0.91842 0
1.13854 0.907437 0
1.45012 0.904365 0
-0.445923 0.908903 0
-0.853423 0.0157019 0
1.84881 0.016319 0
0.853689 0.915652 0
0.153944 0.912184 0
0.545151 0.914125 0
0.549913 0.115152 0
1.51 0.0173205 0
-0.506989 0.01651 0
1.27 0.0173205 0
1.14976 0.0173333 0
-0.268171 0.0206442 0
-0.150501 0.0153244 0
-0.391384 0.0153993 0
1.38886 0.0171544 0
-0.973694 0.161724 0
1.97441 0.162392 0
-0.945221 0.633523 0
1.94544 0.63312 0
1.91008 0.0186068 0
-0.91 0.0169616 0
-0.030664 0.0194327 0
1.03074 0.0165456 0
-0.966065 0.353575 0
1.96128 0.359765 0
1.93879 0.781254 0
-0.937057 0.781882 0
-0.980746 0.080709 0
1.9772 0.0760699 0
0.058735 0.0409372 0
0.355202 0.913001 0
0.86356 0.0661005 0
0.134223 0.0651111 0
0.941972 0.0397386 0
-0.653034 0.915003 0
1.65328 0.904589 0
0.770126 0.0881325 0
0.232946 0.0902008 0
0.330582 0.105648 0
0.670612 0.108365 0
0.428707 0.116145 0
1.80993 0.016629 0
-0.810168 0.0172178 0
-0.71 0.0173205 0
1.63047 0.0175504 0
1.70842 0.0169661 0
-0.628824 0.0181787 0
-0.949815 0.0133898 0
1.95 0.0173205 0
1.85542 0.907891 0
-0.85 0.913397 0
1.9833 0.0307692 0
-0.983315 0.0309709 0
-0.750025 0.916468 0
-0.701107 0.836904 0
-0.607741 0.836428 0
-0.656448 0.759827 0
-0.572936 0.758144 0
-0.61411 0.691195 0
-0.539534 0.689068 0
-0.578542 0.626111 0
-0.507461 0.624216 0
-0.544001 0.566638 0
-0.477696 0.564279 0
-0.511582 0.51001 0
-0.451689 0.507147 0
-0.481834 0.457732 0
-0.426137 0.454624 0
-0.453236 0.407539 0
-0.398845 0.406233 0
-0.507958 0.409496 0
-0.368427 0.460177 0
-0.344602 0.405209 0
-0.315696 0.447824 0
-0.294128 0.402169 0
-0.262844 0.444518 0
-0.241968 0.388746 0
-0.209878 0.439557 0
-0.185184 0.391135 0
-0.156687 0.437338 0
-0.133719 0.390776 0
-0.104405 0.434306 0
-0.0818745 0.388334 0
-0.0528785 0.431165 0
-0.0305984 0.385639 0
-0.00180552 0.427863 0
0.0194564 0.382608 0
0.0485809 0.42449 0
0.0701962 0.37973 0
0.0985483 0.421145 0
0.119893 0.377339 0
0.147837 0.417911 0
0.172552 0.36751 0
0.197018 0.412597 0
0.221203 0.37141 0
0.24512 0.409646 0
-0.48178 0.364657 0
-0.531053 0.364782 0
-0.0599102 0.344151 0
-0.324909 0.359566 0
0.266181 0.368462 0
0.292132 0.407649 0
0.311992 0.365779 0
0.338918 0.404821 0
0.357567 0.355909 0
0.384723 0.40053 0
0.404675 0.359681 0
0.430617 0.398558 0
0.450457 0.35827 0
0.474237 0.395182 0
0.496746 0.34898 0
0.520548 0.397931 0
0.542071 0.353121 0
0.566011 0.389914 0
0.585061 0.350856 0
0.609352 0.38696 0
0.629069 0.348168 0
0.655979 0.391217 0
0.67472 0.346182 0
0.699346 0.381414 0
0.719333 0.341965 0
0.743718 0.377547 0
0.764028 0.339036 0
0.788201 0.373582 0
0.807659 0.336101 0
0.832821 0.372249 0
0.852309 0.334017 0
0.877785 0.370339 0
0.897875 0.331141 0
0.922904 0.366281 0
0.943173 0.327335 0
0.968282 0.363358 0
0.989029 0.324222 0
1.01391 0.361511 0
1.03465 0.321428 0
1.05949 0.358447 0
1.08389 0.312052 0
1.10575 0.355104 0
1.12889 0.31562 0
1.15067 0.353235 0
1.17157 0.312819 0
1.19626 0.349369 0
1.21618 0.309863 0
1.2416 0.346914 0
1.26131 0.30715 0
1.28691 0.344312 0
1.30571 0.303752 0
1.33144 0.341222 0
1.35018 0.300911 0
1.3758 0.338308 0
1.39501 0.298931 0
1.42015 0.335235 0
1.43904 0.296349 0
1.46355 0.330194 0
1.48256 0.293347 0
1.50685 0.326967 0
1.52589 0.29055 0
1.54996 0.325305 0
1.56909 0.287929 0
[...]
CELL_DATA 3694
SCALARS rho float
LOOKUP_TABLE default
0.734965
0.670306
0.803713
0.812731
0.826291
0.80499
0.791483
0.799703
0.809724
0.80257
0.81704
0.817033
0.840249
0.789212
0.800516
0.750105
0.803191
0.802817
0.759827
0.84982
0.816995
0.822781
0.696742
0.803295
0.693316
0.839147
0.719958
0.805997
0.836779
0.798326
0.798522
0.718463
0.803372
0.824439
0.802626
0.797129
0.83699
0.822576
0.824574
0.7781
0.804538
0.817204
0.834107
0.825011
0.805023
0.812618
0.800537
0.665885
0.678967
0.720279
0.801966
0.80288
0.846584
0.801951
0.628721
0.83789
0.802443
0.818775
0.832531
0.75382
0.796137
0.814807
0.841876
0.799317
0.842398
0.830605
0.807341
0.813275
0.736492
0.858117
0.803097
0.80748
0.822804
0.803155
0.824208
0.802854
0.81407
0.799385
0.813631
0.802655
0.713355
0.818112
0.802192
0.7767
0.809579
0.799338
0.81812
0.714453
0.736128
0.824863
0.798947
0.80225
0.820223
0.815203
0.674556
0.806402
0.722802
0.817526
0.812059
0.839732
0.814361
0.762171
0.718712
0.809525
0.809018
0.814802
0.817504
0.806901
0.715435
0.814083
0.799143
0.721995
0.720987
0.823271
0.867732
0.802069
0.799506
0.81186
0.803082
0.801971
0.765601
0.822352
0.81946
0.769612
0.7046
0.758269
0.817168
0.776657
0.843361
0.700005
0.767081
0.800258
0.807818
0.777416
0.800648
0.795372
0.805342
0.802299
0.797704
0.814292
0.813509
0.710025
0.816695
0.813357
0.757394
0.668154
0.676749
0.797836
0.815766
0.812992
0.744063
0.802609
0.554754
0.778348
0.685177
0.763088
0.713275
0.783505
0.606033
0.792928
0.837398
0.644316
0.781906
0.736812
0.843928
0.552964
0.817094
0.800142
0.802607
0.672979
0.801487
0.662209
0.857641
0.536167
0.799772
0.633128
0.872366
0.833117
0.820432
0.745061
0.813852
0.721876
0.826718
0.737334
0.648087
0.803046
0.675703
0.823182
0.801595
0.850788
0.791663
0.704406
0.814524
0.798105
0.741826
0.852743
0.811287
0.848666
0.736335
0.742623
0.770777
0.793598
0.831515
0.834125
0.816775
0.813899
0.668746
0.804506
0.726564
0.803136
0.708356
0.797178
0.795534
0.801401
0.825512
0.763374
0.830219
0.749256
0.825453
0.819661
0.81572
0.852988
0.82933
0.70289
0.826866
0.687468
0.787658
0.809803
0.850955
0.829995
0.808066
0.794313
0.745028
0.8174
0.836526
0.817215
0.714715
0.799598
0.694967
0.79204
0.79539
0.809797
0.637321
0.807439
0.757448
0.797762
0.803057
0.758973
0.814957
0.865674
0.784107
0.692311
0.80433
0.801392
0.646711
0.792106
0.777747
0.802297
0.838822
0.814561
0.607789
0.814976
0.810025
0.796672
0.815247
0.802573
0.815273
0.81437
0.835508
0.755973
0.801753
0.834684
0.810241
0.803097
0.796004
0.814729
0.728316
0.587155
0.816661
0.829517
0.820235
0.804199
0.681156
0.815245
0.814977
0.816613
0.713051
0.797072
0.814831
0.539956
0.802765
0.869024
0.678583
0.756073
0.838529
0.826841
0.814572
0.707354
0.809325
0.814826
0.803714
0.801544
0.81204
0.836509
0.81713
0.767058
0.806929
0.803
0.64613
0.820834
0.827702
0.671298
0.790848
0.818683
0.820774
0.678661
0.683479
0.821254
0.823924
0.809448
0.733465
0.706632
0.713358
0.732417
0.820142
0.776481
0.804062
0.73225
0.742051
0.822351
0.810041
0.818965
0.769698
0.814956
0.813627
0.817172
0.815796
0.802695
0.807442
0.803663
0.69211
0.80266
0.812676
0.69468
0.806953
0.805013
0.819267
0.785692
0.805847
0.791725
0.814714
0.820824
0.820015
0.797985
0.681206
0.710657
0.799325
0.81079
0.622419
0.803784
0.807284
0.817147
0.743039
0.804177
0.816204
0.811384
0.817648
0.804942
0.797213
0.764219
0.80411
0.843404
0.819879
0.707019
0.803527
0.702108
0.704757
0.802966
0.614459
0.770458
0.784684
0.807961
0.813238
0.825144
0.816958
0.812548
0.820025
0.828114
0.802785
0.764366
0.809676
0.658741
0.819085
0.757031
0.727549
0.68755
0.813767
0.853905
0.819112
0.808577
0.822036
0.815135
0.786768
0.758095
0.809433
0.69301
0.791101
0.843448
0.826514
0.800735
0.863944
0.813291
0.816381
0.817388
0.830956
0.629471
0.798535
0.731135
0.797752
0.735057
0.818888
0.808578
0.787135
0.684599
0.814615
0.829925
0.811721
0.802851
0.803706
0.824225
0.803762
0.710827
0.790243
0.803068
0.814567
0.813836
0.812462
0.871564
0.827675
0.809292
0.831978
0.681998
0.823274
0.837506
0.816053
0.627511
0.815112
0.809084
0.845393
0.821223
0.802891
0.592194
0.81
0.695863
0.806023
0.802854
0.812053
0.813368
0.825125
0.804986
0.81113
0.815884
0.724085
0.862853
0.801871
0.850089
0.816261
0.574111
0.803814
0.796613
0.811443
0.817513
0.649345
0.802785
0.809549
0.8129
0.807027
0.793794
0.815443
0.817168
0.796041
0.803734
0.821309
0.836813
0.730207
0.806193
0.809519
0.812978
0.682314
0.805129
0.815881
0.799117
0.803989
0.522412
0.83282
0.763543
0.814483
0.817592
0.830762
0.846162
0.815989
0.811454
0.71596
0.798793
0.85231
0.808319
0.70986
0.800072
0.802583
0.872153
0.845205
0.818924
0.801974
0.809592
0.755357
0.815258
0.813764
0.584817
0.802566
0.729463
0.750143
0.80301
0.811238
0.780936
0.821264
0.815099
0.837989
0.815841
0.800412
0.808828
0.738602
0.736735
0.804086
0.807942
0.820983
0.802127
0.751713
0.688755
0.813397
0.815092
0.813929
0.594597
0.813509
0.81658
0.824607
0.802973
0.808574
0.819537
0.811767
0.83935
0.802955
0.812592
0.823616
0.815441
0.817675
0.821427
0.688896
0.784126
0.794749
0.803075
0.847539
0.802036
0.802636
0.635114
0.810773
0.8134
0.810669
0.818921
0.805705
0.812963
0.726978
0.843541
0.70747
0.800305
0.817202
0.807163
0.653263
0.682937
0.815259
0.805603
0.804162
0.785326
0.801504
0.829168
0.813392
0.804914
0.802071
0.812162
0.619572
0.812242
0.802963
0.698577
0.815428
0.617916
0.783897
0.815384
0.837725
0.80581
0.812352
0.792353
0.79545
0.803964
0.801409
0.811884
0.811035
0.808871
0.803215
0.757275
0.804035
0.812389
0.81184
0.816131
0.811391
0.815787
0.814767
0.834196
0.738163
0.806592
0.815515
0.80236
0.542435
0.682328
0.811135
0.813124
0.815066
0.780309
0.808215
0.812665
0.803109
0.799871
0.802669
0.819845
0.820676
0.814846
0.784761
0.808051
0.805565
0.548571
0.773824
0.757292
0.806411
0.735509
0.675937
0.79752
0.767489
0.827637
0.814772
0.814547
0.808312
0.540186
0.815488
0.583358
0.696027
0.824569
0.869676
0.74142
0.81646
0.852821
0.694866
0.815261
0.808964
0.814822
0.807278
0.656114
0.854504
0.737334
0.730003
0.803279
0.804543
0.799473
0.833367
0.815041
0.690929
0.81541
0.800252
0.691747
0.839452
0.798074
0.621957
0.772803
0.815556
0.807797
0.814679
0.784393
0.725108
0.770025
0.836982
0.688474
0.815819
0.817224
0.826841
0.765189
0.821964
0.691593
0.804541
0.660469
0.700588
0.800412
0.82266
0.788397
0.814424
0.815251
0.815071
0.813837
0.577149
0.802533
0.814816
0.743239
0.810026
0.815289
0.811671
0.715398
0.692486
0.741204
0.620391
0.807235
0.681498
0.815512
0.801874
0.814855
0.836957
0.687237
0.80441
0.819699
0.832405
0.737793
0.78173
0.764774
0.772973
0.812239
0.565548
0.672807
0.815158
0.80529
0.812215
0.804524
0.712776
0.780214
0.724446
0.76056
0.799574
0.831849
0.812189
0.69114
0.823305
0.817765
0.810815
0.685761
0.692947
0.681481
0.872101
0.815755
0.816515
0.608888
0.711263
0.641206
0.803396
0.800332
0.67166
0.811901
0.824414
0.749078
0.799441
0.72972
0.814024
0.692318
0.814593
0.810459
0.801416
0.803082
0.825489
0.744186
0.815614
0.81483
0.780297
0.553076
0.816238
0.810824
0.757826
0.813721
0.747461
0.80288
0.826367
0.658973
0.818034
0.802701
0.809958
0.583404
0.631299
0.735136
0.806348
0.811986
0.810718
0.820974
0.814708
0.815852
0.704326
0.801913
0.813043
0.826166
0.703377
0.726206
0.812129
0.811795
0.696162
0.814324
0.774378
0.702039
0.811865
0.695835
0.804166
0.662317
0.802878
0.730188
0.666768
0.811068
0.786138
0.744117
0.631
0.840054
0.82105
0.814812
0.770292
0.814044
0.80007
0.786055
0.799893
0.801671
0.815059
0.731678
0.80968
0.800006
0.818677
0.598241
0.801351
0.812834
0.813794
0.811491
0.81205
0.746161
0.802936
0.764041
0.750674
0.818518
0.646591
0.818456
0.817578
0.803082
0.815488
0.816718
0.72058
0.768461
0.822024
0.785288
0.803727
0.815924
0.875054
0.817921
0.798231
0.816706
0.815193
0.793945
0.818389
0.816808
0.773194
0.698174
0.841158
0.796998
0.803173
0.822562
0.781077
0.817749
0.824778
0.818563
0.816779
0.870512
0.803103
0.804861
0.818166
0.803097
0.8153
0.806927
0.73572
0.815224
0.819618
0.753845
0.708425
0.815108
0.843215
0.822317
0.653346
0.821674
0.773628
0.808238
0.801904
0.72962
0.803121
0.798654
0.815454
0.816816
0.693551
0.704603
0.802195
0.787561
0.801567
0.824788
0.722058
0.814826
0.802409
0.800156
0.823353
0.815293
0.712919
0.815545
0.763096
0.80243
0.832571
0.803348
0.773312
0.797883
0.794621
0.814943
0.585581
0.814784
0.695015
0.678137
0.803453
0.819445
0.814837
0.802549
0.81497
0.808372
0.72404
0.787628
0.857104
0.803023
0.833465
0.807401
0.542462
0.762204
0.779789
0.647547
0.737612
0.578365
0.820067
0.813115
0.81389
0.802426
0.766749
0.684617
0.764361
0.752224
0.782019
0.814755
0.844888
0.819284
0.805802
0.819267
0.82369
0.802638
0.807541
0.704818
0.80313
0.756215
0.808648
0.797814
0.751534
0.822284
0.788398
0.803534
0.789743
0.840864
0.727803
0.800869
0.799421
0.804865
0.617274
0.815333
0.815212
0.821728
0.631133
0.815092
0.815095
0.798497
0.80383
0.79319
0.775211
0.806202
0.794542
0.815824
0.753117
0.803748
0.875266
0.762643
0.747852
0.806934
0.783963
0.842539
0.799848
0.779499
0.815349
0.798171
0.792515
0.808033
0.825477
0.835661
0.799704
0.573573
0.820336
0.828163
0.772081
0.830665
0.838158
0.822767
0.826187
0.807244
0.832854
0.826742
0.783712
0.808893
0.811231
0.806244
0.822595
0.803357
0.827309
0.792887
0.803127
0.805708
0.726456
0.807066
0.560793
0.817839
0.825212
0.828523
0.805707
0.818048
0.823798
0.819342
0.820693
0.838717
0.833021
0.787833
0.800317
0.821589
0.815239
0.816816
0.80019
0.806347
0.865529
0.819915
0.847307
0.814952
0.800591
0.824549
0.799713
0.833389
0.813302
0.815219
0.805239
0.726112
0.802874
0.80448
0.814902
0.803292
0.801999
0.822017
0.804533
0.804131
0.777866
0.819659
0.717256
0.814043
0.780202
0.758748
0.80352
0.813209
0.818913
0.714931
0.819193
0.815129
0.826484
0.816946
0.789614
0.816137
0.847254
0.833002
0.814822
0.811648
0.801525
0.743563
0.677299
0.814912
0.820492
0.77076
0.81424
0.807686
0.811641
0.805341
0.798425
0.776078
0.802359
0.79997
0.841372
0.817242
0.811309
0.80622
0.60283
0.730875
0.802111
0.783254
0.804014
0.815543
0.80583
0.81591
0.779727
0.814982
0.804707
0.810524
0.803633
0.817694
0.803148
0.815695
0.810727
0.815678
0.812665
0.717056
0.814318
0.815506
0.59663
0.814745
0.796684
0.802704
0.858715
0.818186
0.810537
0.872451
0.815123
0.815206
0.816676
0.818678
0.815108
0.764131
0.830228
0.801226
0.803085
0.814382
0.815075
0.816556
0.814933
0.813266
0.822745
0.803878
0.812342
0.808959
0.815055
0.819878
0.814953
0.811619
0.819112
0.808832
0.695871
0.658991
0.802542
0.808448
0.803245
0.81112
0.818213
0.816944
0.802806
0.803713
0.800459
0.800721
0.816731
0.844296
0.818379
0.811378
0.818321
0.818
0.845962
0.81731
0.820953
0.785529
0.815638
0.806694
0.801137
0.791918
0.810617
0.818332
0.814784
0.814988
0.835912
0.805954
0.812501
0.816446
0.82143
0.803412
0.803102
0.805412
0.810711
0.814897
0.801456
0.802896
0.816726
0.822397
0.800684
0.60368
0.804154
0.796751
0.817114
0.798521
0.802665
0.748077
0.840729
0.802641
0.799624
0.834677
0.829599
0.810109
0.826067
0.800344
0.817676
0.817258
0.818527
0.803504
0.818109
0.727841
0.822146
0.811413
0.79997
0.812923
0.820348
0.799018
0.803885
0.782203
0.815041
0.815178
0.815286
0.818316
0.806311
0.816872
0.815572
0.825881
0.821876
0.837549
0.805805
0.69492
0.81775
0.840515
0.819583
0.804474
0.799913
0.80322
0.816065
0.813991
0.815776
0.74361
0.737893
0.800606
0.802855
0.81545
0.816367
0.798558
0.652504
0.70803
0.807907
0.768914
0.815622
0.702913
0.80299
0.727829
0.803136
0.819829
0.803072
0.817102
0.812555
0.79846
0.808453
0.79331
0.829747
0.815316
0.801064
0.803366
0.815641
0.821465
0.749144
0.822499
0.803615
0.78305
0.81519
0.803716
0.810338
0.81437
0.814772
0.835174
0.792555
0.798833
0.815068
0.758732
0.80647
0.814507
0.800887
0.815716
0.841124
0.802113
0.843123
0.808521
0.790197
0.811574
0.802568
0.851881
0.788328
0.80308
0.815761
0.831457
0.808245
0.813447
0.815459
0.802723
0.802612
0.825831
0.782508
0.814004
0.815048
0.643708
0.81525
0.712345
0.817492
0.838115
0.824296
0.803847
0.814265
0.814909
0.725399
0.814455
0.800657
0.801452
0.800707
0.815467
0.863782
0.801092
0.800825
0.785251
0.840515
0.827849
0.81935
0.812959
0.746514
0.803286
0.80328
0.730472
0.799255
0.714048
0.810187
0.800838
0.675997
0.880223
0.702086
0.772036
0.801113
0.743042
0.808236
0.79875
0.802979
0.659936
0.796616
0.783955
0.798803
0.728518
0.818441
0.822219
0.884551
0.809314
0.831168
0.644686
0.799777
0.786668
0.744142
0.751117
0.76878
0.705641
0.803015
0.799129
0.803089
0.763462
0.626705
0.811286
0.612415
0.820881
0.822642
0.811362
0.7365
0.811847
0.795195
0.818854
0.782602
0.806917
0.797009
0.809692
0.71636
0.801323
0.722094
0.801169
0.79859
0.68573
0.803482
0.814811
0.814872
0.803019
0.760972
0.814638
0.732044
0.690379
0.802196
0.81487
0.874399
0.814771
0.81414
0.880569
0.865409
0.830747
0.717676
0.801846
0.811755
0.821168
0.797763
0.680725
0.722381
0.675815
0.8023
0.704271
0.76828
0.79923
0.616255
0.689208
0.835964
0.77337
0.74511
0.830287
0.758975
0.769086
0.634754
0.731152
0.784902
0.819433
0.86948
0.837664
0.815203
0.7944
0.799494
0.715578
0.81506
0.69374
0.796905
0.81485
0.783378
0.762311
0.801448
0.782592
0.802111
0.800588
0.811369
0.810954
0.867105
0.571632
0.538579
0.802283
0.806763
0.698048
0.809844
0.802713
0.837388
0.803394
0.802287
0.567054
0.555415
0.808282
0.81203
0.814975
0.726304
0.803084
0.810275
0.684249
0.811054
0.802613
0.813489
0.803112
0.800336
0.80216
0.813936
0.802872
0.816896
0.803145
0.862022
0.814293
0.802424
0.721069
0.669906
0.815005
0.585177
0.812466
0.809893
0.835728
0.813511
0.802957
0.810607
0.812983
0.812742
0.814607
0.801512
0.853832
0.856397
0.802154
0.655161
0.808157
0.822279
0.799329
0.803095
0.819727
0.733906
0.803186
0.824997
0.821066
0.815302
0.814844
0.766461
0.745328
0.800668
0.833829
0.802703
0.814029
0.804366
0.803571
0.804902
0.813613
0.808715
0.798567
0.806757
0.805895
0.824435
0.806567
0.806163
0.817178
0.806727
0.803318
0.81271
0.802893
0.80276
0.805692
0.807702
0.812848
0.773482
0.805217
0.80263
0.814769
0.799571
0.803651
0.806746
0.831641
0.804921
0.649995
0.800663
0.815002
0.804551
0.814641
0.762896
0.814773
0.750513
0.803573
0.80211
0.803956
0.818798
0.850929
0.804259
0.8032
0.746863
0.829366
0.814755
0.82006
0.824813
0.814462
0.736503
0.817729
0.722026
0.800963
0.827343
0.802304
0.699837
0.825573
0.814444
0.815949
0.823825
0.815165
0.773182
0.816763
0.648482
0.710409
0.814849
0.822302
0.67575
0.818932
0.658466
0.821106
0.806678
0.816259
0.803114
0.805465
0.814581
0.83153
0.824994
0.671497
0.812834
0.841886
0.781356
0.846161
0.800173
0.705747
0.838344
0.819158
0.835369
0.688147
0.683408
0.832684
0.657283
0.830384
0.814863
0.828348
0.806195
0.826626
0.787589
0.825117
0.823722
0.707469
0.865592
0.822524
0.821512
0.82351
0.759086
0.802759
0.523839
0.802959
0.820632
0.813319
0.804659
0.825673
0.814807
0.797887
0.819857
0.802925
0.680283
0.792316
0.834093
0.81419
0.715785
0.799087
0.821464
0.575833
0.814545
0.815369
0.802553
0.809826
0.72607
0.817691
0.802963
0.803404
0.79588
0.793816
0.797837
0.794603
0.803233
0.812206
0.819228
0.813886
0.572444
0.892974
0.705999
0.797794
0.739524
0.791374
0.814783
0.815482
0.815366
0.604381
0.818779
0.81712
0.803819
0.81777
0.836533
0.839408
0.782802
0.798352
0.7994
0.725153
0.752639
0.815037
0.763901
0.815081
0.818845
0.814605
0.813404
0.801883
0.775232
0.811963
0.815899
0.728392
0.810501
0.815679
0.817904
0.807708
0.809378
0.764635
0.814392
0.8081
0.803108
0.807342
0.616473
0.806405
0.804242
0.805826
0.821124
0.845481
0.804614
0.774175
0.805188
0.771493
0.820078
0.80567
0.812565
0.814793
0.850105
0.80333
0.744324
0.819691
0.815035
0.727052
0.800815
0.81604
0.758397
0.812441
0.569169
0.806481
0.685614
0.801117
0.810986
0.812287
0.817027
0.804121
0.815566
0.817533
0.800944
0.804261
0.84432
0.815956
0.796136
0.816006
0.80188
0.801448
0.800202
0.801167
0.806968
0.814416
0.801529
0.769917
0.818233
0.812801
0.808787
0.814803
0.586609
0.803284
0.813596
0.815084
0.787404
0.748241
0.71875
0.812302
0.814647
0.825776
0.789267
0.602897
0.771445
0.640237
0.816541
0.744983
0.812024
0.830129
0.695245
0.799606
0.833715
0.74946
0.80052
0.803101
0.815358
0.802188
0.698777
0.800623
0.54865
0.801698
0.802381
0.802136
0.575565
0.802866
0.803364
0.803113
0.728458
0.737362
0.803359
0.776352
0.815429
0.722082
0.706622
0.814831
0.801261
0.752517
0.854056
0.813643
0.812083
0.669267
0.802725
0.800487
0.80039
0.802408
0.656587
0.803182
0.815091
0.654298
0.68534
0.805753
0.790342
0.814925
0.823045
0.814809
0.815012
0.81624
0.803586
0.814996
0.814746
0.813274
0.829154
0.802407
0.801739
0.810273
0.726984
0.809495
0.814602
0.86271
0.810845
0.637895
0.774575
0.802127
0.776075
0.816494
0.811624
0.829892
0.813975
0.864512
0.801872
0.814377
0.593656
0.815531
0.833721
0.802858
0.814061
0.624827
0.815187
0.802653
0.816451
0.80217
0.81732
0.815748
0.754546
0.803497
0.803088
0.834983
0.861823
0.819528
0.815883
0.72496
0.741527
0.802455
0.80297
0.811936
0.817866
0.799474
0.8028
0.819301
0.806357
0.807458
0.739273
0.802655
0.817308
0.813748
0.768202
0.760379
0.811547
0.796363
0.856915
0.718645
0.834445
0.810805
0.711383
0.799623
0.814233
0.78739
0.800627
0.799659
0.814841
0.77725
0.774388
0.813179
0.696743
0.798585
0.765456
0.814703
0.817065
0.801934
0.787482
0.738405
0.75223
0.773875
0.81442
0.818751
0.805609
0.660587
0.80201
0.795653
0.777748
0.80967
0.812744
0.799474
0.803091
0.634022
0.803935
0.804559
0.851208
0.803637
0.80898
0.833177
0.805236
0.809937
0.852131
0.61288
0.803968
0.815944
0.80533
0.804942
0.805634
0.804507
0.804608
0.804124
0.805721
0.806259
0.724505
0.805614
0.806945
0.806625
0.814911
0.808073
0.818356
0.803059
0.803448
0.814504
0.814679
0.80984
0.80331
0.816157
0.813078
0.809647
0.815829
0.70829
0.813721
0.831377
0.814718
0.854188
0.749607
0.807907
0.814783
0.800751
0.60448
0.8032
0.772247
0.821712
0.627143
0.815369
0.829387
0.81446
0.811706
0.802022
0.82701
0.819053
0.803524
0.764669
0.816881
0.75842
0.547194
0.814128
0.694768
0.694972
0.820325
0.827503
0.827315
0.816481
0.847442
0.57317
0.876775
0.805169
0.825797
0.824122
0.812784
0.681775
0.814652
0.822577
0.816191
0.800954
0.773597
0.822197
0.565668
0.812969
0.843082
0.80307
0.839514
0.821335
0.803235
0.66923
0.843253
0.820274
0.836319
0.800795
0.813675
0.803013
0.833678
0.802761
0.813599
0.831245
0.829093
0.821955
0.824141
0.830743
0.738824
0.661525
0.564676
0.827241
0.82571
0.767224
0.756408
0.806237
0.824275
0.846765
0.591263
0.822987
0.821892
0.820976
0.81944
0.803871
0.820713
0.65818
0.744196
0.82017
0.797316
0.870034
0.890082
0.776313
0.803799
0.669414
0.835445
0.730473
0.718677
0.819061
0.801578
0.783356
0.661299
0.802111
0.81487
0.788777
0.711799
0.800372
0.817082
0.797913
0.676997
0.823383
0.792727
0.815551
0.83316
0.81508
0.795586
0.815996
0.815756
0.785756
0.803922
0.71076
0.840554
0.792971
0.81095
0.781827
0.804317
0.696462
0.800735
0.813411
0.812045
0.810877
0.80935
0.808257
0.807499
0.805869
0.804755
0.806679
0.725165
0.805307
0.801366
0.79582
0.803235
0.844391
0.715189
0.803148
0.776019
0.883927
0.854324
0.797923
0.723466
0.803236
0.797631
0.719065
0.803247
0.801621
0.7342
0.803586
0.789836
0.797223
0.801009
0.737288
0.779604
0.804357
0.747183
0.764248
0.769325
0.80133
0.814493
0.808522
0.758554
0.751147
0.799447
0.813528
0.803255
0.792843
0.801031
0.928625
0.860497
0.817576
0.814675
0.723436
0.844255
0.747476
0.825978
0.816417
0.89811
0.814843
0.797069
0.588518
0.814874
0.797184
0.814909
0.797604
0.845484
0.521237
0.832723
0.801481
0.805527
0.804805
0.803692
0.855815
0.8012
0.817225
0.701451
0.664751
0.666547
0.814953
0.503186
0.797603
0.721766
0.841732
0.814681
0.557879
0.801967
0.814364
0.814037
0.718888
0.801622
0.524501
0.797114
0.81509
0.797235
0.802651
0.797475
0.815259
0.833843
0.803224
0.798184
0.815654
0.798449
0.815805
0.813936
0.798733
0.815976
0.813578
0.816177
0.798845
0.816401
0.679409
0.799039
0.816652
0.803018
0.799231
0.816905
0.697805
0.814866
0.798154
0.814811
0.798311
0.809871
0.838255
0.861235
0.800868
0.800319
0.817847
0.815271
0.799961
0.799584
0.863489
0.812136
0.817518
0.810324
0.849826
0.828406
0.816491
0.825599
0.846134
0.814805
0.801451
0.819087
0.811536
0.801878
0.814697
0.799927
0.807426