# vtk DataFile Version 1.0
unstructured grid
ascii
DATASET UNSTRUCTURED_GRID
points 3920 float
-1 0 0
-1 1 0
2 0 0
2 1 0
0 0 0
1 0 0
-1 1 0.1
-1 0 0.1
0 0 0.1
1 0 0.1
2 0 0.1
2 1 0.1
-0.98 0 0
-0.96 0 0
-0.94 0 0
-0.92 0 0
-0.9 0 0
-0.88 0 0
-0.86 0 0
-0.84 0 0
-0.82 0 0
-0.8 0 0
-0.78 0 0
-0.76 0 0
-0.74 0 0
-0.72 0 0
-0.7 0 0
-0.68 0 0
-0.66 0 0
-0.64 0 0
-0.62 0 0
-0.6 0 0
-0.58 0 0
-0.56 0 0
-0.54 0 0
-0.52 0 0
-0.5 0 0
-0.48 0 0
-0.46 0 0
-0.44 0 0
-0.42 0 0
-0.4 0 0
-0.38 0 0
-0.36 0 0
-0.34 0 0
-0.32 0 0
-0.3 0 0
-0.28 0 0
-0.26 0 0
-0.24 0 0
-0.22 0 0
-0.2 0 0
-0.18 0 0
-0.16 0 0
-0.14 0 0
-0.12 0 0
-0.1 0 0
-0.08 0 0
-0.06 0 0
-0.04 0 0
-0.02 0 0
1.02 0 0
1.04 0 0
1.06 0 0
1.08 0 0
1.1 0 0
1.12 0 0
1.14 0 0
1.16 0 0
1.18 0 0
1.2 0 0
1.22 0 0
1.24 0 0
1.26 0 0
1.28 0 0
1.3 0 0
1.32 0 0
1.34 0 0
1.36 0 0
1.38 0 0
1.4 0 0
1.42 0 0
1.44 0 0
1.46 0 0
1.48 0 0
1.5 0 0
1.52 0 0
1.54 0 0
1.56 0 0
1.58 0 0
1.6 0 0
1.62 0 0
1.64 0 0
1.66 0 0
1.68 0 0
1.7 0 0
1.72 0 0
1.74 0 0
1.76 0 0
1.78 0 0
1.8 0 0
1.82 0 0
1.84 0 0
1.86 0 0
1.88 0 0
1.9 0 0
1.92 0 0
1.94 0 0
1.96 0 0
1.98 0 0
2 0.0199133 0
2 0.0414128 0
2 0.0646247 0
2 0.0896856 0
2 0.116743 0
2 0.145955 0
2 0.177494 0
2 0.211545 0
2 0.248309 0
2 0.288001 0
2 0.330854 0
2 0.377121 0
2 0.427073 0
2 0.481004 0
2 0.539231 0
2 0.602096 0
2 0.669968 0
2 0.743247 0
2 0.822362 0
2 0.907779 0
1.9 1 0
1.8 1 0
1.7 1 0
1.6 1 0
1.5 1 0
1.4 1 0
1.3 1 0
1.2 1 0
1.1 1 0
1 1 0
0.9 1 0
0.8 1 0
0.7 1 0
0.6 1 0
0.5 1 0
0.4 1 0
0.3 1 0
0.2 1 0
0.1 1 0
3.69793e-12 1 0
-0.1 1 0
-0.2 1 0
-0.3 1 0
-0.4 1 0
-0.5 1 0
-0.6 1 0
-0.7 1 0
-0.8 1 0
-0.9 1 0
-1 0.907779 0
-1 0.822362 0
-1 0.743247 0
-1 0.669968 0
-1 0.602096 0
-1 0.539231 0
-1 0.481004 0
-1 0.427073 0
-1 0.377121 0
-1 0.330854 0
-1 0.288001 0
-1 0.248309 0
-1 0.211545 0
-1 0.177494 0
-1 0.145955 0
-1 0.116743 0
-1 0.0896856 0
-1 0.0646247 0
-1 0.0414128 0
-1 0.0199133 0
0.0182781 0.00745351 0
0.0366672 0.0146286 0
0.0551632 0.0215237 0
0.0737617 0.0281372 0
0.0924585 0.0344675 0
0.111249 0.0405131 0
0.13013 0.0462728 0
0.149095 0.0517451 0
0.168142 0.0569289 0
0.187265 0.0618228 0
0.20646 0.0664258 0
0.225723 0.0707368 0
0.245049 0.0747549 0
0.264434 0.078479 0
0.283873 0.0819084 0
0.303362 0.0850422 0
0.322896 0.0878798 0
0.342472 0.0904204 0
0.362083 0.0926635 0
0.381726 0.0946086 0
0.401397 0.0962552 0
0.42109 0.0976029 0
0.440802 0.0986514 0
0.460527 0.0994006 0
0.480261 0.0998501 0
0.5 0.1 0
0.519739 0.0998501 0
0.539473 0.0994006 0
0.559198 0.0986514 0
0.57891 0.0976029 0
0.598603 0.0962552 0
0.618274 0.0946086 0
0.637917 0.0926635 0
0.657528 0.0904204 0
0.677104 0.0878798 0
0.696638 0.0850422 0
0.716127 0.0819084 0
0.735566 0.078479 0
0.754951 0.0747549 0
0.774277 0.0707368 0
0.79354 0.0664258 0
0.812735 0.0618228 0
0.831858 0.0569289 0
0.850905 0.0517451 0
0.86987 0.0462728 0
0.888751 0.0405131 0
0.907542 0.0344675 0
0.926238 0.0281372 0
0.944837 0.0215237 0
0.963333 0.0146286 0
0.981722 0.00745351 0
-1 0.907779 0.1
-1 0.822362 0.1
-1 0.743247 0.1
-1 0.669968 0.1
-1 0.602096 0.1
-1 0.539231 0.1
-1 0.481004 0.1
-1 0.427073 0.1
-1 0.377121 0.1
-1 0.330854 0.1
-1 0.288001 0.1
-1 0.248309 0.1
-1 0.211545 0.1
-1 0.177494 0.1
-1 0.145955 0.1
-1 0.116743 0.1
-1 0.0896856 0.1
-1 0.0646247 0.1
-1 0.0414128 0.1
-1 0.0199133 0.1
-0.98 0 0.1
-0.96 0 0.1
-0.94 0 0.1
-0.92 0 0.1
-0.9 0 0.1
-0.88 0 0.1
-0.86 0 0.1
-0.84 0 0.1
-0.82 0 0.1
-0.8 0 0.1
-0.78 0 0.1
-0.76 0 0.1
-0.74 0 0.1
-0.72 0 0.1
-0.7 0 0.1
-0.68 0 0.1
-0.66 0 0.1
-0.64 0 0.1
-0.62 0 0.1
-0.6 0 0.1
-0.58 0 0.1
-0.56 0 0.1
-0.54 0 0.1
-0.52 0 0.1
-0.5 0 0.1
-0.48 0 0.1
-0.46 0 0.1
-0.44 0 0.1
-0.42 0 0.1
-0.4 0 0.1
-0.38 0 0.1
-0.36 0 0.1
-0.34 0 0.1
-0.32 0 0.1
-0.3 0 0.1
-0.28 0 0.1
-0.26 0 0.1
-0.24 0 0.1
-0.22 0 0.1
-0.2 0 0.1
-0.18 0 0.1
-0.16 0 0.1
-0.14 0 0.1
-0.12 0 0.1
-0.1 0 0.1
-0.08 0 0.1
-0.06 0 0.1
-0.04 0 0.1
-0.02 0 0.1
0.0182781 0.00745351 0.1
0.0366672 0.0146286 0.1
0.0551632 0.0215237 0.1
0.0737617 0.0281372 0.1
0.0924585 0.0344675 0.1
0.111249 0.0405131 0.1
0.13013 0.0462728 0.1
0.149095 0.0517451 0.1
0.168142 0.0569289 0.1
0.187265 0.0618228 0.1
0.20646 0.0664258 0.1
0.225723 0.0707368 0.1
0.245049 0.0747549 0.1
0.264434 0.078479 0.1
0.283873 0.0819084 0.1
0.303362 0.0850422 0.1
0.322896 0.0878798 0.1
0.342472 0.0904204 0.1
0.362083 0.0926635 0.1
0.381726 0.0946086 0.1
0.401397 0.0962552 0.1
0.42109 0.0976029 0.1
0.440802 0.0986514 0.1
0.460527 0.0994006 0.1
0.480261 0.0998501 0.1
0.5 0.1 0.1
0.519739 0.0998501 0.1
0.539473 0.0994006 0.1
0.559198 0.0986514 0.1
0.57891 0.0976029 0.1
0.598603 0.0962552 0.1
0.618274 0.0946086 0.1
0.637917 0.0926635 0.1
0.657528 0.0904204 0.1
0.677104 0.0878798 0.1
0.696638 0.0850422 0.1
0.716127 0.0819084 0.1
0.735566 0.078479 0.1
0.754951 0.0747549 0.1
0.774277 0.0707368 0.1
0.79354 0.0664258 0.1
0.812735 0.0618228 0.1
0.831858 0.0569289 0.1
0.850905 0.0517451 0.1
0.86987 0.0462728 0.1
0.888751 0.0405131 0.1
0.907542 0.0344675 0.1
0.926238 0.0281372 0.1
0.944837 0.0215237 0.1
0.963333 0.0146286 0.1
0.981722 0.00745351 0.1
1.02 0 0.1
1.04 0 0.1
1.06 0 0.1
1.08 0 0.1
1.1 0 0.1
1.12 0 0.1
1.14 0 0.1
1.16 0 0.1
1.18 0 0.1
1.2 0 0.1
1.22 0 0.1
1.24 0 0.1
1.26 0 0.1
1.28 0 0.1
1.3 0 0.1
1.32 0 0.1
1.34 0 0.1
1.36 0 0.1
1.38 0 0.1
1.4 0 0.1
1.42 0 0.1
1.44 0 0.1
1.46 0 0.1
1.48 0 0.1
1.5 0 0.1
1.52 0 0.1
1.54 0 0.1
1.56 0 0.1
1.58 0 0.1
1.6 0 0.1
1.62 0 0.1
1.64 0 0.1
1.66 0 0.1
1.68 0 0.1
1.7 0 0.1
1.72 0 0.1
1.74 0 0.1
1.76 0 0.1
1.78 0 0.1
1.8 0 0.1
1.82 0 0.1
1.84 0 0.1
1.86 0 0.1
1.88 0 0.1
1.9 0 0.1
1.92 0 0.1
1.94 0 0.1
1.96 0 0.1
1.98 0 0.1
2 0.0199133 0.1
2 0.0414128 0.1
2 0.0646247 0.1
2 0.0896856 0.1
2 0.116743 0.1
2 0.145955 0.1
2 0.177494 0.1
2 0.211545 0.1
2 0.248309 0.1
2 0.288001 0.1
2 0.330854 0.1
2 0.377121 0.1
2 0.427073 0.1
2 0.481004 0.1
2 0.539231 0.1
2 0.602096 0.1
2 0.669968 0.1
2 0.743247 0.1
2 0.822362 0.1
2 0.907779 0.1
1.9 1 0.1
1.8 1 0.1
1.7 1 0.1
1.6 1 0.1
1.5 1 0.1
1.4 1 0.1
1.3 1 0.1
1.2 1 0.1
1.1 1 0.1
1 1 0.1
0.9 1 0.1
0.8 1 0.1
0.7 1 0.1
0.6 1 0.1
0.5 1 0.1
0.4 1 0.1
0.3 1 0.1
0.2 1 0.1
0.1 1 0.1
3.69793e-12 1 0.1
-0.1 1 0.1
-0.2 1 0.1
-0.3 1 0.1
-0.4 1 0.1
-0.5 1 0.1
-0.6 1 0.1
-0.7 1 0.1
-0.8 1 0.1
-0.9 1 0.1
1.08758 0.0158154 0
-0.0898513 0.0203294 0
0.0966181 0.0537636 0
0.90205 0.0548881 0
1.21055 0.0202058 0
-0.209811 0.0159577 0
1.3305 0.0176902 0
-0.33 0.0173205 0
1.45324 0.0148141 0
-0.448654 0.0159854 0
1.56842 0.0191785 0
-0.569936 0.0166364 0
0.193292 0.0805369 0
0.805051 0.0813623 0
0.709096 0.100353 0
0.288591 0.0996656 0
0.390184 0.111848 0
0.61033 0.111742 0
0.488809 0.116278 0
1.67175 0.0169692 0
-0.67 0.0169809 0
-0.955017 0.454039 0
1.95131 0.44569 0
1.74981 0.0168753 0
-0.75 0.0173205 0
-0.968032 0.266538 0
1.96871 0.266267 0
0.978232 0.0305687 0
0.0208675 0.026451 0
-0.150454 0.91842 0
1.13854 0.907437 0
1.45012 0.904365 0
-0.445923 0.908903 0
-0.853423 0.0157019 0
1.84881 0.016319 0
0.853689 0.915652 0
0.153944 0.912184 0
0.545151 0.914125 0
0.549913 0.115152 0
1.51 0.0173205 0
-0.506989 0.01651 0
1.27 0.0173205 0
1.14976 0.0173333 0
-0.268171 0.0206442 0
-0.150501 0.0153244 0
-0.391384 0.0153993 0
1.38886 0.0171544 0
-0.973694 0.161724 0
1.97441 0.162392 0
-0.945221 0.633523 0
1.94544 0.63312 0
1.91008 0.0186068 0
-0.91 0.0169616 0
-0.030664 0.0194327 0
1.03074 0.0165456 0
-0.966065 0.353575 0
1.96128 0.359765 0
1.93879 0.781254 0
-0.937057 0.781882 0
-0.980746 0.080709 0
1.9772 0.0760699 0
0.058735 0.0409372 0
0.355202 0.913001 0
0.86356 0.0661005 0
0.134223 0.0651111 0
0.941972 0.0397386 0
-0.653034 0.915003 0
1.65328 0.904589 0
0.770126 0.0881325 0
0.232946 0.0902008 0
0.330582 0.105648 0
0.670612 0.108365 0
0.428707 0.116145 0
1.80993 0.016629 0
-0.810168 0.0172178 0
-0.71 0.0173205 0
1.63047 0.0175504 0
1.70842 0.0169661 0
-0.628824 0.0181787 0
-0.949815 0.0133898 0
1.95 0.0173205 0
1.85542 0.907891 0
-0.85 0.913397 0
1.9833 0.0307692 0
-0.983315 0.0309709 0
-0.750025 0.916468 0
-0.701107 0.836904 0
-0.607741 0.836428 0
-0.656448 0.759827 0
-0.572936 0.758144 0
-0.61411 0.691195 0
-0.539534 0.689068 0
-0.578542 0.626111 0
-0.507461 0.624216 0
-0.544001 0.566638 0
-0.477696 0.564279 0
-0.511582 0.51001 0
-0.451689 0.507147 0
-0.481834 0.457732 0
-0.426137 0.454624 0
-0.453236 0.407539 0
-0.398845 0.406233 0
-0.507958 0.409496 0
-0.368427 0.460177 0
-0.344602 0.405209 0
-0.315696 0.447824 0
-0.294128 0.402169 0
-0.262844 0.444518 0
-0.241968 0.388746 0
-0.209878 0.439557 0
-0.185184 0.391135 0
-0.156687 0.437338 0
-0.133719 0.390776 0
-0.104405 0.434306 0
-0.0818745 0.388334 0
-0.0528785 0.431165 0
-0.0305984 0.385639 0
-0.00180552 0.427863 0
0.0194564 0.382608 0
0.0485809 0.42449 0
0.0701962 0.37973 0
0.0985483 0.421145 0
0.119893 0.377339 0
0.147837 0.417911 0
0.172552 0.36751 0
0.197018 0.412597 0
0.221203 0.37141 0
0.24512 0.409646 0
-0.48178 0.364657 0
-0.531053 0.364782 0
-0.0599102 0.344151 0
-0.324909 0.359566 0
0.266181 0.368462 0
0.292132 0.407649 0
0.311992 0.365779 0
0.338918 0.404821 0
0.357567 0.355909 0
0.384723 0.40053 0
0.404675 0.359681 0
0.430617 0.398558 0
0.450457 0.35827 0
0.474237 0.395182 0
0.496746 0.34898 0
0.520548 0.397931 0
0.542071 0.353121 0
0.566011 0.389914 0
0.585061 0.350856 0
0.609352 0.38696 0
0.629069 0.348168 0
0.655979 0.391217 0
0.67472 0.346182 0
0.699346 0.381414 0
0.719333 0.341965 0
0.743718 0.377547 0
0.764028 0.339036 0
0.788201 0.373582 0
0.807659 0.336101 0
0.832821 0.372249 0
0.852309 0.334017 0
0.877785 0.370339 0
0.897875 0.331141 0
0.922904 0.366281 0
0.943173 0.327335 0
0.968282 0.363358 0
0.989029 0.324222 0
1.01391 0.361511 0
1.03465 0.321428 0
1.05949 0.358447 0
1.08389 0.312052 0
1.10575 0.355104 0
1.12889 0.31562 0
1.15067 0.353235 0
1.17157 0.312819 0
1.19626 0.349369 0
1.21618 0.309863 0
1.2416 0.346914 0
1.26131 0.30715 0
1.28691 0.344312 0
1.30571 0.303752 0
1.33144 0.341222 0
1.35018 0.300911 0
1.3758 0.338308 0
1.39501 0.298931 0
1.42015 0.335235 0
1.43904 0.296349 0
1.46355 0.330194 0
1.48256 0.293347 0
1.50685 0.326967 0
1.52589 0.29055 0
1.54996 0.325305 0
1.56909 0.287929 0
[...]
CELL_DATA 3694
SCALARS rho float
LOOKUP_TABLE default
0.735767
0.67171
0.803795
0.813663
0.826787
0.805105
0.791652
0.799982
0.81052
0.802714
0.817827
0.81782
0.840486
0.789407
0.800772
0.751295
0.803266
0.802957
0.760839
0.850131
0.817573
0.823423
0.69911
0.803383
0.695714
0.83941
0.720344
0.806283
0.837061
0.798572
0.79876
0.718667
0.803492
0.824698
0.802815
0.797832
0.837328
0.823206
0.825086
0.778137
0.804652
0.817355
0.834396
0.825276
0.80514
0.813556
0.800837
0.67098
0.680084
0.722187
0.802056
0.802925
0.846908
0.802065
0.633118
0.838229
0.802637
0.81937
0.832646
0.754531
0.796286
0.815791
0.842278
0.799596
0.84283
0.831118
0.807591
0.814238
0.736454
0.858438
0.803144
0.807585
0.823446
0.80323
0.824808
0.802903
0.814172
0.799621
0.814447
0.802739
0.715247
0.818375
0.802291
0.776743
0.810309
0.799577
0.818719
0.716279
0.735907
0.825314
0.799555
0.802401
0.820503
0.815783
0.67564
0.80652
0.723628
0.818293
0.812929
0.840147
0.815255
0.763172
0.718126
0.810303
0.809747
0.815787
0.818273
0.807018
0.716361
0.814865
0.799267
0.72387
0.720506
0.823718
0.868004
0.802218
0.800126
0.812732
0.803131
0.802118
0.765765
0.82248
0.820094
0.770311
0.703985
0.758832
0.817917
0.777469
0.843686
0.702005
0.767269
0.800384
0.807931
0.777769
0.800948
0.795939
0.805457
0.802396
0.797966
0.815181
0.814311
0.71146
0.81747
0.8143
0.757943
0.673012
0.677822
0.798103
0.816623
0.813104
0.745204
0.802699
0.558574
0.778983
0.688373
0.764075
0.71415
0.784131
0.607924
0.793103
0.837511
0.645716
0.782192
0.737611
0.844347
0.556681
0.817249
0.800399
0.802898
0.674106
0.801546
0.663783
0.857967
0.543334
0.799894
0.637594
0.872643
0.833628
0.821053
0.745087
0.814629
0.721534
0.827302
0.737318
0.649449
0.803106
0.678487
0.823805
0.801685
0.851153
0.791805
0.703124
0.815522
0.798372
0.742796
0.853015
0.8114
0.848966
0.73713
0.743801
0.771163
0.794172
0.832041
0.834231
0.816871
0.814807
0.670436
0.804619
0.727885
0.8032
0.710613
0.797688
0.795661
0.801515
0.826112
0.764329
0.830761
0.749977
0.826054
0.820256
0.816581
0.853236
0.829455
0.7052
0.827448
0.684706
0.787877
0.810454
0.851321
0.830509
0.808839
0.794505
0.746146
0.818175
0.836974
0.817996
0.716124
0.80024
0.697295
0.792694
0.795518
0.810499
0.640003
0.807608
0.75836
0.797881
0.803103
0.759756
0.8159
0.865938
0.784163
0.691156
0.80444
0.801675
0.648108
0.79283
0.778098
0.802344
0.839157
0.815539
0.609688
0.815902
0.810124
0.797377
0.816148
0.802663
0.815374
0.814888
0.835623
0.75675
0.801865
0.835179
0.810512
0.803142
0.796152
0.815718
0.728263
0.589146
0.817433
0.829621
0.820911
0.804398
0.684079
0.816146
0.815898
0.81721
0.715079
0.79758
0.815811
0.547566
0.80283
0.869244
0.681192
0.757178
0.838962
0.827285
0.815566
0.706246
0.809434
0.815808
0.803825
0.801736
0.812145
0.836848
0.817397
0.767462
0.807039
0.803066
0.647492
0.821514
0.828272
0.672993
0.791512
0.819416
0.82086
0.680047
0.676733
0.821924
0.824525
0.809566
0.733199
0.707819
0.714529
0.733978
0.820824
0.777294
0.804174
0.733834
0.742033
0.82298
0.810759
0.819242
0.7704
0.815899
0.814551
0.817951
0.81658
0.802763
0.807607
0.80393
0.690689
0.802726
0.812839
0.697421
0.807237
0.805125
0.819983
0.785931
0.805957
0.791906
0.815698
0.821504
0.820713
0.79826
0.684429
0.71286
0.799444
0.810896
0.625375
0.803891
0.807566
0.817277
0.744008
0.804274
0.816962
0.812265
0.818408
0.805051
0.797351
0.765048
0.804397
0.843825
0.820142
0.705991
0.803713
0.704122
0.704211
0.803087
0.615932
0.770854
0.784906
0.808037
0.814235
0.825665
0.817708
0.813074
0.820723
0.828659
0.802838
0.765188
0.809774
0.660495
0.819787
0.757802
0.728889
0.690651
0.81469
0.854182
0.819812
0.808854
0.822198
0.81605
0.786992
0.759013
0.810228
0.693991
0.791272
0.843801
0.826602
0.800831
0.864236
0.813401
0.817053
0.818163
0.831049
0.632138
0.799186
0.732744
0.798014
0.734963
0.819415
0.808682
0.787733
0.681724
0.815581
0.830054
0.812619
0.802969
0.803793
0.82483
0.803869
0.712909
0.790377
0.80311
0.815526
0.814581
0.813252
0.8718
0.828245
0.809405
0.832498
0.683397
0.823907
0.837974
0.81687
0.628945
0.816031
0.809238
0.845797
0.821894
0.802953
0.594113
0.810152
0.697851
0.806128
0.802899
0.812316
0.81436
0.825231
0.805089
0.811239
0.816672
0.725886
0.863148
0.801984
0.850461
0.817028
0.577157
0.803914
0.796761
0.812299
0.81828
0.654777
0.802842
0.809665
0.813042
0.807139
0.793939
0.816324
0.817923
0.796735
0.804022
0.821962
0.837158
0.73187
0.806307
0.809794
0.813779
0.683417
0.805291
0.816555
0.799355
0.804153
0.530108
0.833333
0.764506
0.815478
0.818353
0.831277
0.846507
0.816747
0.812362
0.717787
0.799047
0.852587
0.809093
0.710753
0.800274
0.802625
0.872389
0.845611
0.819648
0.802075
0.809701
0.75606
0.816124
0.813946
0.586952
0.802715
0.731148
0.750367
0.80318
0.812119
0.781099
0.821499
0.815995
0.838256
0.816548
0.800521
0.809484
0.738444
0.737663
0.804194
0.808663
0.821568
0.802319
0.751946
0.690698
0.814368
0.815266
0.814034
0.596639
0.81445
0.81711
0.825219
0.803094
0.809191
0.820182
0.811864
0.839804
0.80302
0.812706
0.824156
0.816322
0.818163
0.821904
0.691236
0.784331
0.795306
0.803184
0.847932
0.802088
0.803174
0.636521
0.811287
0.814229
0.810841
0.819647
0.805818
0.813924
0.727798
0.84396
0.706734
0.800522
0.817984
0.80728
0.658535
0.679919
0.815542
0.805717
0.804345
0.786031
0.801563
0.829705
0.814139
0.805028
0.80224
0.812953
0.620983
0.81312
0.803151
0.701189
0.816135
0.62275
0.784667
0.816197
0.838064
0.806545
0.813292
0.793075
0.79603
0.804151
0.801471
0.812781
0.811203
0.809664
0.803275
0.757331
0.80412
0.81335
0.812791
0.816687
0.8123
0.816624
0.815715
0.834546
0.739534
0.806759
0.81636
0.80255
0.545241
0.684939
0.811404
0.814092
0.815963
0.780466
0.808493
0.812934
0.803295
0.79998
0.802838
0.820344
0.821195
0.815786
0.785474
0.808685
0.806304
0.568859
0.774242
0.758052
0.806874
0.736277
0.678979
0.797782
0.767879
0.828182
0.815758
0.815505
0.808417
0.542948
0.815757
0.585488
0.69875
0.825181
0.869893
0.742778
0.817226
0.85317
0.696227
0.816073
0.809076
0.814979
0.807366
0.657483
0.854852
0.737327
0.731683
0.803383
0.804646
0.799683
0.833483
0.815969
0.692262
0.815907
0.800328
0.69459
0.839905
0.798339
0.623687
0.77322
0.816401
0.808541
0.815615
0.784489
0.726889
0.770915
0.83718
0.689505
0.81667
0.81784
0.827423
0.765837
0.822622
0.69354
0.804652
0.661768
0.701563
0.800913
0.822922
0.78914
0.815422
0.816127
0.815983
0.81483
0.579729
0.802598
0.815805
0.743981
0.810134
0.816156
0.812595
0.714694
0.690502
0.741955
0.623218
0.807359
0.682948
0.816388
0.801973
0.815796
0.837127
0.687711
0.804939
0.820308
0.832764
0.739249
0.782429
0.76489
0.773583
0.812922
0.575445
0.674985
0.816067
0.805403
0.812882
0.804632
0.71437
0.780797
0.726045
0.760563
0.799829
0.832371
0.812354
0.692133
0.823937
0.818273
0.811675
0.688356
0.690955
0.683097
0.87235
0.816598
0.817209
0.610886
0.712201
0.642644
0.80358
0.8005
0.672902
0.812092
0.824807
0.750306
0.799724
0.731015
0.814906
0.693322
0.815576
0.810566
0.802049
0.803137
0.825878
0.744958
0.816483
0.815801
0.780581
0.558518
0.81652
0.811639
0.758579
0.814719
0.74735
0.803089
0.826835
0.664196
0.818783
0.802759
0.810046
0.586228
0.645071
0.736064
0.806466
0.812795
0.811556
0.821638
0.814979
0.816677
0.705263
0.802006
0.813811
0.826737
0.70434
0.727976
0.813042
0.812342
0.697554
0.814456
0.774978
0.700819
0.811978
0.69685
0.804809
0.663613
0.802913
0.729912
0.66869
0.811863
0.78636
0.745014
0.632437
0.840434
0.821151
0.815537
0.770927
0.815037
0.800254
0.786619
0.800116
0.80177
0.815752
0.733278
0.809788
0.800211
0.819409
0.600299
0.80157
0.81357
0.81451
0.812267
0.812805
0.746965
0.803489
0.764419
0.75147
0.819231
0.649567
0.819159
0.818295
0.803135
0.816223
0.817449
0.72241
0.768483
0.822667
0.785919
0.803819
0.816671
0.875254
0.818573
0.798942
0.817508
0.816096
0.794088
0.819129
0.817451
0.773608
0.70072
0.841597
0.7971
0.803227
0.822724
0.781653
0.818502
0.824873
0.819296
0.817575
0.870764
0.803157
0.805039
0.818908
0.803149
0.816156
0.807041
0.736974
0.81607
0.820325
0.753805
0.71069
0.815945
0.843481
0.82246
0.657809
0.822337
0.774003
0.808997
0.802099
0.730632
0.803155
0.798896
0.815609
0.817493
0.695792
0.706706
0.802357
0.787692
0.801819
0.825181
0.721591
0.815792
0.802578
0.800413
0.823745
0.816188
0.714675
0.81638
0.763626
0.802525
0.832708
0.803459
0.77401
0.797959
0.794673
0.815849
0.606672
0.815772
0.6933
0.681888
0.803558
0.820157
0.815807
0.802668
0.815884
0.808914
0.725508
0.787816
0.857427
0.803073
0.833827
0.80751
0.546913
0.762188
0.780585
0.649938
0.738823
0.581029
0.820471
0.814106
0.814449
0.802515
0.766934
0.686087
0.765235
0.752306
0.782296
0.815744
0.845068
0.819999
0.805911
0.819361
0.824081
0.80281
0.80779
0.706811
0.803272
0.756899
0.808759
0.798081
0.752548
0.822779
0.788612
0.803652
0.790469
0.841222
0.728561
0.801043
0.799676
0.804973
0.618693
0.816221
0.816109
0.822005
0.634375
0.815997
0.815982
0.798742
0.80393
0.793362
0.775989
0.806489
0.795217
0.816675
0.753064
0.804413
0.875469
0.763274
0.748826
0.807589
0.784069
0.842963
0.80051
0.780305
0.815984
0.798294
0.792689
0.808139
0.826077
0.836143
0.799812
0.576011
0.821001
0.828695
0.77229
0.831198
0.838565
0.823383
0.826748
0.807352
0.833325
0.827322
0.783882
0.809138
0.812088
0.806943
0.823238
0.803445
0.827411
0.793027
0.803414
0.805827
0.727759
0.807178
0.563381
0.818582
0.825813
0.82908
0.80596
0.818275
0.824421
0.819487
0.821373
0.839172
0.833529
0.788538
0.800482
0.82225
0.816038
0.817605
0.800407
0.806455
0.865796
0.820613
0.847694
0.815777
0.800787
0.824661
0.799833
0.833523
0.8141
0.815883
0.805346
0.727683
0.802982
0.804584
0.815799
0.803378
0.802485
0.822135
0.804665
0.804233
0.778157
0.819785
0.718295
0.814288
0.780994
0.759315
0.80362
0.81335
0.818996
0.716538
0.819908
0.815268
0.826591
0.817688
0.790149
0.816965
0.847441
0.833251
0.81536
0.811789
0.801673
0.744649
0.67989
0.815862
0.820677
0.77156
0.814994
0.807843
0.81245
0.805502
0.798682
0.776352
0.802449
0.800172
0.841756
0.818013
0.811504
0.806345
0.604658
0.732176
0.80221
0.783959
0.804181
0.816316
0.805995
0.816753
0.780017
0.815919
0.804868
0.811361
0.803799
0.818429
0.803186
0.816553
0.811522
0.816481
0.813433
0.718485
0.815044
0.816379
0.59857
0.815693
0.79683
0.802915
0.859025
0.818846
0.811353
0.872678
0.81597
0.816062
0.817478
0.819402
0.815844
0.764527
0.83032
0.801446
0.803194
0.815078
0.815952
0.817366
0.815847
0.813983
0.822956
0.803962
0.813078
0.809114
0.815299
0.820018
0.815875
0.812375
0.819802
0.808935
0.693877
0.660915
0.802661
0.808698
0.803355
0.811897
0.818917
0.817651
0.802914
0.803977
0.800673
0.800898
0.817473
0.844628
0.819119
0.811613
0.819034
0.81875
0.846205
0.818027
0.82117
0.785757
0.816385
0.8068
0.801419
0.792098
0.81131
0.819055
0.815709
0.815824
0.836012
0.806615
0.813436
0.817179
0.821595
0.803517
0.803241
0.805518
0.811571
0.815803
0.801605
0.803546
0.817522
0.822535
0.800897
0.632805
0.804254
0.797254
0.817349
0.798637
0.802745
0.748808
0.841169
0.802741
0.799833
0.83517
0.830146
0.810256
0.826658
0.800546
0.818428
0.817911
0.81926
0.803603
0.818852
0.729589
0.822799
0.811515
0.800193
0.813109
0.821037
0.799146
0.803996
0.782915
0.815172
0.816082
0.816181
0.819049
0.806424
0.817667
0.816422
0.826363
0.821999
0.838017
0.805966
0.695902
0.818476
0.840848
0.82029
0.804639
0.800102
0.803386
0.816711
0.814147
0.8166
0.743995
0.739357
0.800819
0.802949
0.816285
0.817087
0.799268
0.65498
0.708953
0.808018
0.768912
0.816487
0.703918
0.803041
0.728683
0.80318
0.820049
0.803114
0.817881
0.813411
0.798556
0.808607
0.793973
0.829848
0.816205
0.801273
0.803509
0.816426
0.822106
0.75009
0.823019
0.803726
0.783115
0.816088
0.803836
0.810577
0.815365
0.815689
0.835626
0.793227
0.799052
0.815973
0.759404
0.806646
0.815488
0.800986
0.81653
0.841263
0.802288
0.843502
0.809045
0.790727
0.812508
0.802609
0.852073
0.788454
0.803142
0.816617
0.831984
0.808361
0.814361
0.816318
0.802843
0.802678
0.825955
0.783066
0.814911
0.815935
0.64746
0.816127
0.71323
0.817615
0.838534
0.824886
0.803993
0.81522
0.815845
0.726363
0.815431
0.800918
0.801574
0.800903
0.816292
0.864064
0.801264
0.801036
0.785493
0.840963
0.827956
0.82004
0.81378
0.747276
0.803888
0.803308
0.731315
0.799538
0.714976
0.811024
0.800906
0.677226
0.88041
0.702997
0.772166
0.801406
0.744118
0.808352
0.798993
0.803017
0.661298
0.796731
0.784184
0.799062
0.730252
0.819164
0.82287
0.884715
0.809428
0.831434
0.646133
0.800029
0.787227
0.745469
0.752054
0.769697
0.707291
0.803094
0.799385
0.803169
0.764082
0.628423
0.81143
0.614432
0.821447
0.823041
0.811474
0.736838
0.812343
0.795911
0.819489
0.782882
0.807673
0.79712
0.810507
0.717255
0.801494
0.723136
0.80134
0.798833
0.68805
0.803648
0.815777
0.815829
0.803076
0.761661
0.815575
0.731744
0.69146
0.802306
0.815832
0.874629
0.815746
0.815031
0.880744
0.865639
0.831118
0.716976
0.801992
0.811869
0.821424
0.798397
0.683008
0.723231
0.678535
0.802346
0.703097
0.768799
0.799444
0.620213
0.689678
0.836324
0.774071
0.746008
0.83079
0.759772
0.769126
0.647577
0.732166
0.785538
0.819982
0.869701
0.838033
0.816092
0.794987
0.799707
0.71675
0.815983
0.694811
0.796983
0.815823
0.783445
0.762992
0.80201
0.783222
0.802204
0.800765
0.812201
0.811057
0.867348
0.582356
0.54296
0.802404
0.807314
0.699456
0.810086
0.802804
0.837777
0.803471
0.802364
0.569937
0.561116
0.808368
0.812876
0.815912
0.728075
0.803135
0.810829
0.685876
0.811938
0.802691
0.814486
0.803152
0.800835
0.802241
0.814934
0.802924
0.816984
0.803248
0.862301
0.815291
0.802492
0.720888
0.671859
0.815883
0.588095
0.813032
0.810096
0.836143
0.81429
0.803059
0.810723
0.81398
0.813598
0.815605
0.801623
0.854082
0.856714
0.802373
0.6577
0.808835
0.822369
0.799415
0.803151
0.820299
0.735479
0.80322
0.825471
0.821607
0.816076
0.815742
0.76709
0.745252
0.800919
0.834274
0.802949
0.814614
0.804598
0.803811
0.805128
0.814606
0.808922
0.79883
0.806856
0.806117
0.824587
0.806666
0.80626
0.817949
0.806943
0.803347
0.813707
0.80293
0.802816
0.805789
0.807915
0.813839
0.773893
0.805313
0.802682
0.815768
0.799763
0.803739
0.806845
0.832116
0.805015
0.653027
0.800823
0.815802
0.804642
0.814743
0.763435
0.815599
0.751326
0.80365
0.802198
0.804044
0.818973
0.851283
0.804349
0.803234
0.746759
0.829871
0.815731
0.820726
0.824907
0.815128
0.737752
0.818472
0.723829
0.80107
0.827878
0.802403
0.702368
0.826134
0.815055
0.816793
0.824415
0.816074
0.773564
0.817552
0.652212
0.712629
0.81582
0.82292
0.679147
0.819657
0.659767
0.821748
0.806928
0.81708
0.803153
0.805719
0.815218
0.831786
0.82509
0.672405
0.813802
0.84231
0.781639
0.846551
0.800249
0.708009
0.838799
0.819874
0.835851
0.690938
0.686692
0.833193
0.6616
0.830918
0.815821
0.828906
0.806298
0.827206
0.787807
0.825719
0.824345
0.709542
0.86587
0.823167
0.822174
0.823611
0.759876
0.802838
0.528645
0.80363
0.821312
0.814233
0.80477
0.826256
0.815806
0.798138
0.820555
0.80298
0.683941
0.792489
0.834295
0.815145
0.717528
0.799756
0.821569
0.579039
0.815474
0.816258
0.80267
0.809942
0.72754
0.81824
0.80301
0.803475
0.796019
0.794498
0.797963
0.794686
0.80326
0.813203
0.81934
0.814768
0.574827
0.893117
0.707999
0.797916
0.740736
0.791516
0.81578
0.816355
0.816255
0.606501
0.819437
0.817232
0.803958
0.818396
0.836786
0.839608
0.782975
0.798448
0.799506
0.726939
0.753658
0.815966
0.764558
0.815204
0.81956
0.815534
0.813525
0.801936
0.776017
0.812086
0.816742
0.7292
0.810631
0.816537
0.818659
0.807858
0.80951
0.765515
0.815373
0.808237
0.803171
0.807477
0.618628
0.806546
0.804381
0.805965
0.821777
0.845675
0.804755
0.77503
0.805327
0.771709
0.820754
0.806374
0.813556
0.815791
0.850301
0.803406
0.744733
0.819811
0.815966
0.728014
0.801068
0.816876
0.758679
0.813438
0.57161
0.806642
0.68666
0.801373
0.811432
0.813131
0.817817
0.804229
0.816175
0.81826
0.801139
0.804525
0.84457
0.816785
0.796277
0.816726
0.802161
0.801727
0.800385
0.80136
0.807606
0.815377
0.801719
0.770806
0.818966
0.813244
0.808899
0.815799
0.588882
0.803407
0.813704
0.816001
0.788116
0.74923
0.718356
0.813292
0.815643
0.826348
0.789999
0.605007
0.772073
0.643016
0.817352
0.744906
0.813021
0.830402
0.697843
0.799814
0.834193
0.750671
0.800614
0.803159
0.816182
0.802668
0.699782
0.800799
0.552274
0.801893
0.802499
0.802216
0.597221
0.802928
0.803451
0.803189
0.729267
0.738184
0.803434
0.776967
0.816312
0.722983
0.707605
0.815756
0.80136
0.75326
0.854332
0.814618
0.813072
0.670593
0.802813
0.800648
0.800569
0.802487
0.658329
0.803286
0.816002
0.65573
0.686521
0.805875
0.790894
0.815869
0.823452
0.815667
0.81588
0.817044
0.803666
0.815927
0.815595
0.81372
0.829374
0.802621
0.801886
0.810473
0.728747
0.809603
0.815451
0.862957
0.811328
0.639534
0.775424
0.802247
0.776352
0.8173
0.812456
0.830277
0.814197
0.86476
0.802123
0.815242
0.595942
0.81577
0.834102
0.802916
0.815041
0.626688
0.815949
0.802701
0.817257
0.80226
0.818082
0.816584
0.754525
0.803584
0.803126
0.835375
0.862095
0.819696
0.816732
0.724543
0.742866
0.802544
0.803073
0.812168
0.8186
0.799681
0.802901
0.81998
0.807034
0.807575
0.739116
0.802734
0.818014
0.814434
0.768718
0.760402
0.812271
0.796474
0.857223
0.719531
0.834858
0.811549
0.710599
0.799751
0.815098
0.787475
0.800783
0.799749
0.81573
0.777944
0.774453
0.81411
0.696597
0.798813
0.766227
0.815612
0.817853
0.80208
0.788118
0.739386
0.753094
0.774466
0.815363
0.819475
0.806292
0.667734
0.802585
0.796249
0.777889
0.809767
0.813659
0.799601
0.803332
0.637368
0.804169
0.804786
0.851578
0.803725
0.809186
0.833615
0.80546
0.810715
0.852473
0.615719
0.804057
0.816788
0.805429
0.805041
0.805735
0.8046
0.804706
0.804217
0.805824
0.806474
0.725619
0.805718
0.80716
0.807194
0.815699
0.808281
0.818927
0.803106
0.803526
0.815344
0.815493
0.810656
0.803337
0.816254
0.813306
0.81022
0.816644
0.709622
0.814618
0.831844
0.815636
0.854538
0.750316
0.80861
0.815762
0.801034
0.615877
0.80327
0.772847
0.822374
0.628543
0.81625
0.829882
0.815408
0.812293
0.802146
0.827255
0.81952
0.803664
0.76531
0.817662
0.758687
0.550184
0.815126
0.693258
0.696501
0.820424
0.828028
0.827875
0.81728
0.847818
0.580308
0.877053
0.805276
0.826348
0.8247
0.813609
0.683568
0.815617
0.823183
0.817012
0.801238
0.773683
0.822299
0.568444
0.813575
0.843494
0.803149
0.839956
0.821966
0.80326
0.671425
0.843527
0.820929
0.83679
0.80099
0.814304
0.803056
0.834175
0.802861
0.814255
0.831768
0.82964
0.822059
0.824761
0.830951
0.738708
0.664249
0.569268
0.827811
0.826302
0.767712
0.757107
0.806957
0.824888
0.846952
0.594263
0.823621
0.822544
0.821647
0.820147
0.803986
0.820819
0.661338
0.74522
0.82086
0.797602
0.870352
0.890248
0.776665
0.804483
0.670563
0.83564
0.731978
0.720622
0.819174
0.801703
0.783623
0.665029
0.802209
0.815801
0.788986
0.713937
0.80105
0.817197
0.798052
0.680594
0.823772
0.792878
0.816417
0.833649
0.815199
0.796272
0.816832
0.816607
0.785931
0.804062
0.712833
0.840742
0.793139
0.811676
0.782113
0.804457
0.699123
0.800882
0.813536
0.812169
0.811003
0.809485
0.808393
0.807635
0.806011
0.804896
0.806817
0.726958
0.805447
0.801486
0.795958
0.803333
0.844583
0.71704
0.803217
0.776246
0.88409
0.854625
0.798041
0.725056
0.803441
0.797722
0.720445
0.803346
0.801819
0.735548
0.80369
0.790544
0.797509
0.801202
0.737943
0.780364
0.804982
0.748301
0.76454
0.770176
0.801521
0.815365
0.80864
0.759521
0.751564
0.79955
0.814496
0.803324
0.793353
0.801168
0.928634
0.860744
0.818249
0.815673
0.72317
0.844633
0.748192
0.826193
0.816834
0.898233
0.815819
0.797349
0.590637
0.81584
0.797466
0.815864
0.797885
0.84579
0.526147
0.833203
0.801567
0.805705
0.804907
0.803876
0.856114
0.801352
0.817987
0.702372
0.666925
0.667638
0.815898
0.507864
0.79787
0.723026
0.842048
0.814929
0.560421
0.802451
0.815307
0.815003
0.719749
0.801816
0.527087
0.797409
0.816012
0.797531
0.802758
0.797771
0.81616
0.834195
0.803249
0.798478
0.81652
0.798744
0.816659
0.814219
0.79903
0.81682
0.814476
0.817008
0.799144
0.81722
0.680457
0.79934
0.817459
0.803077
0.799532
0.817701
0.699459
0.815818
0.7984
0.815801
0.798545
0.810632
0.838542
0.861543
0.801023
0.800619
0.818607
0.815452
0.800261
0.799885
0.863772
0.812613
0.81829
0.811086
0.850147
0.828968
0.817263
0.825881
0.84654
0.815766
0.801751
0.819808
0.811978
0.80218
0.815638
0.80018
0.807877
0.783231
0.806981
0.815779