# vtk DataFile Version 1.0
unstructured grid
ascii
DATASET UNSTRUCTURED_GRID
points 404 float
-0.5 -0.0025 0
0.5 -0.0025 0
0.5 0.0025 0
-0.5 0.0025 0
-0.5 -0.0025 0.005
0.5 -0.0025 0.005
0.5 0.0025 0.005
-0.5 0.0025 0.005
-0.49 -0.0025 0
-0.48 -0.0025 0
-0.47 -0.0025 0
-0.46 -0.0025 0
-0.45 -0.0025 0
-0.44 -0.0025 0
-0.43 -0.0025 0
-0.42 -0.0025 0
-0.41 -0.0025 0
-0.4 -0.0025 0
-0.39 -0.0025 0
-0.38 -0.0025 0
-0.37 -0.0025 0
-0.36 -0.0025 0
-0.35 -0.0025 0
-0.34 -0.0025 0
-0.33 -0.0025 0
-0.32 -0.0025 0
-0.31 -0.0025 0
-0.3 -0.0025 0
-0.29 -0.0025 0
-0.28 -0.0025 0
-0.27 -0.0025 0
-0.26 -0.0025 0
-0.25 -0.0025 0
-0.24 -0.0025 0
-0.23 -0.0025 0
-0.22 -0.0025 0
-0.21 -0.0025 0
-0.2 -0.0025 0
-0.19 -0.0025 0
-0.18 -0.0025 0
-0.17 -0.0025 0
-0.16 -0.0025 0
-0.15 -0.0025 0
-0.14 -0.0025 0
-0.13 -0.0025 0
-0.12 -0.0025 0
-0.11 -0.0025 0
-0.1 -0.0025 0
-0.09 -0.0025 0
-0.08 -0.0025 0
-0.07 -0.0025 0
-0.06 -0.0025 0
-0.05 -0.0025 0
-0.04 -0.0025 0
-0.03 -0.0025 0
-0.02 -0.0025 0
-0.01 -0.0025 0
-1.37612e-12 -0.0025 0
0.01 -0.0025 0
0.02 -0.0025 0
0.03 -0.0025 0
0.04 -0.0025 0
0.05 -0.0025 0
0.06 -0.0025 0
0.07 -0.0025 0
0.08 -0.0025 0
0.09 -0.0025 0
0.1 -0.0025 0
0.11 -0.0025 0
0.12 -0.0025 0
0.13 -0.0025 0
0.14 -0.0025 0
0.15 -0.0025 0
0.16 -0.0025 0
0.17 -0.0025 0
0.18 -0.0025 0
0.19 -0.0025 0
0.2 -0.0025 0
0.21 -0.0025 0
0.22 -0.0025 0
0.23 -0.0025 0
0.24 -0.0025 0
0.25 -0.0025 0
0.26 -0.0025 0
0.27 -0.0025 0
0.28 -0.0025 0
0.29 -0.0025 0
0.3 -0.0025 0
0.31 -0.0025 0
0.32 -0.0025 0
0.33 -0.0025 0
0.34 -0.0025 0
0.35 -0.0025 0
0.36 -0.0025 0
0.37 -0.0025 0
0.38 -0.0025 0
0.39 -0.0025 0
0.4 -0.0025 0
0.41 -0.0025 0
0.42 -0.0025 0
0.43 -0.0025 0
0.44 -0.0025 0
0.45 -0.0025 0
0.46 -0.0025 0
0.47 -0.0025 0
0.48 -0.0025 0
0.49 -0.0025 0
0.49 0.0025 0
0.48 0.0025 0
0.47 0.0025 0
0.46 0.0025 0
0.45 0.0025 0
0.44 0.0025 0
0.43 0.0025 0
0.42 0.0025 0
0.41 0.0025 0
0.4 0.0025 0
0.39 0.0025 0
0.38 0.0025 0
0.37 0.0025 0
0.36 0.0025 0
0.35 0.0025 0
0.34 0.0025 0
0.33 0.0025 0
0.32 0.0025 0
0.31 0.0025 0
0.3 0.0025 0
0.29 0.0025 0
0.28 0.0025 0
0.27 0.0025 0
0.26 0.0025 0
0.25 0.0025 0
0.24 0.0025 0
0.23 0.0025 0
0.22 0.0025 0
0.21 0.0025 0
0.2 0.0025 0
0.19 0.0025 0
0.18 0.0025 0
0.17 0.0025 0
0.16 0.0025 0
0.15 0.0025 0
0.14 0.0025 0
0.13 0.0025 0
0.12 0.0025 0
0.11 0.0025 0
0.1 0.0025 0
0.09 0.0025 0
0.08 0.0025 0
0.07 0.0025 0
0.06 0.0025 0
0.05 0.0025 0
0.04 0.0025 0
0.03 0.0025 0
0.02 0.0025 0
0.01 0.0025 0
1.37612e-12 0.0025 0
-0.01 0.0025 0
-0.02 0.0025 0
-0.03 0.0025 0
-0.04 0.0025 0
-0.05 0.0025 0
-0.06 0.0025 0
-0.07 0.0025 0
-0.08 0.0025 0
-0.09 0.0025 0
-0.1 0.0025 0
-0.11 0.0025 0
-0.12 0.0025 0
-0.13 0.0025 0
-0.14 0.0025 0
-0.15 0.0025 0
-0.16 0.0025 0
-0.17 0.0025 0
-0.18 0.0025 0
-0.19 0.0025 0
-0.2 0.0025 0
-0.21 0.0025 0
-0.22 0.0025 0
-0.23 0.0025 0
-0.24 0.0025 0
-0.25 0.0025 0
-0.26 0.0025 0
-0.27 0.0025 0
-0.28 0.0025 0
-0.29 0.0025 0
-0.3 0.0025 0
-0.31 0.0025 0
-0.32 0.0025 0
-0.33 0.0025 0
-0.34 0.0025 0
-0.35 0.0025 0
-0.36 0.0025 0
-0.37 0.0025 0
-0.38 0.0025 0
-0.39 0.0025 0
-0.4 0.0025 0
-0.41 0.0025 0
-0.42 0.0025 0
-0.43 0.0025 0
-0.44 0.0025 0
-0.45 0.0025 0
-0.46 0.0025 0
-0.47 0.0025 0
-0.48 0.0025 0
-0.49 0.0025 0
-0.49 -0.0025 0.005
-0.48 -0.0025 0.005
-0.47 -0.0025 0.005
-0.46 -0.0025 0.005
-0.45 -0.0025 0.005
-0.44 -0.0025 0.005
-0.43 -0.0025 0.005
-0.42 -0.0025 0.005
-0.41 -0.0025 0.005
-0.4 -0.0025 0.005
-0.39 -0.0025 0.005
-0.38 -0.0025 0.005
-0.37 -0.0025 0.005
-0.36 -0.0025 0.005
-0.35 -0.0025 0.005
-0.34 -0.0025 0.005
-0.33 -0.0025 0.005
-0.32 -0.0025 0.005
-0.31 -0.0025 0.005
-0.3 -0.0025 0.005
-0.29 -0.0025 0.005
-0.28 -0.0025 0.005
-0.27 -0.0025 0.005
-0.26 -0.0025 0.005
-0.25 -0.0025 0.005
-0.24 -0.0025 0.005
-0.23 -0.0025 0.005
-0.22 -0.0025 0.005
-0.21 -0.0025 0.005
-0.2 -0.0025 0.005
-0.19 -0.0025 0.005
-0.18 -0.0025 0.005
-0.17 -0.0025 0.005
-0.16 -0.0025 0.005
-0.15 -0.0025 0.005
-0.14 -0.0025 0.005
-0.13 -0.0025 0.005
-0.12 -0.0025 0.005
-0.11 -0.0025 0.005
-0.1 -0.0025 0.005
-0.09 -0.0025 0.005
-0.08 -0.0025 0.005
-0.07 -0.0025 0.005
-0.06 -0.0025 0.005
-0.05 -0.0025 0.005
-0.04 -0.0025 0.005
-0.03 -0.0025 0.005
-0.02 -0.0025 0.005
-0.01 -0.0025 0.005
-1.37612e-12 -0.0025 0.005
0.01 -0.0025 0.005
0.02 -0.0025 0.005
0.03 -0.0025 0.005
0.04 -0.0025 0.005
0.05 -0.0025 0.005
0.06 -0.0025 0.005
0.07 -0.0025 0.005
0.08 -0.0025 0.005
0.09 -0.0025 0.005
0.1 -0.0025 0.005
0.11 -0.0025 0.005
0.12 -0.0025 0.005
0.13 -0.0025 0.005
0.14 -0.0025 0.005
0.15 -0.0025 0.005
0.16 -0.0025 0.005
0.17 -0.0025 0.005
0.18 -0.0025 0.005
0.19 -0.0025 0.005
0.2 -0.0025 0.005
0.21 -0.0025 0.005
0.22 -0.0025 0.005
0.23 -0.0025 0.005
0.24 -0.0025 0.005
0.25 -0.0025 0.005
0.26 -0.0025 0.005
0.27 -0.0025 0.005
0.28 -0.0025 0.005
0.29 -0.0025 0.005
0.3 -0.0025 0.005
0.31 -0.0025 0.005
0.32 -0.0025 0.005
0.33 -0.0025 0.005
0.34 -0.0025 0.005
0.35 -0.0025 0.005
0.36 -0.0025 0.005
0.37 -0.0025 0.005
0.38 -0.0025 0.005
0.39 -0.0025 0.005
0.4 -0.0025 0.005
0.41 -0.0025 0.005
0.42 -0.0025 0.005
0.43 -0.0025 0.005
0.44 -0.0025 0.005
0.45 -0.0025 0.005
0.46 -0.0025 0.005
0.47 -0.0025 0.005
0.48 -0.0025 0.005
0.49 -0.0025 0.005
0.49 0.0025 0.005
0.48 0.0025 0.005
0.47 0.0025 0.005
0.46 0.0025 0.005
0.45 0.0025 0.005
0.44 0.0025 0.005
0.43 0.0025 0.005
0.42 0.0025 0.005
0.41 0.0025 0.005
0.4 0.0025 0.005
0.39 0.0025 0.005
0.38 0.0025 0.005
0.37 0.0025 0.005
0.36 0.0025 0.005
0.35 0.0025 0.005
0.34 0.0025 0.005
0.33 0.0025 0.005
0.32 0.0025 0.005
0.31 0.0025 0.005
0.3 0.0025 0.005
0.29 0.0025 0.005
0.28 0.0025 0.005
0.27 0.0025 0.005
0.26 0.0025 0.005
0.25 0.0025 0.005
0.24 0.0025 0.005
0.23 0.0025 0.005
0.22 0.0025 0.005
0.21 0.0025 0.005
0.2 0.0025 0.005
0.19 0.0025 0.005
0.18 0.0025 0.005
0.17 0.0025 0.005
0.16 0.0025 0.005
0.15 0.0025 0.005
0.14 0.0025 0.005
0.13 0.0025 0.005
0.12 0.0025 0.005
0.11 0.0025 0.005
0.1 0.0025 0.005
0.09 0.0025 0.005
0.08 0.0025 0.005
0.07 0.0025 0.005
0.06 0.0025 0.005
0.05 0.0025 0.005
0.04 0.0025 0.005
0.03 0.0025 0.005
0.02 0.0025 0.005
0.01 0.0025 0.005
1.37612e-12 0.0025 0.005
-0.01 0.0025 0.005
-0.02 0.0025 0.005
-0.03 0.0025 0.005
-0.04 0.0025 0.005
-0.05 0.0025 0.005
-0.06 0.0025 0.005
-0.07 0.0025 0.005
-0.08 0.0025 0.005
-0.09 0.0025 0.005
-0.1 0.0025 0.005
-0.11 0.0025 0.005
-0.12 0.0025 0.005
-0.13 0.0025 0.005
-0.14 0.0025 0.005
-0.15 0.0025 0.005
-0.16 0.0025 0.005
-0.17 0.0025 0.005
-0.18 0.0025 0.005
-0.19 0.0025 0.005
-0.2 0.0025 0.005
-0.21 0.0025 0.005
-0.22 0.0025 0.005
-0.23 0.0025 0.005
-0.24 0.0025 0.005
-0.25 0.0025 0.005
-0.26 0.0025 0.005
-0.27 0.0025 0.005
-0.28 0.0025 0.005
-0.29 0.0025 0.005
-0.3 0.0025 0.005
-0.31 0.0025 0.005
-0.32 0.0025 0.005
-0.33 0.0025 0.005
-0.34 0.0025 0.005
-0.35 0.0025 0.005
-0.36 0.0025 0.005
-0.37 0.0025 0.005
-0.38 0.0025 0.005
-0.39 0.0025 0.005
-0.4 0.0025 0.005
-0.41 0.0025 0.005
-0.42 0.0025 0.005
-0.43 0.0025 0.005
-0.44 0.0025 0.005
-0.45 0.0025 0.005
-0.46 0.0025 0.005
-0.47 0.0025 0.005
-0.48 0.0025 0.005
-0.49 0.0025 0.005
cells 100 800
8 0 8 205 3 4 206 403 7 
8 8 9 204 205 206 207 402 403 
8 9 10 203 204 207 208 401 402 
8 10 11 202 203 208 209 400 401 
8 11 12 201 202 209 210 399 400 
8 12 13 200 201 210 211 398 399 
8 13 14 199 200 211 212 397 398 
8 14 15 198 199 212 213 396 397 
8 15 16 197 198 213 214 395 396 
8 16 17 196 197 214 215 394 395 
8 17 18 195 196 215 216 393 394 
8 18 19 194 195 216 217 392 393 
8 19 20 193 194 217 218 391 392 
8 20 21 192 193 218 219 390 391 
8 21 22 191 192 219 220 389 390 
8 22 23 190 191 220 221 388 389 
8 23 24 189 190 221 222 387 388 
8 24 25 188 189 222 223 386 387 
8 25 26 187 188 223 224 385 386 
8 26 27 186 187 224 225 384 385 
8 27 28 185 186 225 226 383 384 
8 28 29 184 185 226 227 382 383 
8 29 30 183 184 227 228 381 382 
8 30 31 182 183 228 229 380 381 
8 31 32 181 182 229 230 379 380 
8 32 33 180 181 230 231 378 379 
8 33 34 179 180 231 232 377 378 
8 34 35 178 179 232 233 376 377 
8 35 36 177 178 233 234 375 376 
8 36 37 176 177 234 235 374 375 
8 37 38 175 176 235 236 373 374 
8 38 39 174 175 236 237 372 373 
8 39 40 173 174 237 238 371 372 
8 40 41 172 173 238 239 370 371 
8 41 42 171 172 239 240 369 370 
8 42 43 170 171 240 241 368 369 
8 43 44 169 170 241 242 367 368 
8 44 45 168 169 242 243 366 367 
8 45 46 167 168 243 244 365 366 
8 46 47 166 167 244 245 364 365 
8 47 48 165 166 245 246 363 364 
8 48 49 164 165 246 247 362 363 
8 49 50 163 164 247 248 361 362 
8 50 51 162 163 248 249 360 361 
8 51 52 161 162 249 250 359 360 
8 52 53 160 161 250 251 358 359 
8 53 54 159 160 251 252 357 358 
8 54 55 158 159 252 253 356 357 
8 55 56 157 158 253 254 355 356 
8 56 57 156 157 254 255 354 355 
8 57 58 155 156 255 256 353 354 
8 58 59 154 155 256 257 352 353 
8 59 60 153 154 257 258 351 352 
8 60 61 152 153 258 259 350 351 
8 61 62 151 152 259 260 349 350 
8 62 63 150 151 260 261 348 349 
8 63 64 149 150 261 262 347 348 
8 64 65 148 149 262 263 346 347 
8 65 66 147 148 263 264 345 346 
8 66 67 146 147 264 265 344 345 
8 67 68 145 146 265 266 343 344 
8 68 69 144 145 266 267 342 343 
8 69 70 143 144 267 268 341 342 
8 70 71 142 143 268 269 340 341 
8 71 72 141 142 269 270 339 340 
8 72 73 140 141 270 271 338 339 
8 73 74 139 140 271 272 337 338 
8 74 75 138 139 272 273 336 337 
8 75 76 137 138 273 274 335 336 
8 76 77 136 137 274 275 334 335 
8 77 78 135 136 275 276 333 334 
8 78 79 134 135 276 277 332 333 
8 79 80 133 134 277 278 331 332 
8 80 81 132 133 278 279 330 331 
8 81 82 131 132 279 280 329 330 
8 82 83 130 131 280 281 328 329 
8 83 84 129 130 281 282 327 328 
8 84 85 128 129 282 283 326 327 
8 85 86 127 128 283 284 325 326 
8 86 87 126 127 284 285 324 325 
8 87 88 125 126 285 286 323 324 
8 88 89 124 125 286 287 322 323 
8 89 90 123 124 287 288 321 322 
8 90 91 122 123 288 289 320 321 
8 91 92 121 122 289 290 319 320 
8 92 93 120 121 290 291 318 319 
8 93 94 119 120 291 292 317 318 
8 94 95 118 119 292 293 316 317 
8 95 96 117 118 293 294 315 316 
8 96 97 116 117 294 295 314 315 
8 97 98 115 116 295 296 313 314 
8 98 99 114 115 296 297 312 313 
8 99 100 113 114 297 298 311 312 
8 100 101 112 113 298 299 310 311 
8 101 102 111 112 299 300 309 310 
8 102 103 110 111 300 301 308 309 
8 103 104 109 110 301 302 307 308 
8 104 105 108 109 302 303 306 307 
8 105 106 107 108 303 304 305 306 
8 106 1 2 107 304 5 6 305 
cell_types 100
12
12
12
12
12
12
12
12
12
12
12
12
12
12
12
12
12
12
12
12
12
12
12
12
12
12
12
12
12
12
12
12
12
12
12
12
12
12
12
12
12
12
12
12
12
12
12
12
12
12
12
12
12
12
12
12
12
12
12
12
12
12
12
12
12
12
12
12
12
12
12
12
12
12
12
12
12
12
12
12
12
12
12
12
12
12
12
12
12
12
12
12
12
12
12
12
12
12
12
12
CELL_DATA 100
SCALARS rho float
LOOKUP_TABLE default
1
1
1
1
1
1
1
1
1
1
1
1
1
1
1
1
1
1
1
1
1
1
1
1
1
1
1
1
1
1
1
1
1
1
1
1
1
1
1
1
1
1
1
1
1
1
1
1
1
0.995828
0.964495
0.964495
0.964495
0.964495
0.964495
0.964495
0.964495
0.964495
0.964495
0.964495
0.964495
0.964495
0.964495
0.964495
0.964495
0.964495
0.964495
0.964495
0.964495
0.964495
0.964495
0.964495
0.964495
0.964495
0.964495
0.964495
0.964495
0.964495
0.964495
0.964495
0.964495
0.964495
0.964495
0.964495
0.964495
0.964495
0.964495
0.964495
0.964495
0.964495
0.964495
0.964495
0.964495
0.964495
0.964495
0.964495
0.964495
0.964495
0.964495
0.964495
SCALARS u float 3
LOOKUP_TABLE default
0.75 0 0
0.75 0 0
0.75 0 0
0.75 0 0
0.75 0 0
0.75 0 0
0.75 0 0
0.75 0 0
0.75 0 0
0.75 0 0
0.75 0 0
0.75 0 0
0.75 0 0
0.75 0 0
0.75 0 0
0.75 0 0
0.75 0 0
0.75 0 0
0.75 0 0
0.75 0 0
0.75 0 0
0.75 0 0
0.75 0 0
0.75 0 0
0.75 0 0
0.75 0 0
0.75 0 0
0.75 0 0
0.75 0 0
0.75 0 0
0.75 0 0
0.75 0 0
0.75 0 0
0.75 0 0
0.75 0 0
0.75 0 0
0.75 0 0
0.75 0 0
0.75 0 0
0.75 0 0
0.75 0 0
0.75 0 0
0.75 0 0
0.75 0 0
0.75 0 0
0.75 0 0
0.75 0 0
0.75 0 0
0.75 0 0
0.752649 -5.43033e-16 0
0.772747 -1.10748e-11 0
0.772747 -1.10748e-11 0
0.772747 -1.10748e-11 0
0.772747 -1.10748e-11 0
0.772747 -1.10748e-11 0
0.772747 -1.10748e-11 0
0.772747 -1.10748e-11 0
0.772747 -1.10748e-11 0
0.772747 -1.10748e-11 0
0.772747 -1.10748e-11 0
0.772747 -1.10748e-11 0
0.772747 -1.10748e-11 0
0.772747 -1.10748e-11 0
0.772747 -1.10748e-11 0
0.772747 -1.10748e-11 0
0.772747 -1.10748e-11 0
0.772747 -1.10748e-11 0
0.772747 -1.10748e-11 0
0.772747 -1.10748e-11 0
0.772747 -1.10748e-11 0
0.772747 -1.10748e-11 0
0.772747 -1.10748e-11 0
0.772747 -1.10748e-11 0
0.772747 -1.10748e-11 0
0.772747 -1.10748e-11 0
0.772747 -1.10748e-11 0
0.772747 -1.10748e-11 0
0.772747 -1.10748e-11 0
0.772747 -1.10748e-11 0
0.772747 -1.10748e-11 0
0.772747 -1.10748e-11 0
0.772747 -1.10748e-11 0
0.772747 -1.10748e-11 0
0.772747 -1.10748e-11 0
0.772747 -1.10748e-11 0
0.772747 -1.10748e-11 0
0.772747 -1.10748e-11 0
0.772747 -1.10748e-11 0
0.772747 -1.10748e-11 0
0.772747 -1.10748e-11 0
0.772747 -1.10748e-11 0
0.772747 -1.10748e-11 0
0.772747 -1.10748e-11 0
0.772747 -1.10748e-11 0
0.772747 -1.10748e-11 0
0.772747 -1.10748e-11 0
0.772747 -1.10748e-11 0
0.772747 -1.10748e-11 0
0.772747 -1.10748e-11 0
0.772747 -1.10748e-11 0
SCALARS e float
LOOKUP_TABLE default
0.71875
0.71875
0.71875
0.71875
0.71875
0.71875
0.71875
0.71875
0.71875
0.71875
0.71875
0.71875
0.71875
0.71875
0.71875
0.71875
0.71875
0.71875
0.71875
0.71875
0.71875
0.71875
0.71875
0.71875
0.71875
0.71875
0.71875
0.71875
0.71875
0.71875
0.71875
0.71875
0.71875
0.71875
0.71875
0.71875
0.71875
0.71875
0.71875
0.71875
0.71875
0.71875
0.71875
0.71875
0.71875
0.71875
0.71875
0.71875
0.71875
0.717552
0.708569
0.708569
0.708569
0.708569
0.708569
0.708569
0.708569
0.708569
0.708569
0.708569
0.708569
0.708569
0.708569
0.708569
0.708569
0.708569
0.708569
0.708569
0.708569
0.708569
0.708569
0.708569
0.708569
0.708569
0.708569
0.708569
0.708569
0.708569
0.708569
0.708569
0.708569
0.708569
0.708569
0.708569
0.708569
0.708569
0.708569
0.708569
0.708569
0.708569
0.708569
0.708569
0.708569
0.708569
0.708569
0.708569
0.708569
0.708569
0.708569
0.708569
SCALARS p float
LOOKUP_TABLE default
0.2875
0.2875
0.2875
0.2875
0.2875
0.2875
0.2875
0.2875
0.2875
0.2875
0.2875
0.2875
0.2875
0.2875
0.2875
0.2875
0.2875
0.2875
0.2875
0.2875
0.2875
0.2875
0.2875
0.2875
0.2875
0.2875
0.2875
0.2875
0.2875
0.2875
0.2875
0.2875
0.2875
0.2875
0.2875
0.2875
0.2875
0.2875
0.2875
0.2875
0.2875
0.2875
0.2875
0.2875
0.2875
0.2875
0.2875
0.2875
0.2875
0.285823
0.273364
0.273364
0.273364
0.273364
0.273364
0.273364
0.273364
0.273364
0.273364
0.273364
0.273364
0.273364
0.273364
0.273364
0.273364
0.273364
0.273364
0.273364
0.273364
0.273364
0.273364
0.273364
0.273364
0.273364
0.273364
0.273364
0.273364
0.273364
0.273364
0.273364
0.273364
0.273364
0.273364
0.273364
0.273364
0.273364
0.273364
0.273364
0.273364
0.273364
0.273364
0.273364
0.273364
0.273364
0.273364
0.273364
0.273364
0.273364
0.273364
0.273364
SCALARS x float 3
LOOKUP_TABLE default
-0.495 0 0.0025
-0.485 0 0.0025
-0.475 0 0.0025
-0.465 0 0.0025
-0.455 0 0.0025
-0.445 0 0.0025
-0.435 0 0.0025
-0.425 0 0.0025
-0.415 0 0.0025
-0.405 0 0.0025
-0.395 0 0.0025
-0.385 0 0.0025
-0.375 0 0.0025
-0.365 0 0.0025
-0.355 0 0.0025
-0.345 0 0.0025
-0.335 0 0.0025
-0.325 0 0.0025
-0.315 0 0.0025
-0.305 0 0.0025
-0.295 0 0.0025
-0.285 0 0.0025
-0.275 0 0.0025
-0.265 0 0.0025
-0.255 0 0.0025
-0.245 0 0.0025
-0.235 0 0.0025
-0.225 0 0.0025
-0.215 0 0.0025
-0.205 0 0.0025
-0.195 0 0.0025
-0.185 0 0.0025
-0.175 0 0.0025
-0.165 0 0.0025
-0.155 0 0.0025
-0.145 0 0.0025
-0.135 0 0.0025
-0.125 0 0.0025
-0.115 0 0.0025
-0.105 0 0.0025
-0.095 0 0.0025
-0.085 0 0.0025
-0.075 0 0.0025
-0.065 0 0.0025
-0.055 0 0.0025
-0.045 0 0.0025
-0.035 0 0.0025
-0.025 0 0.0025
-0.015 0 0.0025
-0.005 -5.16046e-13 0.0025
0.005 5.16046e-13 0.0025
0.015 0 0.0025
0.025 0 0.0025
0.035 0 0.0025
0.045 0 0.0025
0.055 0 0.0025
0.065 0 0.0025
0.075 0 0.0025
0.085 0 0.0025
0.095 0 0.0025
0.105 0 0.0025
0.115 0 0.0025
0.125 0 0.0025
0.135 0 0.0025
0.145 0 0.0025
0.155 0 0.0025
0.165 0 0.0025
0.175 0 0.0025
0.185 0 0.0025
0.195 0 0.0025
0.205 0 0.0025
0.215 0 0.0025
0.225 0 0.0025
0.235 0 0.0025
0.245 0 0.0025
0.255 0 0.0025
0.265 0 0.0025
0.275 0 0.0025
0.285 0 0.0025
0.295 0 0.0025
0.305 0 0.0025
0.315 0 0.0025
0.325 0 0.0025
0.335 0 0.0025
0.345 0 0.0025
0.355 0 0.0025
0.365 0 0.0025
0.375 0 0.0025
0.385 0 0.0025
0.395 0 0.0025
0.405 0 0.0025
0.415 0 0.0025
0.425 0 0.0025
0.435 0 0.0025
0.445 0 0.0025
0.455 0 0.0025
0.465 0 0.0025
0.475 0 0.0025
0.485 0 0.0025
0.495 0 0.0025
